Title
81383
    1CHL1    C3    1   5.067   5.248  10.264 -0.5276 -0.4504 -1.1364
    1CHL1    H3    2   4.970   5.286  10.301 -0.8012 -2.2120  0.0891
    1CHL1    O3    3   5.130   5.207  10.384 -0.0179  0.3318  0.2478
    1CHL1   H3'    4   5.191   5.138  10.356 -1.0957 -0.8874  0.8601
    1CHL1    C4    5   5.052   5.132  10.172  0.0823  0.2637  0.3384
    1CHL1   H4A    6   5.148   5.080  10.152 -0.6129 -0.6292 -0.8187
    1CHL1   H4B    7   4.988   5.052  10.217  0.9774 -0.6066  0.0868
    1CHL1    C5    8   5.006   5.178  10.038 -0.5476 -0.6205  0.2441
    1CHL1    C6    9   4.898   5.122   9.983 -0.6720 -0.6513  0.0523
    1CHL1    H6   10   4.844   5.043  10.037  0.7116 -2.6184 -1.3305
    1CHL1    C7   11   4.836   5.160   9.851 -0.8148 -0.7644  0.0048
    1CHL1   H7A   12   4.802   5.070   9.796 -0.4972 -0.5441 -0.5651
    1CHL1   H7B   13   4.751   5.231   9.851 -1.5320 -1.6079  0.5516
    1CHL1    C8   14   4.949   5.230   9.763  0.3580 -0.0182 -0.0456
    1CHL1    H8   15   5.013   5.146   9.731  2.6242  1.5514  0.0897
    1CHL1   C14   16   4.878   5.290   9.641 -0.5480  0.3087 -0.0488
    1CHL1   H14   17   4.812   5.374   9.671 -0.0886  1.5483 -2.3196
    1CHL1   C15   18   4.772   5.201   9.568  0.2102  0.0789 -0.3664
    1CHL1  H15A   19   4.825   5.107   9.540  1.6111  0.4845  0.8215
    1CHL1  H15B   20   4.690   5.184   9.641  0.0210  1.3200 -0.2789
    1CHL1   C16   21   4.737   5.287   9.449 -0.6187  0.1369 -0.7615
    1CHL1  H16A   22   4.739   5.217   9.363 -0.3852 -0.3813 -0.3434
    1CHL1  H16B   23   4.639   5.338   9.463 -1.3602 -1.6346  0.9746
    1CHL1   C17   24   4.851   5.391   9.446  0.3186  0.4033 -0.6972
    1CHL1   H17   25   4.816   5.479   9.504  2.2436 -0.5815  2.1735
    1CHL1   C13   26   4.965   5.339   9.534  0.0174  0.2903 -0.4864
    1CHL1   C18   27   5.044   5.227   9.462 -0.2434 -0.1935  0.1363
    1CHL1  H18A   28   5.116   5.274   9.391  0.6081 -0.4106  0.8414
    1CHL1  H18B   29   5.113   5.181   9.535  2.0121 -0.2436 -1.9159
    1CHL1  H18C   30   4.981   5.158   9.402 -0.1730 -0.0187 -0.1444
    1CHL1   C12   31   5.069   5.443   9.592  0.2562 -0.4474 -0.6139
    1CHL1  H12A   32   5.138   5.473   9.510  1.7605  1.1139  1.1226
    1CHL1  H12B   33   5.010   5.534   9.614  1.9152 -0.0844  3.0709
    1CHL1   C11   34   5.131   5.394   9.730  0.2050 -0.0078 -0.5683
    1CHL1  H11A   35   5.212   5.320   9.710  1.6106  1.6078 -1.1704
    1CHL1  H11B   36   5.173   5.480   9.787  0.7046 -0.5300 -0.1289
    1CHL1    C9   37   5.031   5.333   9.832 -0.0651 -0.0250  0.4164
    1CHL1    H9   38   4.961   5.416   9.858  0.2230 -0.1030  1.4943
    1CHL1   C10   39   5.094   5.286   9.966  0.1035 -0.5433 -0.4795
    1CHL1   C19   40   5.227   5.214   9.943  0.3599  0.0388  0.4536
    1CHL1  H19A   41   5.312   5.276   9.908  0.9400 -0.2593  1.2872
    1CHL1  H19B   42   5.263   5.167  10.037 -0.3361 -0.0018  0.7015
    1CHL1  H19C   43   5.213   5.130   9.872  0.0026  0.1771  0.3576
    1CHL1    C1   44   5.104   5.407  10.070  0.0757  0.6534  0.6884
    1CHL1   H1A   45   5.172   5.489  10.037  0.6608 -0.0511  0.1167
    1CHL1   H1B   46   5.004   5.453  10.081 -0.1914  0.1171  0.5145
    1CHL1    C2   47   5.158   5.356  10.200  0.1638 -0.7249  0.6150
    1CHL1   H2A   48   5.175   5.436  10.276  0.6284 -1.5835  1.4343
    1CHL1   H2B   49   5.259   5.316  10.178  0.3319  1.0389 -2.3305
    1CHL1   C20   50   4.886   5.434   9.306  0.4283  0.4652 -0.9721
    1CHL1   H20   51   4.996   5.452   9.297  0.9309 -2.5739 -1.9115
    1CHL1   C21   52   4.814   5.572   9.284 -0.1317  0.0046  0.1183
    1CHL1  H21A   53   4.870   5.660   9.322 -2.5263  1.0104  1.5659
    1CHL1  H21B   54   4.708   5.568   9.317 -0.1432  1.8281  0.4242
    1CHL1  H21C   55   4.795   5.586   9.176  0.6680 -1.8391 -0.2952
    1CHL1   C22   56   4.865   5.337   9.184  0.3778  0.4217 -0.5676
    1CHL1  H22A   57   4.886   5.232   9.216 -2.0413 -0.0438 -0.3000
    1CHL1  H22B   58   4.755   5.344   9.166  0.2000  1.9134  0.8722
    1CHL1   C23   59   4.932   5.377   9.051 -0.0824 -0.0430 -0.6619
    1CHL1  H23A   60   4.890   5.308   8.975  0.8851 -1.7135  0.2634
    1CHL1  H23B   61   4.907   5.483   9.027  2.8601  0.9021  0.0350
    1CHL1   C24   62   5.086   5.354   9.055  0.7712 -0.4637  0.2473
    1CHL1  H24A   63   5.136   5.443   9.098 -0.3528  0.7257 -0.8290
    1CHL1  H24B   64   5.098   5.264   9.120 -1.2312 -0.5068  0.5986
    1CHL1   C25   65   5.152   5.339   8.915  0.4191  0.8931  0.2247
    1CHL1   H25   66   5.096   5.267   8.852 -2.6263  0.8595  2.7030
    1CHL1   C26   67   5.147   5.473   8.838 -0.3592 -0.3008  0.2025
    1CHL1  H26A   68   5.047   5.488   8.792  0.0423  0.5700 -0.4117
    1CHL1  H26B   69   5.182   5.553   8.906 -0.1456 -0.2755  0.0617
    1CHL1  H26C   70   5.225   5.460   8.761  1.4066  0.2182  1.8428
    1CHL1   C27   71   5.295   5.279   8.931 -0.0891 -0.0578 -0.4024
    1CHL1  H27A   72   5.291   5.178   8.976 -0.3806 -0.1951 -0.7334
    1CHL1  H27B   73   5.347   5.269   8.833 -0.0592 -0.6164 -0.3319
    1CHL1  H27C   74   5.351   5.339   9.007 -3.4189 -0.7081  2.8574
    2CHL1    C3   75   6.350   0.487  10.008  0.2507  0.0367 -0.1236
    2CHL1    H3   76   6.375   0.594   9.991  0.1178  0.1626  0.4455
    2CHL1    O3   77   6.306   0.468  10.146  0.1426  0.5429 -0.0874
    2CHL1   H3'   78   6.386   0.455  10.197 -0.0606 -2.4492 -0.3906
    2CHL1    C4   79   6.234   0.449   9.908 -0.0244  0.0858 -0.4239
    2CHL1   H4A   80   6.207   0.342   9.924 -1.7616  0.2708 -1.7692
    2CHL1   H4B   81   6.146   0.514   9.929  0.5135  0.4290  0.8513
    2CHL1    C5   82   6.263   0.450   9.756  0.8514 -0.6867  0.0952
    2CHL1    C6   83   6.194   0.526   9.667 -0.2122 -0.0915  0.0566
    2CHL1    H6   84   6.108   0.581   9.707 -1.0559 -0.2103 -1.5315
    2CHL1    C7   85   6.221   0.523   9.516  0.2386 -0.0766  0.0419
    2CHL1   H7A   86   6.126   0.514   9.459  0.6614  1.4272 -0.9607
    2CHL1   H7B   87   6.273   0.620   9.498  0.5739  0.2876  2.5939
    2CHL1    C8   88   6.319   0.416   9.473 -0.8863 -0.2184 -0.3253
    2CHL1    H8   89   6.270   0.316   9.468 -0.6707 -0.5048  2.2474
    2CHL1   C14   90   6.385   0.455   9.337  0.3633 -0.6880 -0.5530
    2CHL1   H14   91   6.447   0.546   9.352 -1.3250  0.8049 -2.2480
    2CHL1   C15   92   6.288   0.484   9.225  0.3988  0.0683  0.3566
    2CHL1  H15A   93   6.210   0.408   9.202  1.3568 -0.7788 -0.1347
    2CHL1  H15B   94   6.240   0.584   9.236 -0.5318 -0.1245 -1.5303
    2CHL1   C16   95   6.373   0.480   9.099  0.7004 -0.6394  0.2621
    2CHL1  H16A   96   6.310   0.432   9.021 -1.0572  0.9263  0.6351
    2CHL1  H16B   97   6.393   0.586   9.072 -1.3569  0.0719  1.2658
    2CHL1   C17   98   6.501   0.404   9.139 -0.1409 -0.1158  0.6091
    2CHL1   H17   99   6.590   0.470   9.151  0.5563 -0.9992  0.3564
    2CHL1   C13  100   6.476   0.350   9.281 -0.0670 -0.3001 -0.2501
    2CHL1   C18  101   6.406   0.208   9.272  0.3261 -0.1931  0.8761
    2CHL1  H18A  102   6.461   0.134   9.209  1.1713  1.3074 -0.2169
    2CHL1  H18B  103   6.371   0.157   9.364 -1.4407  1.8434  1.4034
    2CHL1  H18C  104   6.313   0.223   9.213  0.4884  0.7383  0.8449
    2CHL1   C12  105   6.602   0.361   9.374 -0.2344  0.3015 -0.2881
    2CHL1  H12A  106   6.678   0.293   9.330  0.9002  2.5978 -2.0697
    2CHL1  H12B  107   6.651   0.460   9.369  2.6641 -1.1098 -2.2807
    2CHL1   C11  108   6.558   0.329   9.520 -0.3281  0.5408 -0.3299
    2CHL1  H11A  109   6.533   0.222   9.530  0.4753  0.3043 -0.7496
    2CHL1  H11B  110   6.649   0.347   9.581 -1.3754  0.4647  1.3127
    2CHL1    C9  111   6.435   0.408   9.578 -0.1652  0.5337  0.4227
    2CHL1    H9  112   6.477   0.511   9.583  2.3386 -0.4198  0.4765
    2CHL1   C10  113   6.393   0.372   9.723 -0.5272 -0.7936 -0.2937
    2CHL1   C19  114   6.378   0.210   9.728 -0.0974 -0.0087  0.1350
    2CHL1  H19A  115   6.324   0.177   9.636 -1.4335 -0.8971  1.1913
    2CHL1  H19B  116   6.475   0.157   9.737 -0.0141 -0.7970 -3.6217
    2CHL1  H19C  117   6.308   0.182   9.810 -0.2245  1.3524  0.5073
    2CHL1    C1  118   6.503   0.407   9.823 -0.9936 -0.2190  0.3204
    2CHL1   H1A  119   6.575   0.324   9.808 -1.8114 -0.9035  0.0967
    2CHL1   H1B  120   6.546   0.505   9.794 -0.5079 -0.3632  0.5425
    2CHL1    C2  121   6.475   0.400   9.975  0.1884  0.2207  0.1227
    2CHL1   H2A  122   6.568   0.408  10.035 -0.0196  0.7780  0.3699
    2CHL1   H2B  123   6.432   0.301  10.001 -3.0030  1.4570  0.0482
    2CHL1   C20  124   6.531   0.306   9.019  0.2257  0.9385  0.8268
    2CHL1   H20  125   6.451   0.231   8.999  1.0265  0.7020 -1.9135
    2CHL1   C21  126   6.657   0.221   9.057 -0.6583  0.0890  0.1065
    2CHL1  H21A  127   6.740   0.292   9.077 -0.4926 -0.3779  1.1492
    2CHL1  H21B  128   6.687   0.153   8.974  0.7012  0.1275  0.5413
    2CHL1  H21C  129   6.637   0.166   9.151  0.7041 -0.5225  0.0569
    2CHL1   C22  130   6.558   0.369   8.879 -0.0920 -0.3612 -0.2905
    2CHL1  H22A  131   6.474   0.436   8.852  0.1278  0.4070  0.8734
    2CHL1  H22B  132   6.645   0.439   8.883 -0.2835 -0.1635  0.8536
    2CHL1   C23  133   6.567   0.266   8.768 -0.3365 -0.0604 -0.1541
    2CHL1  H23A  134   6.666   0.216   8.775 -1.1810 -1.7307  0.3594
    2CHL1  H23B  135   6.482   0.202   8.800  1.5694 -0.3333  5.3425
    2CHL1   C24  136   6.519   0.309   8.628 -0.3176  0.0572 -0.1354
    2CHL1  H24A  137   6.427   0.368   8.645  1.0530  2.1500  0.4043
    2CHL1  H24B  138   6.589   0.382   8.581 -0.0567 -0.5966 -0.7817
    2CHL1   C25  139   6.496   0.205   8.520  0.1764  0.0100  0.2160
    2CHL1   H25  140   6.456   0.255   8.430  0.1840  0.3601  0.4064
    2CHL1   C26  141   6.623   0.116   8.480  1.3612 -0.9871 -0.5716
    2CHL1  H26A  142   6.665   0.154   8.384  0.2290  2.2186  0.0753
    2CHL1  H26B  143   6.702   0.114   8.558  0.7148 -2.8547  0.0890
    2CHL1  H26C  144   6.587   0.013   8.462  1.7694 -1.1934 -0.2230
    2CHL1   C27  145   6.384   0.109   8.553  0.3449 -0.1990 -0.1104
    2CHL1  H27A  146   6.423   0.032   8.623  0.7973  0.6213  0.5560
    2CHL1  H27B  147   6.301   0.170   8.594  0.5831 -0.7990  1.3092
    2CHL1  H27C  148   6.344   0.060   8.462  1.7363 -0.4162 -0.6409
    3CHL1    C3  149   3.650   4.042  10.080  0.0576  0.3023 -0.7403
    3CHL1    H3  150   3.744   3.983  10.081  0.8504  1.5256 -0.8814
    3CHL1    O3  151   3.612   4.067  10.217  0.2196  0.1253  0.8084
    3CHL1   H3'  152   3.689   4.099  10.266  0.1311  1.4483  0.1177
    3CHL1    C4  153   3.687   4.185  10.017  0.1549  0.2517 -0.1260
    3CHL1   H4A  154   3.612   4.261  10.049  0.0082 -0.2417  0.7378
    3CHL1   H4B  155   3.782   4.212  10.070 -1.0003  1.1166  1.6046
    3CHL1    C5  156   3.698   4.179   9.869  0.4552  0.5127  0.6896
    3CHL1    C6  157   3.805   4.212   9.798  0.1428 -0.7949  0.0232
    3CHL1    H6  158   3.901   4.225   9.850 -0.3248  0.0049  0.7074
    3CHL1    C7  159   3.816   4.212   9.650 -0.0642 -0.1311 -0.5331
    3CHL1   H7A  160   3.879   4.301   9.625 -1.7908  2.3735  3.0949
    3CHL1   H7B  161   3.865   4.117   9.621  0.6271 -0.3387  1.1814
    3CHL1    C8  162   3.678   4.217   9.584 -0.4917 -0.2503 -0.0552
    3CHL1    H8  163   3.631   4.312   9.618 -1.8574 -1.0540  0.3723
    3CHL1   C14  164   3.688   4.203   9.433 -0.0353  0.1525  0.4009
    3CHL1   H14  165   3.733   4.103   9.418 -2.8222 -1.4834  2.1722
    3CHL1   C15  166   3.778   4.298   9.353  0.1080 -0.5672  0.5242
    3CHL1  H15A  167   3.757   4.406   9.370 -1.7938 -0.9358  0.7570
    3CHL1  H15B  168   3.885   4.280   9.374 -0.6307 -2.6359  2.9331
    3CHL1   C16  169   3.745   4.257   9.205 -0.0746  0.4088  0.4140
    3CHL1  H16A  170   3.729   4.354   9.154 -1.7933 -0.1133 -0.1072
    3CHL1  H16B  171   3.821   4.190   9.159 -0.1078  0.3699  0.4168
    3CHL1   C17  172   3.614   4.169   9.208  0.5193 -0.1266 -0.3409
    3CHL1   H17  173   3.661   4.069   9.206  3.2050  0.9589  1.6365
    3CHL1   C13  174   3.560   4.186   9.352 -0.5827  0.1426  0.4688
    3CHL1   C18  175   3.479   4.315   9.355 -0.5245 -0.6781  0.4765
    3CHL1  H18A  176   3.460   4.350   9.459  0.6959  0.3794  0.3738
    3CHL1  H18B  177   3.535   4.402   9.315 -1.8508 -0.6457 -1.4646
    3CHL1  H18C  178   3.382   4.319   9.302 -0.6253  1.3385  0.7370
    3CHL1   C12  179   3.485   4.072   9.415  0.0773  0.3088  0.3345
    3CHL1  H12A  180   3.389   4.060   9.360  1.1029  2.3069 -2.0781
    3CHL1  H12B  181   3.542   3.981   9.388 -0.4623  0.6307 -2.1418
    3CHL1   C11  182   3.465   4.079   9.567 -0.4591  0.1062  0.2976
    3CHL1  H11A  183   3.410   4.174   9.587  0.9323  0.5829  2.1117
    3CHL1  H11B  184   3.407   3.991   9.601  1.7330 -0.9969  1.3260
    3CHL1    C9  185   3.596   4.099   9.645 -0.2621  0.5270  0.7627
    3CHL1    H9  186   3.662   4.014   9.615  1.5010  2.1454 -0.1876
    3CHL1   C10  187   3.573   4.122   9.798  0.8611 -0.3177 -0.6593
    3CHL1   C19  188   3.446   4.210   9.824 -0.5755 -0.3549 -0.2751
    3CHL1  H19A  189   3.466   4.300   9.762  0.9010 -0.1193  0.5010
    3CHL1  H19B  190   3.353   4.155   9.798 -0.6357 -0.4595  0.1480
    3CHL1  H19C  191   3.442   4.257   9.925  1.8803 -0.3339 -0.1154
    3CHL1    C1  192   3.557   3.984   9.852  0.4992  0.2522  0.2494
    3CHL1   H1A  193   3.464   3.939   9.813 -0.0147  1.1349  0.4118
    3CHL1   H1B  194   3.640   3.920   9.816  0.4424  1.5358 -2.3616
    3CHL1    C2  195   3.539   3.975  10.006  0.0102 -0.1002 -0.3658
    3CHL1   H2A  196   3.527   3.872  10.046 -0.2779  0.7257  1.8083
    3CHL1   H2B  197   3.441   4.025  10.022  0.0394 -0.4880  1.2771
    3CHL1   C20  198   3.523   4.185   9.086  0.0168  0.3062  0.2736
    3CHL1   H20  199   3.461   4.276   9.101 -1.0315  0.0139 -1.8973
    3CHL1   C21  200   3.424   4.069   9.085 -0.0573 -0.0654  0.1657
    3CHL1  H21A  201   3.337   4.077   9.153  0.1181 -2.0927  0.7007
    3CHL1  H21B  202   3.476   3.972   9.102  3.5689  1.8911  1.1944
    3CHL1  H21C  203   3.371   4.061   8.987 -1.2455  0.5508  0.7357
    3CHL1   C22  204   3.605   4.201   8.954  0.3207  0.3558 -1.0113
    3CHL1  H22A  205   3.522   4.227   8.885 -0.1217  1.3362 -0.1353
    3CHL1  H22B  206   3.677   4.286   8.952  0.7660  0.0478  0.7086
    3CHL1   C23  207   3.671   4.072   8.910 -0.3753 -0.3872  0.3379
    3CHL1  H23A  208   3.744   4.036   8.986 -0.6765  1.1095  1.3905
    3CHL1  H23B  209   3.590   3.996   8.910 -0.6172 -0.1509  1.2748
    3CHL1   C24  210   3.734   4.085   8.771  0.4127  0.4561 -0.4243
    3CHL1  H24A  211   3.783   3.989   8.747  0.7318  0.3396  0.6218
    3CHL1  H24B  212   3.650   4.091   8.698  1.7017  3.0904 -1.8336
    3CHL1   C25  213   3.843   4.192   8.764 -0.0383 -0.0358  0.3501
    3CHL1   H25  214   3.789   4.288   8.776 -1.0088 -0.4868 -0.2945
    3CHL1   C26  215   3.943   4.181   8.869 -0.2616 -0.2176 -0.4416
    3CHL1  H26A  216   4.028   4.250   8.852  0.6898 -0.3714  2.9074
    3CHL1  H26B  217   3.901   4.204   8.969 -0.4948 -0.5098 -0.4704
    3CHL1  H26C  218   3.976   4.075   8.871  0.9470  0.1524  0.4743
    3CHL1   C27  219   3.914   4.170   8.631  0.7540  0.3016 -0.5113
    3CHL1  H27A  220   3.962   4.070   8.629  0.4604  0.0758  1.4781
    3CHL1  H27B  221   3.844   4.182   8.545 -1.3131  1.4130  1.2344
    3CHL1  H27C  222   3.999   4.242   8.622  3.0036 -1.5838  3.3188
    4CHL1    C3  223   6.247   5.842  10.465 -0.0888 -0.1132 -0.2782
    4CHL1    H3  224   6.275   5.946  10.437 -0.5417 -0.2576 -1.3292
    4CHL1    O3  225   6.287   5.825  10.599 -0.8056 -0.3276 -0.4305
    4CHL1   H3'  226   6.307   5.733  10.617 -0.8053  0.0220  1.5588
    4CHL1    C4  227   6.093   5.825  10.445 -0.9296 -0.1779 -0.2844
    4CHL1   H4A  228   6.062   5.724  10.479  0.8503 -0.9779 -0.9098
    4CHL1   H4B  229   6.045   5.901  10.509 -0.7312 -0.0653 -0.2666
    4CHL1    C5  230   6.055   5.839  10.301  0.5881  0.6603  0.0969
    4CHL1    C6  231   5.965   5.933  10.263 -0.0181 -0.3491 -0.0293
    4CHL1    H6  232   5.907   5.988  10.337 -0.5394 -2.4869  1.2527
    4CHL1    C7  233   5.922   5.943  10.121 -0.9008 -0.7676 -0.3698
    4CHL1   H7A  234   5.820   5.987  10.120 -0.2586  1.2844  3.2852
    4CHL1   H7B  235   5.988   6.024  10.082  2.6185 -2.0584  2.3839
    4CHL1    C8  236   5.959   5.823  10.035  0.3190 -0.4394 -0.0569
    4CHL1    H8  237   5.888   5.745  10.069  0.9733 -1.8214 -1.6690
    4CHL1   C14  238   5.929   5.860   9.888 -0.2498 -0.0936 -0.1475
    4CHL1   H14  239   5.993   5.946   9.857  0.6446 -1.4164 -2.1909
    4CHL1   C15  240   5.788   5.898   9.856  0.7836  1.0632 -0.5607
    4CHL1  H15A  241   5.711   5.842   9.912  1.6398 -1.2233 -1.5639
    4CHL1  H15B  242   5.751   5.998   9.886  0.6117  0.5173  1.1522
    4CHL1   C16  243   5.776   5.871   9.705 -0.5085  0.0616 -0.1668
    4CHL1  H16A  244   5.683   5.814   9.683 -0.8260  0.3784  0.3251
    4CHL1  H16B  245   5.775   5.961   9.640  0.1382  1.1304  1.2456
    4CHL1   C17  246   5.915   5.795   9.657  0.0252 -0.5125 -0.5927
    4CHL1   H17  247   5.991   5.869   9.625  2.8150 -2.3171  1.3894
    4CHL1   C13  248   5.963   5.745   9.792  0.2955  0.7919  0.4500
    4CHL1   C18  249   5.875   5.619   9.828  0.5009 -0.0542 -0.5086
    4CHL1  H18A  250   5.894   5.593   9.935  1.2472  1.6361 -0.1978
    4CHL1  H18B  251   5.767   5.640   9.821  0.0260 -0.9884  2.4401
    4CHL1  H18C  252   5.908   5.533   9.766 -0.5798 -0.0301 -1.1390
    4CHL1   C12  253   6.109   5.707   9.805  0.1474 -0.6705  0.2669
    4CHL1  H12A  254   6.142   5.619   9.745  1.2331 -0.9927  1.3116
    4CHL1  H12B  255   6.174   5.794   9.782  0.2416 -1.0115 -0.8206
    4CHL1   C11  256   6.155   5.674   9.947 -0.0067  0.2217 -0.4160
    4CHL1  H11A  257   6.112   5.576   9.976  1.8847 -0.0765  1.6426
    4CHL1  H11B  258   6.264   5.659   9.958  0.2626  1.4573 -1.1219
    4CHL1    C9  259   6.107   5.775  10.052 -0.2427 -0.5221 -0.6865
    4CHL1    H9  260   6.168   5.868  10.047 -0.2427 -0.1676  3.1354
    4CHL1   C10  261   6.133   5.738  10.199  0.4415  0.1100 -0.5695
    4CHL1   C19  262   6.085   5.600  10.237 -0.6379 -0.2152  0.0661
    4CHL1  H19A  263   6.157   5.533  10.185  0.4268  0.0176  1.1909
    4CHL1  H19B  264   6.074   5.576  10.345  1.0640  2.9604  1.0630
    4CHL1  H19C  265   5.984   5.588  10.191 -1.0121  0.1419  0.7877
    4CHL1    C1  266   6.286   5.754  10.226 -0.4230 -0.9417  0.1164
    4CHL1   H1A  267   6.337   5.671  10.173 -0.8631 -3.1707  2.9694
    4CHL1   H1B  268   6.324   5.853  10.192  1.0312 -1.4527  0.1903
    4CHL1    C2  269   6.329   5.747  10.379  0.9176 -0.2223 -0.3221
    4CHL1   H2A  270   6.435   5.776  10.392  0.6718  0.0944  1.1135
    4CHL1   H2B  271   6.295   5.647  10.412 -4.0782  0.9327 -1.0854
    4CHL1   C20  272   5.891   5.696   9.534  0.4950  0.1513 -0.0993
    4CHL1   H20  273   5.821   5.622   9.578 -1.9873  1.7001 -1.2715
    4CHL1   C21  274   6.026   5.629   9.497  0.0340 -0.3217 -0.6638
    4CHL1  H21A  275   6.100   5.710   9.482 -0.3819  0.0810 -0.5867
    4CHL1  H21B  276   6.011   5.575   9.400  3.1448  0.6100 -1.7755
    4CHL1  H21C  277   6.058   5.556   9.574 -0.7253 -3.2568 -2.9198
    4CHL1   C22  278   5.818   5.757   9.416 -0.1719  0.2279  0.4312
    4CHL1  H22A  279   5.805   5.678   9.340 -2.0991  1.7186 -0.9129
    4CHL1  H22B  280   5.716   5.790   9.446 -0.6481 -0.5658 -0.2704
    4CHL1   C23  281   5.884   5.871   9.341 -0.4761 -0.4260 -0.2117
    4CHL1  H23A  282   5.901   5.961   9.403  3.5026 -0.7570 -0.5643
    4CHL1  H23B  283   5.977   5.839   9.289 -0.9182 -1.3443 -0.4782
    4CHL1   C24  284   5.793   5.912   9.217 -0.3407 -0.6149 -0.1068
    4CHL1  H24A  285   5.771   5.820   9.159  0.6131 -0.0262 -1.4521
    4CHL1  H24B  286   5.705   5.962   9.263 -1.3446 -1.0212 -1.5041
    4CHL1   C25  287   5.865   6.001   9.108  0.3314  0.4115 -0.1915
    4CHL1   H25  288   5.929   6.079   9.155  2.4924 -1.1584 -0.3687
    4CHL1   C26  289   5.962   5.913   9.031 -0.4480 -0.3370  0.8479
    4CHL1  H26A  290   6.045   5.878   9.095  0.6528  0.3823 -0.1340
    4CHL1  H26B  291   5.914   5.825   8.982  3.5602 -1.1893 -2.0414
    4CHL1  H26C  292   6.008   5.963   8.943  0.3407 -1.8630  0.3585
    4CHL1   C27  293   5.763   6.061   9.015 -0.3674 -0.2800  0.5183
    4CHL1  H27A  294   5.697   6.142   9.051  0.1095  0.2628  0.2037
    4CHL1  H27B  295   5.819   6.107   8.931 -0.1959 -1.2211  0.1044
    4CHL1  H27C  296   5.699   5.983   8.970  1.1892 -1.2079 -0.1504
    5CHL1    C3  297   4.319   3.266  10.157  0.5855 -0.3438  0.5248
    5CHL1    H3  298   4.311   3.158  10.131  2.6316 -0.8210  1.7225
    5CHL1    O3  299   4.311   3.286  10.293 -0.4702 -0.3207 -0.2993
    5CHL1   H3'  300   4.386   3.338  10.323  0.3353 -0.6928 -1.5455
    5CHL1    C4  301   4.449   3.314  10.097 -0.5547 -0.5102  0.2629
    5CHL1   H4A  302   4.462   3.421  10.123  0.6622 -1.3865  3.7455
    5CHL1   H4B  303   4.526   3.266  10.160 -2.2206 -2.6559  0.7854
    5CHL1    C5  304   4.461   3.294   9.945  0.4756 -0.3005 -0.5742
    5CHL1    C6  305   4.561   3.224   9.887 -0.0203 -0.0261 -0.1794
    5CHL1    H6  306   4.641   3.180   9.949  0.8645  0.6136 -0.8332
    5CHL1    C7  307   4.583   3.207   9.742  0.6167 -0.0366 -0.2514
    5CHL1   H7A  308   4.690   3.235   9.727  0.8520 -0.5448  0.4273
    5CHL1   H7B  309   4.577   3.100   9.712 -1.6987 -0.3495  1.1430
    5CHL1    C8  310   4.491   3.303   9.662 -0.8095  0.4926 -0.2218
    5CHL1    H8  311   4.526   3.408   9.667  2.3529 -0.4195 -0.9489
    5CHL1   C14  312   4.488   3.255   9.514 -0.8657 -0.5522 -0.4248
    5CHL1   H14  313   4.434   3.158   9.517 -2.5144  0.3566  1.0258
    5CHL1   C15  314   4.625   3.230   9.442  0.7237  0.5121 -0.0719
    5CHL1  H15A  315   4.699   3.308   9.470  0.5607  0.9506 -0.8247
    5CHL1  H15B  316   4.666   3.133   9.477 -0.3882  0.6022  1.5821
    5CHL1   C16  317   4.579   3.234   9.298  0.5466  0.4497  0.3222
    5CHL1  H16A  318   4.642   3.305   9.240  1.3902  0.4127  1.1656
    5CHL1  H16B  319   4.580   3.132   9.256  0.0344 -0.2522  1.9305
    5CHL1   C17  320   4.430   3.281   9.292  0.0477  0.0208 -1.0625
    5CHL1   H17  321   4.353   3.200   9.293 -0.9212  0.9244 -0.1713
    5CHL1   C13  322   4.409   3.353   9.427 -0.0555  0.7962  0.4044
    5CHL1   C18  323   4.468   3.500   9.411  0.0216  0.2780 -0.2370
    5CHL1  H18A  324   4.407   3.568   9.347 -1.0632  0.2170  0.6997
    5CHL1  H18B  325   4.483   3.547   9.510  0.1118 -0.5496  0.1565
    5CHL1  H18C  326   4.572   3.502   9.373 -0.8422  0.4045 -2.7772
    5CHL1   C12  327   4.263   3.360   9.482  0.0471  0.2123 -0.1171
    5CHL1  H12A  328   4.210   3.434   9.419 -1.4081 -0.9453 -0.3240
    5CHL1  H12B  329   4.197   3.270   9.481  1.2769 -0.7449  0.9132
    5CHL1   C11  330   4.266   3.410   9.627  0.1385  0.0553  0.5645
    5CHL1  H11A  331   4.312   3.512   9.630  2.3848 -0.8166 -1.3118
    5CHL1  H11B  332   4.163   3.421   9.666 -0.7383 -2.2142 -0.9207
    5CHL1    C9  333   4.348   3.313   9.714  0.7009 -0.7217  0.1926
    5CHL1    H9  334   4.298   3.214   9.713 -0.6773 -0.0728  1.2342
    5CHL1   C10  335   4.348   3.355   9.865 -0.4426  0.4382  0.2884
    5CHL1   C19  336   4.366   3.503   9.878 -0.3604 -0.2010  0.2187
    5CHL1  H19A  337   4.372   3.543   9.981  2.0296  0.8849 -0.2525
    5CHL1  H19B  338   4.468   3.536   9.846  0.1626 -2.1698 -0.2542
    5CHL1  H19C  339   4.287   3.563   9.827 -0.9787 -1.7552 -0.7146
    5CHL1    C1  340   4.204   3.327   9.928 -0.4821 -0.5843 -0.1519
    5CHL1   H1A  341   4.132   3.398   9.883  1.1063  1.7544  0.7490
    5CHL1   H1B  342   4.192   3.218   9.909 -2.7723 -0.4652  0.3767
    5CHL1    C2  343   4.202   3.343  10.085 -0.6883  0.1580 -0.1825
    5CHL1   H2A  344   4.106   3.299  10.120 -0.4880 -1.3757 -1.4523
    5CHL1   H2B  345   4.213   3.451  10.110  0.4375 -0.1676  0.8543
    5CHL1   C20  346   4.387   3.347   9.164 -0.1140 -0.0574  0.9539
    5CHL1   H20  347   4.430   3.450   9.165 -1.0617  0.3620 -0.0159
    5CHL1   C21  348   4.237   3.358   9.162 -0.1942 -0.0549  0.1701
    5CHL1  H21A  349   4.184   3.274   9.212 -2.1026 -0.5553 -2.4730
    5CHL1  H21B  350   4.204   3.365   9.056 -0.6251 -1.7753  0.1558
    5CHL1  H21C  351   4.208   3.451   9.216  0.7821  0.6955 -0.5623
    5CHL1   C22  352   4.444   3.278   9.028  0.1615  0.4718  1.2075
    5CHL1  H22A  353   4.551   3.249   9.032  0.4850  1.5640  0.5470
    5CHL1  H22B  354   4.391   3.180   9.019 -0.5937  0.8644  1.2695
    5CHL1   C23  355   4.446   3.357   8.908 -0.6001 -0.7908  0.2728
    5CHL1  H23A  356   4.345   3.400   8.893  0.6383  1.8367 -1.2336
    5CHL1  H23B  357   4.520   3.439   8.924  1.1868 -2.1583 -0.6147
    5CHL1   C24  358   4.494   3.296   8.782  0.5213  0.5362  0.1543
    5CHL1  H24A  359   4.600   3.263   8.787 -0.2225 -2.4607 -1.3992
    5CHL1  H24B  360   4.440   3.200   8.769 -0.6140  1.4897 -3.3095
    5CHL1   C25  361   4.464   3.377   8.653 -0.5810  0.6324 -0.0853
    5CHL1   H25  362   4.355   3.392   8.663 -1.1366 -3.2353  1.6439
    5CHL1   C26  363   4.541   3.512   8.646  0.0789 -0.3418 -0.3596
    5CHL1  H26A  364   4.542   3.564   8.744 -0.6315  1.9393 -1.4890
    5CHL1  H26B  365   4.647   3.485   8.624  0.8065 -0.2993  2.6513
    5CHL1  H26C  366   4.507   3.572   8.558  1.1268 -0.6209 -0.9770
    5CHL1   C27  367   4.505   3.300   8.534 -0.1191 -0.5567  0.4361
    5CHL1  H27A  368   4.462   3.198   8.540 -0.4289 -0.4666 -0.0807
    5CHL1  H27B  369   4.462   3.342   8.440 -2.7679 -1.0291  1.3433
    5CHL1  H27C  370   4.616   3.292   8.530 -0.1031  0.0237 -0.9677
    6CHL1    C3  371   2.569   5.872  10.441 -0.2274  0.4036 -0.0477
    6CHL1    H3  372   2.513   5.964  10.412  0.0062  0.3665 -0.6193
    6CHL1    O3  373   2.573   5.868  10.584  0.0163 -0.1854  0.0920
    6CHL1   H3'  374   2.486   5.847  10.619  1.0368  0.1453  3.1410
    6CHL1    C4  375   2.494   5.746  10.395 -0.2633 -0.0887 -0.4003
    6CHL1   H4A  376   2.553   5.656  10.420  1.5061  0.0805 -3.4073
    6CHL1   H4B  377   2.404   5.726  10.457  0.1826 -0.1987  0.2213
    6CHL1    C5  378   2.470   5.736  10.252  0.3044 -0.1509 -0.0513
    6CHL1    C6  379   2.350   5.743  10.190  0.1024 -0.5539 -0.0819
    6CHL1    H6  380   2.260   5.753  10.253 -0.6436 -0.7031 -1.1016
    6CHL1    C7  381   2.333   5.733  10.039  0.0361 -0.8111  0.5220
    6CHL1   H7A  382   2.255   5.655  10.030 -1.6304  0.8532 -0.2424
    6CHL1   H7B  383   2.296   5.831  10.001  2.6941  0.1745  0.2538
    6CHL1    C8  384   2.466   5.704   9.959  0.4347 -0.3427  0.3936
    6CHL1    H8  385   2.470   5.595   9.944  0.2235 -0.3605  0.4552
    6CHL1   C14  386   2.458   5.747   9.815 -0.0979  0.3076 -0.1041
    6CHL1   H14  387   2.452   5.858   9.809  0.1375  0.3308  0.0904
    6CHL1   C15  388   2.329   5.707   9.731  0.1706  0.1632  0.4711
    6CHL1  H15A  389   2.304   5.605   9.767 -0.4613  0.4800  0.9682
    6CHL1  H15B  390   2.245   5.776   9.758 -0.3674  0.8585 -2.6002
    6CHL1   C16  391   2.370   5.726   9.582 -0.5717 -0.3203 -0.2812
    6CHL1  H16A  392   2.353   5.629   9.532  0.0494 -0.8414  0.4865
    6CHL1  H16B  393   2.311   5.812   9.544 -2.2068 -0.7129  1.2739
    6CHL1   C17  394   2.522   5.769   9.586  1.2522 -0.0304  0.2306
    6CHL1   H17  395   2.534   5.880   9.584  1.5133 -0.0427  0.7934
    6CHL1   C13  396   2.575   5.712   9.720  0.0073  0.3067  0.4920
    6CHL1   C18  397   2.603   5.551   9.704 -0.2141 -0.3782 -0.0882
    6CHL1  H18A  398   2.685   5.534   9.632  0.1376 -1.1226  0.4772
    6CHL1  H18B  399   2.631   5.511   9.804 -0.5509 -1.6749 -0.4967
    6CHL1  H18C  400   2.509   5.500   9.672  0.1730 -0.2558 -1.4929
    6CHL1   C12  401   2.698   5.779   9.774  0.1860  0.2671 -0.3385
    6CHL1  H12A  402   2.797   5.749   9.733  0.7642  0.6608  0.7099
    6CHL1  H12B  403   2.685   5.888   9.754 -2.0276 -0.2922 -2.3173
    6CHL1   C11  404   2.711   5.765   9.929  0.1381 -0.2519 -0.1174
    6CHL1  H11A  405   2.756   5.665   9.943  2.4079  0.4757 -1.7490
    6CHL1  H11B  406   2.778   5.844   9.971  0.2116  0.0945 -0.8759
    6CHL1    C9  407   2.584   5.771  10.021  0.0967 -0.2546  0.1582
    6CHL1    H9  408   2.554   5.877  10.023 -0.5389 -0.4270 -0.0519
    6CHL1   C10  409   2.605   5.731  10.171 -1.1087  0.1268  0.1464
    6CHL1   C19  410   2.659   5.587  10.172 -0.1099  0.1335 -1.0220
    6CHL1  H19A  411   2.638   5.521  10.086  2.5191 -1.8051 -0.3024
    6CHL1  H19B  412   2.770   5.589  10.174 -0.1084  0.4961  1.3004
    6CHL1  H19C  413   2.618   5.523  10.253 -1.1721 -1.8849 -3.0630
    6CHL1    C1  414   2.703   5.839  10.232 -0.2542 -0.1584 -0.4496
    6CHL1   H1A  415   2.801   5.839  10.181  0.5076 -0.2852  0.9600
    6CHL1   H1B  416   2.653   5.930  10.193 -4.5775 -2.3312 -0.6436
    6CHL1    C2  417   2.709   5.864  10.384  0.0311  0.1709  0.8331
    6CHL1   H2A  418   2.766   5.958  10.398  1.7882 -1.0199  1.9973
    6CHL1   H2B  419   2.779   5.788  10.425 -1.0056 -3.1295 -2.8216
    6CHL1   C20  420   2.591   5.724   9.453  0.7163  0.4291  0.4733
    6CHL1   H20  421   2.592   5.614   9.441 -2.4933  0.3059  0.3573
    6CHL1   C21  422   2.742   5.782   9.456 -0.0501  0.7590 -0.5557
    6CHL1  H21A  423   2.780   5.809   9.355 -0.4861 -0.8102 -1.1668
    6CHL1  H21B  424   2.823   5.732   9.514 -0.3870  0.8424 -0.0054
    6CHL1  H21C  425   2.737   5.879   9.510 -0.5769  0.6695 -0.4417
    6CHL1   C22  426   2.516   5.786   9.334  1.1193 -0.2140  0.1983
    6CHL1  H22A  427   2.406   5.776   9.340  1.0206  1.4133  3.0183
    6CHL1  H22B  428   2.547   5.891   9.354  3.2196 -1.0805  1.9387
    6CHL1   C23  429   2.560   5.734   9.201 -0.0646  0.2097  0.1048
    6CHL1  H23A  430   2.666   5.764   9.188 -0.5342  1.3737 -1.3297
    6CHL1  H23B  431   2.547   5.624   9.208 -2.4293  0.4625  0.7717
    6CHL1   C24  432   2.474   5.808   9.101  0.2358  0.6702 -0.2027
    6CHL1  H24A  433   2.369   5.772   9.096  0.0964  1.2332 -2.3989
    6CHL1  H24B  434   2.459   5.918   9.113 -0.8312  0.7346 -1.7911
    6CHL1   C25  435   2.533   5.800   8.957 -0.2142  0.4959  0.1577
    6CHL1   H25  436   2.464   5.856   8.891  0.1191  0.9092  0.1571
    6CHL1   C26  437   2.661   5.880   8.939  0.5543  0.0169  0.3807
    6CHL1  H26A  438   2.655   5.988   8.963 -1.1995  0.0968 -0.2330
    6CHL1  H26B  439   2.747   5.841   8.997 -0.3880 -2.1354  0.4317
    6CHL1  H26C  440   2.699   5.876   8.835  1.7663 -1.5089  0.8535
    6CHL1   C27  441   2.558   5.656   8.910  0.3998  0.2812 -0.7827
    6CHL1  H27A  442   2.465   5.595   8.900 -0.6408  1.1117  2.6937
    6CHL1  H27B  443   2.595   5.662   8.805 -0.7962 -0.6115 -1.2788
    6CHL1  H27C  444   2.635   5.599   8.967  0.0359  1.8994  1.4489
    7CHL1    C3  445   6.576   6.747  10.328  0.2918 -0.9881 -0.7151
    7CHL1    H3  446   6.472   6.742  10.290 -0.2537  0.0774  0.5528
    7CHL1    O3  447   6.567   6.736  10.466 -0.5617  0.2630 -0.0129
    7CHL1   H3'  448   6.553   6.644  10.490  1.1984  0.0303  0.2989
    7CHL1    C4  449   6.677   6.642  10.288 -0.2331  0.6457 -0.4068
    7CHL1   H4A  450   6.770   6.652  10.349  0.5494 -1.3039 -1.1940
    7CHL1   H4B  451   6.657   6.535  10.308  3.5454 -0.4799 -1.6665
    7CHL1    C5  452   6.716   6.661  10.143 -0.0458 -0.1870 -0.2341
    7CHL1    C6  453   6.709   6.559  10.056 -0.6943  0.3924 -0.0255
    7CHL1    H6  454   6.702   6.457  10.096  0.0010 -0.6733 -2.4405
    7CHL1    C7  455   6.750   6.571   9.910 -0.7436 -0.9409  0.8336
    7CHL1   H7A  456   6.808   6.486   9.870 -1.0860  0.0083 -1.8627
    7CHL1   H7B  457   6.661   6.577   9.843  0.4702  2.5731 -0.6541
    7CHL1    C8  458   6.840   6.693   9.878  0.3168  0.5120 -0.2359
    7CHL1    H8  459   6.937   6.658   9.917  1.3405  0.0827 -2.9225
    7CHL1   C14  460   6.844   6.724   9.726 -0.0794 -0.4502 -0.5523
    7CHL1   H14  461   6.739   6.753   9.703 -0.7067 -3.0364 -1.3500
    7CHL1   C15  462   6.869   6.615   9.631 -0.0676 -0.4271  0.1290
    7CHL1  H15A  463   6.956   6.552   9.660 -1.5347 -2.4615  0.2975
    7CHL1  H15B  464   6.782   6.552   9.605  0.2402 -0.9293  0.2904
    7CHL1   C16  465   6.901   6.689   9.493 -0.5712 -0.5437  0.0120
    7CHL1  H16A  466   6.998   6.658   9.449 -0.7422  0.9519 -1.5542
    7CHL1  H16B  467   6.822   6.657   9.422 -0.1408 -0.2366 -0.6205
    7CHL1   C17  468   6.910   6.843   9.530  0.3384  0.4012 -0.1934
    7CHL1   H17  469   6.814   6.895   9.510  0.3865 -0.0723 -1.7906
    7CHL1   C13  470   6.935   6.841   9.683  0.8995 -0.0608 -0.5905
    7CHL1   C18  471   7.084   6.806   9.719 -0.1761 -0.2504 -0.1782
    7CHL1  H18A  472   7.111   6.792   9.826  1.0509  0.0019 -0.4276
    7CHL1  H18B  473   7.107   6.707   9.673  1.1397 -0.6569  1.2632
    7CHL1  H18C  474   7.160   6.873   9.673  1.7489 -2.6934 -0.7918
    7CHL1   C12  475   6.886   6.968   9.757  0.9504  0.3445 -0.1311
    7CHL1  H12A  476   6.958   7.053   9.750  1.0464  0.3589  0.8532
    7CHL1  H12B  477   6.791   7.000   9.708  2.1418 -0.3226 -3.0650
    7CHL1   C11  478   6.875   6.946   9.910 -0.3748  0.2229  0.3815
    7CHL1  H11A  479   6.981   6.935   9.942 -0.3015  2.4489  1.0901
    7CHL1  H11B  480   6.841   7.036   9.967  2.6736  1.8493 -0.1445
    7CHL1    C9  481   6.793   6.821   9.946  1.4537  0.0805 -0.0019
    7CHL1    H9  482   6.692   6.840   9.906  2.5380 -0.0330 -3.0904
    7CHL1   C10  483   6.775   6.797  10.103  0.1504 -0.4575  0.4195
    7CHL1   C19  484   6.912   6.824  10.168  0.1265 -0.3912  0.4442
    7CHL1  H19A  485   6.978   6.745  10.126  0.7487 -0.4093  1.4170
    7CHL1  H19B  486   6.949   6.929  10.171  0.1973 -0.2155 -2.8215
    7CHL1  H19C  487   6.914   6.814  10.278 -0.9269  1.5362  0.6825
    7CHL1    C1  488   6.676   6.907  10.154  0.0814 -0.4373 -0.0817
    7CHL1   H1A  489   6.724   7.006  10.139  0.3230  0.3222  4.3571
    7CHL1   H1B  490   6.587   6.899  10.087  0.9448 -0.1739 -1.2842
    7CHL1    C2  491   6.625   6.892  10.300 -0.0757  0.2632 -0.4474
    7CHL1   H2A  492   6.555   6.975  10.323 -0.3186  0.5524 -2.0894
    7CHL1   H2B  493   6.704   6.917  10.374 -1.8291  1.1865  1.2153
    7CHL1   C20  494   7.001   6.926   9.435  0.8109  0.1857 -0.3357
    7CHL1   H20  495   7.104   6.886   9.424  0.6419 -0.5322  0.5359
    7CHL1   C21  496   7.013   7.073   9.481  0.1692  0.5422 -0.7502
    7CHL1  H21A  497   7.080   7.078   9.569 -0.2654 -1.6031 -0.2376
    7CHL1  H21B  498   6.912   7.109   9.509  0.6133  1.1826  0.0917
    7CHL1  H21C  499   7.052   7.132   9.395  3.8751 -0.8979 -0.2537
    7CHL1   C22  500   6.950   6.917   9.285 -0.0263 -0.4619  0.1132
    7CHL1  H22A  501   6.917   6.811   9.284 -0.3007 -0.3840  0.5223
    7CHL1  H22B  502   6.859   6.978   9.267  0.4927  0.0349 -0.9098
    7CHL1   C23  503   7.051   6.957   9.181 -0.3254  0.2538 -0.0479
    7CHL1  H23A  504   7.020   7.043   9.117 -0.6616 -0.9144 -1.5048
    7CHL1  H23B  505   7.142   6.998   9.229  0.1266  1.4942 -1.8764
    7CHL1   C24  506   7.096   6.840   9.086 -0.5032 -0.3795 -1.2572
    7CHL1  H24A  507   7.191   6.877   9.043  0.1057 -3.1814 -2.5311
    7CHL1  H24B  508   7.122   6.752   9.149 -0.2471  0.0752 -0.7150
    7CHL1   C25  509   7.008   6.798   8.969 -0.3463  0.3132  0.5179
    7CHL1   H25  510   6.904   6.832   8.987 -0.8602 -0.7021 -0.4105
    7CHL1   C26  511   7.057   6.870   8.838 -0.1801 -0.0670 -0.1217
    7CHL1  H26A  512   7.067   6.980   8.853 -1.2454 -0.1917  1.9214
    7CHL1  H26B  513   7.159   6.845   8.802 -1.2638 -1.9205 -2.1121
    7CHL1  H26C  514   6.978   6.854   8.762 -0.3506  0.0784  0.0232
    7CHL1   C27  515   7.001   6.641   8.957 -0.6607 -0.6101 -0.0118
    7CHL1  H27A  516   7.095   6.593   8.925  0.0610  0.0145  1.0816
    7CHL1  H27B  517   6.957   6.596   9.049 -2.0656 -1.3459 -1.0221
    7CHL1  H27C  518   6.931   6.596   8.884 -1.3296 -2.0552  1.4704
    8CHL1    C3  519   0.653   6.042  10.268  0.1244 -0.1921  0.6522
    8CHL1    H3  520   0.579   6.116  10.232  0.5737 -0.3651 -0.7138
    8CHL1    O3  521   0.678   6.065  10.404  0.1113  0.2297 -0.1014
    8CHL1   H3'  522   0.619   6.018  10.463 -1.1927  2.0315  0.1063
    8CHL1    C4  523   0.595   5.901  10.231 -0.1312  0.1131  0.0435
    8CHL1   H4A  524   0.668   5.831  10.276 -0.3172 -0.4676 -0.5471
    8CHL1   H4B  525   0.499   5.882  10.283 -0.3923 -2.4069 -1.2236
    8CHL1    C5  526   0.593   5.875  10.080  1.1229 -0.1743  0.1265
    8CHL1    C6  527   0.483   5.827  10.020  0.0565 -1.1295  0.1169
    8CHL1    H6  528   0.398   5.806  10.086 -0.2155 -1.0230 -0.2014
    8CHL1    C7  529   0.477   5.804   9.873 -0.0962 -0.2804 -0.0322
    8CHL1   H7A  530   0.431   5.702   9.868 -0.7433 -0.0352  0.6702
    8CHL1   H7B  531   0.419   5.888   9.829  1.5540  1.1211  0.4048
    8CHL1    C8  532   0.615   5.806   9.801  0.2452  0.5594  0.0101
    8CHL1    H8  533   0.663   5.707   9.816  0.3194  0.8133  1.5697
    8CHL1   C14  534   0.603   5.819   9.645  0.7598  0.1297  0.1726
    8CHL1   H14  535   0.556   5.916   9.617  1.8146  0.6484  0.1439
    8CHL1   C15  536   0.527   5.710   9.565  0.2919 -0.4529  0.2159
    8CHL1  H15A  537   0.564   5.614   9.607  0.6553 -1.0959 -1.4725
    8CHL1  H15B  538   0.420   5.708   9.592  0.2190  0.5618  0.0180
    8CHL1   C16  539   0.561   5.730   9.425 -0.1320 -0.4296  0.4942
    8CHL1  H16A  540   0.592   5.630   9.386 -0.9650 -0.5929  0.2375
    8CHL1  H16B  541   0.487   5.775   9.355  1.3205  1.0508 -0.1606
    8CHL1   C17  542   0.675   5.834   9.427 -0.9897  0.2124 -0.9140
    8CHL1   H17  543   0.623   5.930   9.408 -2.1449  0.3139  2.1242
    8CHL1   C13  544   0.737   5.831   9.572  0.3959 -0.6127  0.4374
    8CHL1   C18  545   0.824   5.707   9.592  0.5331  0.0601 -0.0377
    8CHL1  H18A  546   0.829   5.686   9.701  2.4193  2.7899  0.5174
    8CHL1  H18B  547   0.785   5.618   9.539 -0.8255  1.4904 -1.5481
    8CHL1  H18C  548   0.919   5.740   9.546  0.1809  1.5563  0.2514
    8CHL1   C12  549   0.812   5.951   9.621 -0.0845  0.0130  0.0446
    8CHL1  H12A  550   0.910   5.947   9.569 -0.7947 -0.3638 -1.2854
    8CHL1  H12B  551   0.755   6.042   9.591  0.3127 -0.0743 -0.9886
    8CHL1   C11  552   0.837   5.947   9.778 -0.7240  0.3541  0.3891
    8CHL1  H11A  553   0.914   5.870   9.801  0.1243  1.2769  0.6783
    8CHL1  H11B  554   0.878   6.045   9.810 -0.4583 -0.6249  3.3180
    8CHL1    C9  555   0.698   5.923   9.858  0.3960  0.6159  0.2718
    8CHL1    H9  556   0.626   6.006   9.843  1.2792  1.0586 -1.9263
    8CHL1   C10  557   0.728   5.915  10.008  0.1499  0.4119 -1.4083
    8CHL1   C19  558   0.837   5.807  10.036 -0.4524 -0.0894 -0.0572
    8CHL1  H19A  559   0.813   5.712   9.982 -0.9848 -0.6307  1.1000
    8CHL1  H19B  560   0.940   5.838  10.008  0.8582 -2.4835  1.7360
    8CHL1  H19C  561   0.855   5.784  10.143  2.8993  2.7659  0.1508
    8CHL1    C1  562   0.782   6.052  10.055  0.1062  0.4740  0.0595
    8CHL1   H1A  563   0.884   6.059  10.010  0.0573  0.3516 -0.0735
    8CHL1   H1B  564   0.719   6.137  10.020  1.3323  1.8975  1.1560
    8CHL1    C2  565   0.792   6.071  10.204  0.6759  0.2100  0.0547
    8CHL1   H2A  566   0.830   6.170  10.238  1.1909 -0.5177  1.6749
    8CHL1   H2B  567   0.850   5.991  10.253  1.5494 -1.0095 -2.7472
    8CHL1   C20  568   0.771   5.821   9.306 -0.5258 -0.1206  0.4748
    8CHL1   H20  569   0.844   5.739   9.320  1.6506  1.6051 -0.2319
    8CHL1   C21  570   0.864   5.949   9.298  0.0014 -0.1639 -0.1718
    8CHL1  H21A  571   0.795   6.036   9.302  0.2407 -0.0169  1.0761
    8CHL1  H21B  572   0.909   5.956   9.197 -1.8840 -0.5522 -1.0843
    8CHL1  H21C  573   0.937   5.965   9.380 -0.5863 -1.0501  0.5478
    8CHL1   C22  574   0.700   5.795   9.172 -0.5079 -0.2199 -0.1185
    8CHL1  H22A  575   0.639   5.703   9.184  1.2488 -1.4163  0.1278
    8CHL1  H22B  576   0.641   5.886   9.151  0.5459  0.7860  1.0552
    8CHL1   C23  577   0.798   5.768   9.054 -0.2507  0.0003 -0.0946
    8CHL1  H23A  578   0.866   5.854   9.031  0.3399 -0.0290  1.4237
    8CHL1  H23B  579   0.867   5.682   9.069 -0.8984 -0.5091  0.0116
    8CHL1   C24  580   0.712   5.751   8.928  0.5893 -0.2711  0.4108
    8CHL1  H24A  581   0.687   5.644   8.912 -0.8365  0.2184 -0.9022
    8CHL1  H24B  582   0.617   5.807   8.937  1.7051  1.8335 -0.1876
    8CHL1   C25  583   0.771   5.803   8.794 -0.0330 -0.2005  0.2222
    8CHL1   H25  584   0.779   5.913   8.809 -1.6505 -0.1994  1.4471
    8CHL1   C26  585   0.912   5.742   8.768  0.2137 -0.1675 -0.6640
    8CHL1  H26A  586   0.979   5.756   8.856 -0.2383  0.2662 -0.3812
    8CHL1  H26B  587   0.903   5.634   8.745 -0.5432 -0.3177  0.2862
    8CHL1  H26C  588   0.951   5.805   8.685 -0.0461 -0.3831 -0.9540
    8CHL1   C27  589   0.679   5.779   8.668 -0.3723 -0.2085  1.2757
    8CHL1  H27A  590   0.725   5.842   8.589 -1.5042  0.3463  1.0409
    8CHL1  H27B  591   0.675   5.672   8.640  0.1875  0.2071 -0.5034
    8CHL1  H27C  592   0.578   5.820   8.689 -1.3569 -1.7652 -0.2007
    9CHL1    C3  593   3.389   2.307  10.139  0.6441  0.4143  0.1250
    9CHL1    H3  594   3.467   2.384  10.118 -0.3340  2.3619  2.9986
    9CHL1    O3  595   3.381   2.289  10.276  0.4387 -0.5443 -0.3732
    9CHL1   H3'  596   3.314   2.221  10.286  0.2439 -0.7807 -2.6980
    9CHL1    C4  597   3.254   2.350  10.087 -0.4753  0.8887  0.1752
    9CHL1   H4A  598   3.178   2.280  10.129 -0.4868  0.7857 -0.0199
    9CHL1   H4B  599   3.221   2.446  10.132 -0.3437 -0.0942  2.5380
    9CHL1    C5  600   3.253   2.364   9.938  0.6295  0.2011  0.6117
    9CHL1    C6  601   3.236   2.484   9.879 -0.0379  0.3941  0.1547
    9CHL1    H6  602   3.217   2.575   9.938  2.5984  0.3143  1.2416
    9CHL1    C7  603   3.233   2.506   9.731 -0.3378 -0.4530 -0.4970
    9CHL1   H7A  604   3.152   2.577   9.704 -0.1531 -1.0484 -2.8438
    9CHL1   H7B  605   3.333   2.541   9.697 -2.2008  4.2403 -1.9486
    9CHL1    C8  606   3.211   2.376   9.648  0.4130  0.6958 -0.2288
    9CHL1    H8  607   3.106   2.350   9.677  0.3537  0.1478 -0.9082
    9CHL1   C14  608   3.234   2.402   9.504  0.1735  0.0229  0.2436
    9CHL1   H14  609   3.342   2.427   9.500  0.8963 -2.7944  0.2014
    9CHL1   C15  610   3.154   2.522   9.435  0.1759 -0.4567 -0.3604
    9CHL1  H15A  611   3.052   2.529   9.478  0.1339  0.6050 -0.5951
    9CHL1  H15B  612   3.218   2.610   9.456 -0.4384  0.2480 -1.3384
    9CHL1   C16  613   3.164   2.485   9.290  0.0211 -0.1244  0.1664
    9CHL1  H16A  614   3.058   2.472   9.260  0.2671  0.9202 -1.2666
    9CHL1  H16B  615   3.210   2.560   9.222 -0.3536 -0.5551 -0.5751
    9CHL1   C17  616   3.226   2.344   9.279 -0.1991 -0.0323  0.4676
    9CHL1   H17  617   3.333   2.370   9.267 -0.8183  1.6970 -2.1146
    9CHL1   C13  618   3.203   2.284   9.411  0.0862 -0.1515  0.1562
    9CHL1   C18  619   3.051   2.246   9.426 -0.6439  0.1285 -0.1114
    9CHL1  H18A  620   3.030   2.141   9.394  1.0734  0.2914 -1.9783
    9CHL1  H18B  621   3.012   2.252   9.530 -2.0727 -0.6375 -0.5795
    9CHL1  H18C  622   2.983   2.300   9.357  0.2890  0.4474 -0.8071
    9CHL1   C12  623   3.301   2.169   9.456  0.3368 -0.0899 -0.2420
    9CHL1  H12A  624   3.278   2.073   9.405 -0.9870  0.2315 -0.2982
    9CHL1  H12B  625   3.404   2.201   9.429  0.4543  0.5413  0.8995
    9CHL1   C11  626   3.305   2.139   9.609  0.1557  0.0158 -0.5525
    9CHL1  H11A  627   3.213   2.078   9.620 -1.7044  2.3886 -1.8296
    9CHL1  H11B  628   3.391   2.069   9.610  0.0132 -0.1715  0.9530
    9CHL1    C9  629   3.308   2.265   9.696  0.1896  0.5741 -0.5207
    9CHL1    H9  630   3.411   2.304   9.682 -0.4697  1.9831 -1.7643
    9CHL1   C10  631   3.294   2.235   9.853  0.1338  1.0463 -0.4410
    9CHL1   C19  632   3.180   2.136   9.876 -0.7753  0.0590 -0.2720
    9CHL1  H19A  633   3.199   2.037   9.828 -1.2559 -0.4382  0.5364
    9CHL1  H19B  634   3.163   2.101   9.980  1.1115  0.4598  0.2066
    9CHL1  H19C  635   3.083   2.173   9.837  0.5241  3.0956 -0.8360
    9CHL1    C1  636   3.434   2.189   9.913 -0.1449 -0.1043  0.4149
    9CHL1   H1A  637   3.457   2.088   9.875 -0.1433 -0.0136  0.1738
    9CHL1   H1B  638   3.502   2.269   9.876  0.3469  0.5782  2.6342
    9CHL1    C2  639   3.437   2.181  10.069 -0.1785  0.2506 -0.6830
    9CHL1   H2A  640   3.540   2.152  10.101 -0.8206 -0.3318  0.9266
    9CHL1   H2B  641   3.367   2.099  10.096  2.2577 -1.8023 -0.2379
    9CHL1   C20  642   3.192   2.270   9.149 -0.1674  0.5442  0.0492
    9CHL1   H20  643   3.096   2.221   9.171  0.4166  0.0137  1.5329
    9CHL1   C21  644   3.304   2.162   9.128 -0.1430 -0.4018  1.1310
    9CHL1  H21A  645   3.331   2.094   9.212  3.5017 -0.3875  0.1483
    9CHL1  H21B  646   3.394   2.224   9.111 -2.3145  2.4227 -1.0469
    9CHL1  H21C  647   3.276   2.098   9.041 -0.4656 -0.8075  1.5279
    9CHL1   C22  648   3.181   2.366   9.026 -0.6454 -0.3843  0.2796
    9CHL1  H22A  649   3.097   2.437   9.043  0.5047  0.7876  1.1940
    9CHL1  H22B  650   3.276   2.421   9.018  0.4226 -2.3400 -1.6387
    9CHL1   C23  651   3.148   2.285   8.896  0.5078 -0.0177  0.3041
    9CHL1  H23A  652   3.223   2.207   8.874  0.9655  0.6179 -0.4624
    9CHL1  H23B  653   3.060   2.222   8.921  0.1391  0.6378  0.6899
    9CHL1   C24  654   3.103   2.384   8.784 -0.4690 -0.1299 -0.0479
    9CHL1  H24A  655   3.001   2.414   8.817 -0.5584 -0.9083  0.4010
    9CHL1  H24B  656   3.175   2.469   8.789  0.6485 -1.0634  0.2166
    9CHL1   C25  657   3.108   2.326   8.642 -0.3927 -0.3773 -0.0987
    9CHL1   H25  658   3.208   2.296   8.604  0.0304  2.4016 -1.4724
    9CHL1   C26  659   3.024   2.205   8.616  0.5994  0.9201  0.8388
    9CHL1  H26A  660   3.028   2.186   8.506  3.4342  0.5641  0.9378
    9CHL1  H26B  661   3.074   2.120   8.668  0.5258  0.5823  0.3675
    9CHL1  H26C  662   2.921   2.208   8.657 -1.1078 -0.0053 -2.9455
    9CHL1   C27  663   3.054   2.433   8.550  0.0177 -0.3191  0.0942
    9CHL1  H27A  664   3.104   2.532   8.565  3.0085 -1.4818 -1.4832
    9CHL1  H27B  665   3.062   2.399   8.445  0.1771  0.7976 -0.2682
    9CHL1  H27C  666   2.947   2.450   8.577 -0.3810 -2.0964 -0.2622
   10CHL1    C3  667   2.607   3.681  10.000  0.4492  0.5532  0.0558
   10CHL1    H3  668   2.606   3.792   9.997 -2.3786  0.6576  1.4914
   10CHL1    O3  669   2.689   3.650  10.116  0.3003  0.2339 -0.2867
   10CHL1   H3'  670   2.656   3.562  10.136 -0.8951  0.9822  1.1963
   10CHL1    C4  671   2.465   3.621  10.033 -0.6689 -0.1678 -0.2459
   10CHL1   H4A  672   2.488   3.515  10.055 -0.4786  0.0614  0.7019
   10CHL1   H4B  673   2.437   3.669  10.129  0.7898 -0.5815  0.4037
   10CHL1    C5  674   2.362   3.637   9.916 -0.4350  0.0276 -0.3050
   10CHL1    C6  675   2.237   3.689   9.934  0.2858 -0.0005  0.2011
   10CHL1    H6  676   2.200   3.716  10.034 -0.1800  0.9605 -0.2196
   10CHL1    C7  677   2.135   3.690   9.825  0.8399 -0.8241  0.1165
   10CHL1   H7A  678   2.032   3.679   9.864  0.0109 -0.6770 -1.9417
   10CHL1   H7B  679   2.146   3.790   9.778 -1.7338 -0.9860 -0.9813
   10CHL1    C8  680   2.168   3.605   9.700  0.1300 -0.2252  0.0639
   10CHL1    H8  681   2.144   3.504   9.739 -1.6320  0.4963  0.9916
   10CHL1   C14  682   2.074   3.631   9.580  0.1493  0.1765 -1.2623
   10CHL1   H14  683   2.088   3.737   9.548  0.5937  0.7919  0.8080
   10CHL1   C15  684   1.923   3.601   9.606 -0.0046  0.0413  0.4673
   10CHL1  H15A  685   1.913   3.507   9.664  0.1547 -1.4120 -1.7543
   10CHL1  H15B  686   1.882   3.687   9.664  0.1097 -0.1115  0.7780
   10CHL1   C16  687   1.872   3.586   9.461  0.1007 -0.1863  0.1391
   10CHL1  H16A  688   1.817   3.490   9.449 -1.7259  0.8437 -0.1409
   10CHL1  H16B  689   1.799   3.669   9.445  0.1582 -0.6027 -2.9683
   10CHL1   C17  690   1.995   3.589   9.364 -0.6500  0.3495 -0.1889
   10CHL1   H17  691   2.013   3.697   9.346 -2.4114  0.5196 -1.2238
   10CHL1   C13  692   2.114   3.545   9.453  0.3442  0.4047 -0.3700
   10CHL1   C18  693   2.102   3.393   9.470  0.6022 -0.0132  0.4219
   10CHL1  H18A  694   2.154   3.353   9.560  0.6436  1.2070  0.9574
   10CHL1  H18B  695   1.998   3.355   9.461  0.0446  1.0188  2.0739
   10CHL1  H18C  696   2.176   3.351   9.397  0.9782  3.7880 -1.6509
   10CHL1   C12  697   2.255   3.582   9.413  0.0732 -0.0134  0.0421
   10CHL1  H12A  698   2.276   3.539   9.313 -3.1011 -0.6786 -0.4570
   10CHL1  H12B  699   2.258   3.691   9.394  0.4248 -0.0240  0.0196
   10CHL1   C11  700   2.355   3.549   9.526  0.3474 -0.7684 -0.7634
   10CHL1  H11A  701   2.371   3.440   9.532  1.8481 -0.5228  0.4755
   10CHL1  H11B  702   2.449   3.599   9.492 -1.2566  2.7795 -0.4006
   10CHL1    C9  703   2.317   3.617   9.661  0.5084  0.3930  0.0647
   10CHL1    H9  704   2.329   3.725   9.640 -2.5155  1.1116  1.4566
   10CHL1   C10  705   2.413   3.588   9.780  0.4520  0.8829 -0.1054
   10CHL1   C19  706   2.420   3.432   9.789 -0.5638 -0.2919  0.5135
   10CHL1  H19A  707   2.316   3.392   9.799 -1.6675  2.6203  2.1686
   10CHL1  H19B  708   2.479   3.390   9.705 -1.2235  0.7711 -0.5119
   10CHL1  H19C  709   2.475   3.402   9.881  0.7246  0.6027  0.0502
   10CHL1    C1  710   2.554   3.641   9.746  0.5531  0.1249 -0.7458
   10CHL1   H1A  711   2.591   3.583   9.659  0.0879 -3.6877  1.3643
   10CHL1   H1B  712   2.547   3.751   9.734 -1.1421  0.2334  0.8157
   10CHL1    C2  713   2.658   3.626   9.866 -0.2395 -0.1117  0.7042
   10CHL1   H2A  714   2.757   3.667   9.836 -0.4853 -0.8218 -1.2627
   10CHL1   H2B  715   2.676   3.517   9.872 -1.4302 -0.5541 -2.0369
   10CHL1   C20  716   1.979   3.533   9.226 -0.4150 -0.6885  0.7055
   10CHL1   H20  717   1.974   3.422   9.227 -3.1582 -0.6855 -0.9890
   10CHL1   C21  718   2.078   3.591   9.130 -0.0737  0.7105 -0.2418
   10CHL1  H21A  719   2.118   3.690   9.158  1.9128 -0.2372  0.4855
   10CHL1  H21B  720   2.030   3.590   9.030 -0.9396 -0.5887  0.1544
   10CHL1  H21C  721   2.167   3.525   9.130  1.1006  2.2066 -1.9332
   10CHL1   C22  722   1.833   3.565   9.166  0.3666 -0.0874 -0.5555
   10CHL1  H22A  723   1.831   3.508   9.071 -0.9270  2.5563 -2.2452
   10CHL1  H22B  724   1.751   3.528   9.232  1.2628  0.7018  1.0444
   10CHL1   C23  725   1.808   3.713   9.128 -0.0832  0.6180  0.4919
   10CHL1  H23A  726   1.838   3.782   9.209  0.1530  1.2790 -0.1415
   10CHL1  H23B  727   1.873   3.737   9.041  0.0304  2.7815  1.1098
   10CHL1   C24  728   1.662   3.746   9.098 -0.4350 -0.0691 -0.0817
   10CHL1  H24A  729   1.606   3.766   9.192  3.4145 -1.1139  2.6988
   10CHL1  H24B  730   1.655   3.837   9.035  0.0395 -1.4420 -2.2040
   10CHL1   C25  731   1.592   3.640   9.016  0.3734 -0.0836  0.1601
   10CHL1   H25  732   1.612   3.543   9.066  1.0683 -0.6497 -1.1677
   10CHL1   C26  733   1.441   3.660   9.028  0.1747  0.6319  1.2223
   10CHL1  H26A  734   1.408   3.671   9.133 -0.6343 -1.5993  1.2574
   10CHL1  H26B  735   1.417   3.751   8.968  0.9893  0.2917  0.3507
   10CHL1  H26C  736   1.383   3.572   8.993  1.7993  0.1755 -0.5172
   10CHL1   C27  737   1.641   3.631   8.870  0.1429  0.3152 -0.0240
   10CHL1  H27A  738   1.600   3.540   8.821  0.4510 -0.4445  1.0937
   10CHL1  H27B  739   1.619   3.723   8.811 -0.4564  0.0227 -0.2635
   10CHL1  H27C  740   1.750   3.611   8.873 -0.0735 -0.8944  0.0544
   11CHL1    C3  741   3.864   3.115   9.811 -0.6287  0.2190 -0.1267
   11CHL1    H3  742   3.839   3.008   9.829 -0.2192  0.4742  2.2841
   11CHL1    O3  743   3.906   3.156   9.942  0.1660 -0.1202 -0.1188
   11CHL1   H3'  744   3.874   3.244   9.965  0.7012 -0.0915  0.5598
   11CHL1    C4  745   3.992   3.132   9.730 -0.4258 -0.7586  0.0432
   11CHL1   H4A  746   4.031   3.236   9.724 -1.6637 -0.3767 -3.2120
   11CHL1   H4B  747   4.063   3.060   9.776 -0.1583 -0.6447 -0.1859
   11CHL1    C5  748   3.970   3.099   9.581 -0.0721  0.1124 -0.5033
   11CHL1    C6  749   4.053   3.012   9.511 -0.7168  0.4881  0.4471
   11CHL1    H6  750   4.149   2.978   9.553 -0.2894  2.2733  1.0081
   11CHL1    C7  751   4.040   2.968   9.369 -0.5012 -0.0097 -0.7097
   11CHL1   H7A  752   4.140   2.978   9.321 -0.3638 -0.4640 -0.5188
   11CHL1   H7B  753   4.004   2.863   9.360 -1.4393  0.3294 -1.0036
   11CHL1    C8  754   3.941   3.059   9.295  0.3404  0.5376  0.0254
   11CHL1    H8  755   3.996   3.150   9.265  3.5211 -1.4486 -0.7337
   11CHL1   C14  756   3.892   2.990   9.166  0.2800 -0.4020  0.0725
   11CHL1   H14  757   3.821   2.914   9.205  1.0867 -0.1996  2.0056
   11CHL1   C15  758   3.992   2.915   9.081 -0.1832 -0.0287  0.2970
   11CHL1  H15A  759   4.081   2.972   9.047  0.3842 -2.5557 -2.9299
   11CHL1  H15B  760   4.044   2.832   9.135  0.9045 -0.2210 -0.9830
   11CHL1   C16  761   3.913   2.884   8.957  0.0253  0.6970 -0.6773
   11CHL1  H16A  762   3.987   2.900   8.876 -0.0001 -1.4844 -1.1899
   11CHL1  H16B  763   3.889   2.776   8.950 -0.6138  0.8735 -1.2748
   11CHL1   C17  764   3.790   2.979   8.961  0.4991  0.4695  0.3233
   11CHL1   H17  765   3.708   2.917   9.001  1.6537 -1.4378 -0.1289
   11CHL1   C13  766   3.814   3.078   9.078 -0.6972  0.7019  0.4106
   11CHL1   C18  767   3.897   3.204   9.030  0.4497  0.1604 -0.1874
   11CHL1  H18A  768   3.833   3.264   8.961 -0.3477  1.8829  1.9383
   11CHL1  H18B  769   3.926   3.276   9.108  1.4248  1.9855 -2.1313
   11CHL1  H18C  770   3.991   3.171   8.981 -0.6222 -2.5788 -0.5865
   11CHL1   C12  771   3.690   3.119   9.155 -0.4082  0.1988  0.2924
   11CHL1  H12A  772   3.654   3.195   9.081 -0.2629 -0.7004 -0.7250
   11CHL1  H12B  773   3.612   3.044   9.180 -2.9824  2.9578  1.1850
   11CHL1   C11  774   3.735   3.183   9.287  0.7034  0.0262  0.7004
   11CHL1  H11A  775   3.791   3.278   9.270  3.0139 -1.3323  0.1400
   11CHL1  H11B  776   3.639   3.205   9.338  0.6521 -0.6739  0.9071
   11CHL1    C9  777   3.823   3.098   9.382  0.2006  0.1877  0.1374
   11CHL1    H9  778   3.761   3.009   9.402  1.2691 -0.8508 -1.0060
   11CHL1   C10  779   3.851   3.170   9.522 -0.2062  1.1935 -0.1329
   11CHL1   C19  780   3.886   3.317   9.501 -0.9091  0.2273 -0.0039
   11CHL1  H19A  781   3.944   3.336   9.408 -0.6556  2.4506  0.5501
   11CHL1  H19B  782   3.796   3.377   9.477 -0.3511  1.4828  0.9125
   11CHL1  H19C  783   3.934   3.369   9.587  1.3696  0.7576 -1.4848
   11CHL1    C1  784   3.730   3.149   9.616  0.3529 -0.8687 -0.4606
   11CHL1   H1A  785   3.649   3.212   9.572  1.3047  0.1219 -0.8350
   11CHL1   H1B  786   3.685   3.048   9.620 -1.5699 -0.0262  0.5807
   11CHL1    C2  787   3.748   3.196   9.759  0.6931  0.0413  0.3107
   11CHL1   H2A  788   3.660   3.165   9.820 -0.8487  0.5448 -1.5937
   11CHL1   H2B  789   3.775   3.304   9.761  0.6923  0.0655  3.1710
   11CHL1   C20  790   3.756   3.024   8.816  0.5627  0.9724  0.4786
   11CHL1   H20  791   3.832   3.092   8.773  1.1588 -0.3828 -0.6868
   11CHL1   C21  792   3.623   3.101   8.830 -0.9566  0.7111 -0.0646
   11CHL1  H21A  793   3.555   3.040   8.893  0.0986 -0.0574  0.3644
   11CHL1  H21B  794   3.577   3.122   8.731  0.2617  0.6305 -0.6732
   11CHL1  H21C  795   3.642   3.196   8.884 -2.1691 -0.0122  1.7134
   11CHL1   C22  796   3.731   2.905   8.713  0.1036  0.0761  0.2051
   11CHL1  H22A  797   3.803   2.822   8.727  0.0332 -0.1676 -0.8011
   11CHL1  H22B  798   3.627   2.874   8.736  0.1688 -0.9134 -0.7293
   11CHL1   C23  799   3.742   2.935   8.567  0.2358  0.0981  0.2025
   11CHL1  H23A  800   3.672   2.877   8.504 -0.8129  1.9306 -0.3910
   11CHL1  H23B  801   3.725   3.044   8.551 -0.9141  0.0302  0.8797
   11CHL1   C24  802   3.887   2.911   8.521 -0.3654 -0.3292  0.2395
   11CHL1  H24A  803   3.955   2.974   8.581  1.3196  1.2266 -3.0090
   11CHL1  H24B  804   3.904   2.802   8.523 -0.2984 -0.5623 -3.8933
   11CHL1   C25  805   3.927   2.960   8.376  0.1816 -0.5254  0.6175
   11CHL1   H25  806   3.896   3.067   8.373  2.8246  0.3548 -2.7302
   11CHL1   C26  807   4.077   2.946   8.350  0.5044  0.0144 -0.5596
   11CHL1  H26A  808   4.106   2.841   8.373  0.1994  0.2203  0.8336
   11CHL1  H26B  809   4.092   2.965   8.242 -1.4191 -0.9404 -1.0319
   11CHL1  H26C  810   4.140   3.018   8.407 -0.6094  0.3708  0.2442
   11CHL1   C27  811   3.845   2.884   8.270 -0.5525 -0.2148 -0.3405
   11CHL1  H27A  812   3.740   2.883   8.306 -0.3517 -0.5851  0.2449
   11CHL1  H27B  813   3.864   2.932   8.172 -0.7817  0.8829  0.1413
   11CHL1  H27C  814   3.888   2.782   8.274  1.5992  0.6057 -1.0805
   12CHL1    C3  815   0.665   6.566  10.290  0.5606 -0.0294  0.2533
   12CHL1    H3  816   0.770   6.544  10.262 -0.3347 -2.4120 -1.7122
   12CHL1    O3  817   0.639   6.590  10.429  0.7214  0.5523 -0.2224
   12CHL1   H3'  818   0.716   6.555  10.473  2.0898  0.8999 -2.2265
   12CHL1    C4  819   0.616   6.676  10.192  0.2148  0.5875 -0.3819
   12CHL1   H4A  820   0.510   6.691  10.222  0.6298  0.2703  1.3432
   12CHL1   H4B  821   0.677   6.766  10.216  0.6364 -0.2282  1.8629
   12CHL1    C5  822   0.632   6.646  10.044  0.2411  0.9040  0.1371
   12CHL1    C6  823   0.700   6.722   9.960 -1.1622  0.4230 -0.1361
   12CHL1    H6  824   0.727   6.817  10.008 -3.7160  0.9004  0.5135
   12CHL1    C7  825   0.717   6.695   9.814 -0.0084  0.0305  0.1689
   12CHL1   H7A  826   0.696   6.788   9.757 -1.6789 -0.7990 -0.6447
   12CHL1   H7B  827   0.824   6.678   9.789  0.7532  2.0741  1.6889
   12CHL1    C8  828   0.616   6.588   9.760  0.1105  0.2225  0.4298
   12CHL1    H8  829   0.518   6.640   9.762  1.0901  2.3150 -1.6226
   12CHL1   C14  830   0.651   6.550   9.619 -0.0473 -0.5225 -0.6714
   12CHL1   H14  831   0.752   6.511   9.640 -0.3570 -1.6352 -1.1745
   12CHL1   C15  832   0.671   6.660   9.515 -0.0390  0.0551 -0.6455
   12CHL1  H15A  833   0.583   6.726   9.517  1.5906  2.3421  1.3142
   12CHL1  H15B  834   0.757   6.728   9.534  1.0344 -1.5813  0.7881
   12CHL1   C16  835   0.674   6.573   9.390 -0.1350  0.5457  0.5571
   12CHL1  H16A  836   0.622   6.624   9.305  0.5752  1.0587  0.4229
   12CHL1  H16B  837   0.777   6.581   9.349 -0.2139  3.3583  0.7246
   12CHL1   C17  838   0.637   6.425   9.420  0.6217 -0.2339 -0.5219
   12CHL1   H17  839   0.728   6.363   9.436  2.4735  1.5515 -3.2061
   12CHL1   C13  840   0.570   6.443   9.557  0.0209 -1.0062  0.0353
   12CHL1   C18  841   0.425   6.511   9.545 -0.1258  0.2847  0.0137
   12CHL1  H18A  842   0.434   6.591   9.470  4.0508 -0.5716 -0.6891
   12CHL1  H18B  843   0.360   6.433   9.500  1.8158 -1.1140 -0.5453
   12CHL1  H18C  844   0.373   6.547   9.636  1.4897  0.4753  0.9165
   12CHL1   C12  845   0.581   6.314   9.645 -0.3407 -0.5033 -0.3116
   12CHL1  H12A  846   0.521   6.234   9.598 -1.9843 -0.9347  2.3036
   12CHL1  H12B  847   0.686   6.277   9.646 -0.9967 -2.4696  0.7084
   12CHL1   C11  848   0.549   6.334   9.795  0.0290  0.3792  0.9112
   12CHL1  H11A  849   0.440   6.354   9.805  0.0047  0.3604  0.6748
   12CHL1  H11B  850   0.569   6.238   9.847 -0.3652  1.0146  2.2890
   12CHL1    C9  851   0.625   6.457   9.853 -0.8922 -0.3646 -0.3164
   12CHL1    H9  852   0.733   6.435   9.858 -1.0390 -1.0743 -0.2582
   12CHL1   C10  853   0.579   6.503  10.003 -0.2308  0.2025  0.5243
   12CHL1   C19  854   0.427   6.512  10.020 -0.2160 -0.4233 -0.5862
   12CHL1  H19A  855   0.382   6.411  10.007 -1.4631  0.2488 -1.7569
   12CHL1  H19B  856   0.401   6.552  10.121  2.9975 -0.2237  0.2771
   12CHL1  H19C  857   0.374   6.579   9.949 -1.3533 -1.3518 -0.6408
   12CHL1    C1  858   0.641   6.399  10.106 -0.7434  0.1347  0.1130
   12CHL1   H1A  859   0.605   6.297  10.083  0.9815 -0.0158 -2.3274
   12CHL1   H1B  860   0.750   6.409  10.087 -0.9104 -0.1204 -1.0947
   12CHL1    C2  861   0.604   6.429  10.254 -0.5641 -0.2118 -0.2904
   12CHL1   H2A  862   0.641   6.343  10.313  1.3091  0.4131 -0.4590
   12CHL1   H2B  863   0.493   6.435  10.256 -0.5658 -0.3637  0.1132
   12CHL1   C20  864   0.555   6.357   9.309  0.4019  1.0651 -0.3902
   12CHL1   H20  865   0.454   6.403   9.298 -0.8676 -1.1964  0.9215
   12CHL1   C21  866   0.526   6.219   9.347  0.7166 -0.5275 -0.5896
   12CHL1  H21A  867   0.493   6.158   9.260  0.4436 -0.6545 -0.3991
   12CHL1  H21B  868   0.444   6.221   9.423  2.2443  1.5391  1.1448
   12CHL1  H21C  869   0.617   6.176   9.394  0.9319  2.2191  1.7805
   12CHL1   C22  870   0.625   6.359   9.171 -0.1246  0.6356 -0.7926
   12CHL1  H22A  871   0.649   6.466   9.154 -0.1009  0.9775  1.1429
   12CHL1  H22B  872   0.716   6.300   9.195 -0.8009  0.4446  1.5475
   12CHL1   C23  873   0.546   6.309   9.046 -0.0979 -0.0158  0.1451
   12CHL1  H23A  874   0.542   6.198   9.052 -0.6362 -0.0279 -0.3765
   12CHL1  H23B  875   0.441   6.343   9.034 -0.1742 -0.5021 -0.6756
   12CHL1   C24  876   0.633   6.327   8.922  0.8088 -0.5282 -0.0470
   12CHL1  H24A  877   0.702   6.414   8.929  2.1036 -1.2945 -2.1690
   12CHL1  H24B  878   0.705   6.242   8.927 -0.7172 -2.0246 -1.8307
   12CHL1   C25  879   0.554   6.312   8.780 -0.5544  0.6920 -0.2223
   12CHL1   H25  880   0.466   6.244   8.785  0.0785 -0.0744  0.6816
   12CHL1   C26  881   0.486   6.446   8.748 -0.1556  0.7642 -0.4496
   12CHL1  H26A  882   0.425   6.427   8.657 -0.8121  0.7100 -0.0073
   12CHL1  H26B  883   0.414   6.468   8.830 -0.4069  1.3864 -0.8330
   12CHL1  H26C  884   0.569   6.514   8.719  0.9203 -0.6224 -0.7320
   12CHL1   C27  885   0.641   6.263   8.663  0.0356  0.4153  0.1872
   12CHL1  H27A  886   0.679   6.160   8.682 -0.6137 -0.5063 -2.9887
   12CHL1  H27B  887   0.578   6.262   8.572  0.4471 -2.1714 -0.1333
   12CHL1  H27C  888   0.722   6.339   8.656 -0.1373  0.9655  2.8652
   13CHL1    C3  889   0.026   2.307   9.812 -0.2150  0.1801 -0.4920
   13CHL1    H3  890   0.133   2.326   9.791 -0.3340  1.2475 -0.1849
   13CHL1    O3  891  -0.003   2.307   9.951  0.3661 -0.6567 -0.1126
   13CHL1   H3'  892  -0.093   2.276   9.964 -0.3084 -0.7591 -4.0585
   13CHL1    C4  893  -0.038   2.429   9.751  0.1821  0.2169  0.0925
   13CHL1   H4A  894  -0.148   2.437   9.765 -0.6618 -1.2048 -4.0420
   13CHL1   H4B  895   0.003   2.522   9.794 -0.1665  0.6451 -0.4794
   13CHL1    C5  896  -0.022   2.435   9.602 -0.3810  0.1377 -0.1887
   13CHL1    C6  897   0.037   2.540   9.539 -0.3516  0.2365  0.8420
   13CHL1    H6  898   0.059   2.633   9.593  1.0781  1.8744 -2.2696
   13CHL1    C7  899   0.053   2.558   9.391 -0.7370  0.3626 -0.2826
   13CHL1   H7A  900   0.017   2.658   9.361 -1.2143  0.5344  0.8088
   13CHL1   H7B  901   0.161   2.559   9.365 -0.8254  0.3389 -0.6581
   13CHL1    C8  902  -0.031   2.454   9.312 -0.2815  0.3092 -0.4544
   13CHL1    H8  903  -0.134   2.494   9.319  0.3849  2.1579 -0.5682
   13CHL1   C14  904   0.011   2.452   9.169 -0.6816  0.3422  0.1656
   13CHL1   H14  905   0.115   2.414   9.179 -0.4078  0.6080 -1.3891
   13CHL1   C15  906   0.027   2.587   9.103  0.1077 -0.4652  0.6934
   13CHL1  H15A  907  -0.058   2.649   9.137 -1.4710 -1.5365 -1.1420
   13CHL1  H15B  908   0.125   2.635   9.126 -0.4149  0.4436  1.0867
   13CHL1   C16  909   0.025   2.556   8.952 -0.3904 -0.0881 -0.4165
   13CHL1  H16A  910  -0.053   2.610   8.894 -0.6702 -1.9667 -1.8939
   13CHL1  H16B  911   0.122   2.571   8.901 -0.0092  0.5345  0.4723
   13CHL1   C17  912  -0.005   2.405   8.943 -0.3059  0.2802  0.2612
   13CHL1   H17  913   0.087   2.345   8.935 -0.0796  0.8515 -1.8817
   13CHL1   C13  914  -0.070   2.366   9.079 -0.0218  0.0124  0.0350
   13CHL1   C18  915  -0.219   2.417   9.075 -0.0801  0.7250 -0.1194
   13CHL1  H18A  916  -0.269   2.377   9.165  1.9800 -1.5097  0.1443
   13CHL1  H18B  917  -0.222   2.527   9.062 -2.4826  0.6015 -1.1579
   13CHL1  H18C  918  -0.258   2.369   8.983  1.0957 -0.2895 -0.1201
   13CHL1   C12  919  -0.067   2.221   9.131 -0.6197  0.1326 -0.2185
   13CHL1  H12A  920  -0.133   2.146   9.082 -0.9529  1.1539 -1.3863
   13CHL1  H12B  921   0.038   2.183   9.124 -1.3649 -2.2568  0.5767
   13CHL1   C11  922  -0.093   2.205   9.282  0.6250  0.0928  0.8293
   13CHL1  H11A  923  -0.202   2.206   9.302  0.2056  2.0387 -1.1567
   13CHL1  H11B  924  -0.051   2.105   9.307  1.0076 -0.5797 -2.1131
   13CHL1    C9  925  -0.020   2.313   9.369  0.6773  0.0006  0.5317
   13CHL1    H9  926   0.088   2.288   9.360 -0.1268 -3.9854 -0.0628
   13CHL1   C10  927  -0.070   2.312   9.519 -0.0474  0.8811 -0.8345
   13CHL1   C19  928  -0.225   2.306   9.528  0.5605 -0.4449 -0.2221
   13CHL1  H19A  929  -0.273   2.385   9.466  0.6748 -0.3932 -0.2456
   13CHL1  H19B  930  -0.268   2.213   9.485 -1.0221  0.0979  0.1226
   13CHL1  H19C  931  -0.257   2.315   9.634  2.8155  0.3247  0.4536
   13CHL1    C1  932  -0.006   2.183   9.588  0.0937  0.0693 -0.3495
   13CHL1   H1A  933  -0.057   2.096   9.543  0.0492 -0.0234 -0.1203
   13CHL1   H1B  934   0.104   2.179   9.572 -0.2947  0.2634 -3.8646
   13CHL1    C2  935  -0.020   2.177   9.743 -0.0343 -0.8356  0.1326
   13CHL1   H2A  936   0.036   2.084   9.766  0.2435 -1.3181 -2.2186
   13CHL1   H2B  937  -0.128   2.157   9.764 -0.8219  2.3556 -0.4724
   13CHL1   C20  938  -0.079   2.377   8.810  0.5175  0.2503  0.4301
   13CHL1   H20  939  -0.177   2.430   8.806  0.7832  0.6651 -1.3238
   13CHL1   C21  940  -0.114   2.226   8.804 -0.1361 -0.1548  0.1751
   13CHL1  H21A  941  -0.178   2.205   8.715 -1.3607  0.7991  0.7998
   13CHL1  H21B  942  -0.185   2.187   8.880 -1.6198 -1.0469 -1.5684
   13CHL1  H21C  943  -0.023   2.163   8.812  0.4605  0.9234  3.2641
   13CHL1   C22  944  -0.010   2.402   8.673  0.2721  0.3978 -0.4028
   13CHL1  H22A  945   0.093   2.362   8.679 -0.0401 -0.4990 -0.9181
   13CHL1  H22B  946  -0.063   2.348   8.592  0.0622 -1.1079  0.6899
   13CHL1   C23  947  -0.017   2.550   8.629  0.4252  0.8333 -0.5714
   13CHL1  H23A  948  -0.126   2.568   8.645  0.6635  3.0509 -1.1046
   13CHL1  H23B  949   0.040   2.618   8.696 -0.3472  0.0781  0.9002
   13CHL1   C24  950   0.017   2.567   8.482  0.0786  0.2035 -0.2685
   13CHL1  H24A  951   0.125   2.553   8.457 -0.2112 -1.2420 -0.8067
   13CHL1  H24B  952  -0.030   2.499   8.408 -1.5519  2.7036 -1.6923
   13CHL1   C25  953  -0.039   2.707   8.438  0.5595 -0.4252  0.3148
   13CHL1   H25  954  -0.018   2.785   8.515 -0.6940 -0.5873  0.8505
   13CHL1   C26  955   0.050   2.753   8.319 -0.1547 -0.5461  0.2405
   13CHL1  H26A  956   0.160   2.755   8.335 -0.0395  0.5309 -0.5431
   13CHL1  H26B  957   0.035   2.693   8.227 -0.7116 -1.2136  0.7572
   13CHL1  H26C  958   0.022   2.856   8.287 -0.2543  0.3651  3.0275
   13CHL1   C27  959  -0.187   2.709   8.405 -0.0935 -0.3277  0.1789
   13CHL1  H27A  960  -0.230   2.806   8.375  0.8344  0.1509  0.3606
   13CHL1  H27B  961  -0.212   2.633   8.328 -0.4785 -1.4191  1.3405
   13CHL1  H27C  962  -0.246   2.662   8.487 -1.9111  1.2126 -0.1936
   14CHL1    C3  963   4.295   4.023  10.210  0.3621 -0.5126 -0.4368
   14CHL1    H3  964   4.282   3.912  10.206 -0.1410 -0.4384 -1.1160
   14CHL1    O3  965   4.300   4.056  10.346 -0.1606 -0.2873 -0.2202
   14CHL1   H3'  966   4.355   4.135  10.347  1.4977 -1.3593 -1.5672
   14CHL1    C4  967   4.422   4.069  10.136 -0.0088  0.1582  0.9115
   14CHL1   H4A  968   4.439   4.176  10.158 -3.0557  0.6445  1.3023
   14CHL1   H4B  969   4.509   4.013  10.177  0.3859  0.1995  0.1411
   14CHL1    C5  970   4.415   4.057   9.986 -0.0866  0.3665  0.4553
   14CHL1    C6  971   4.515   3.991   9.915 -0.1078  0.5296  0.0710
   14CHL1    H6  972   4.605   3.949   9.962 -1.2749 -1.4876  0.6461
   14CHL1    C7  973   4.511   3.978   9.768 -0.0912 -0.0169  0.1308
   14CHL1   H7A  974   4.609   4.018   9.735  0.7821 -1.1129  1.3005
   14CHL1   H7B  975   4.510   3.871   9.737  0.1693  0.1204 -0.3547
   14CHL1    C8  976   4.409   4.080   9.700 -0.1598  0.4160 -0.2472
   14CHL1    H8  977   4.464   4.175   9.719  0.2937 -0.0358  0.7929
   14CHL1   C14  978   4.397   4.040   9.551  0.0743  0.1722 -0.7060
   14CHL1   H14  979   4.339   3.945   9.543 -0.7952  0.2814  2.7189
   14CHL1   C15  980   4.529   4.028   9.483  0.0298  0.0155  0.0012
   14CHL1  H15A  981   4.605   4.103   9.511  1.7914 -1.0838 -1.5206
   14CHL1  H15B  982   4.582   3.929   9.483  0.9782  0.4819  1.5219
   14CHL1   C16  983   4.501   4.053   9.331  0.1074  0.1707 -0.3369
   14CHL1  H16A  984   4.539   4.153   9.304 -0.8070  1.2709  2.1070
   14CHL1  H16B  985   4.511   3.959   9.272  0.9619 -0.8708  1.3671
   14CHL1   C17  986   4.344   4.079   9.330 -0.4060  0.2400 -0.5206
   14CHL1   H17  987   4.293   3.981   9.330  1.0307 -0.5969  1.7642
   14CHL1   C13  988   4.326   4.143   9.467 -0.3008 -0.8691  0.5417
   14CHL1   C18  989   4.398   4.277   9.486 -0.0991 -0.0119 -0.1850
   14CHL1  H18A  990   4.390   4.310   9.592 -0.1396 -2.9464  0.8274
   14CHL1  H18B  991   4.503   4.293   9.454 -0.0429 -1.4289 -0.7652
   14CHL1  H18C  992   4.353   4.352   9.418  2.1373  1.4910 -0.1093
   14CHL1   C12  993   4.181   4.152   9.532 -0.6486 -0.2625 -0.5456
   14CHL1  H12A  994   4.116   4.233   9.494 -1.6056  0.4849  2.4218
   14CHL1  H12B  995   4.138   4.050   9.519  1.4298 -1.0768 -1.4969
   14CHL1   C11  996   4.184   4.183   9.683  0.2406  0.1112  0.3870
   14CHL1  H11A  997   4.217   4.289   9.687 -3.1413  1.2878  0.6715
   14CHL1  H11B  998   4.085   4.175   9.735  0.0992  2.2082  0.5190
   14CHL1    C9  999   4.277   4.092   9.770  0.1393 -0.4535  0.4170
   14CHL1    H9 1000   4.224   3.994   9.770 -1.5886  0.4459  0.3967
   14CHL1   C10 1001   4.289   4.121   9.920  0.1134 -0.3337 -0.1803
   14CHL1   C19 1002   4.290   4.273   9.949 -0.2455  0.0627 -0.1981
   14CHL1  H19A 1003   4.284   4.303  10.056 -0.4434  0.7492 -0.3925
   14CHL1  H19B 1004   4.383   4.322   9.914 -0.8039  1.7742  0.6067
   14CHL1  H19C 1005   4.201   4.324   9.904  0.0558  0.0141 -0.8668
   14CHL1    C1 1006   4.161   4.065   9.996  0.0266  0.9174  0.0436
   14CHL1   H1A 1007   4.068   4.110   9.955 -0.3167 -1.0815 -1.4986
   14CHL1   H1B 1008   4.154   3.957   9.975 -1.2316  1.4046 -2.4370
   14CHL1    C2 1009   4.171   4.081  10.153 -1.1228  0.0073  0.6680
   14CHL1   H2A 1010   4.076   4.050  10.202 -1.4001 -0.5619 -0.2132
   14CHL1   H2B 1011   4.177   4.187  10.185  0.9630  0.2361 -0.3572
   14CHL1   C20 1012   4.306   4.157   9.199 -0.1905 -0.4028  0.3484
   14CHL1   H20 1013   4.378   4.241   9.193 -1.2892  0.5027 -0.5746
   14CHL1   C21 1014   4.160   4.217   9.219 -0.2913 -1.5262 -0.0952
   14CHL1  H21A 1015   4.118   4.255   9.123 -3.0757 -2.0714  0.8163
   14CHL1  H21B 1016   4.167   4.301   9.291  0.5270  0.0017 -1.8713
   14CHL1  H21C 1017   4.103   4.132   9.262  1.1932 -2.2576  0.4790
   14CHL1   C22 1018   4.315   4.080   9.067  0.3890  1.5778 -0.3505
   14CHL1  H22A 1019   4.410   4.023   9.063 -0.1172  0.7898 -1.5955
   14CHL1  H22B 1020   4.229   4.013   9.048  0.7077  1.7998 -2.9785
   14CHL1   C23 1021   4.323   4.181   8.952  0.1894  0.3727  0.3740
   14CHL1  H23A 1022   4.235   4.249   8.940  1.3278  1.4448 -2.7785
   14CHL1  H23B 1023   4.407   4.250   8.972  0.5161  1.6442 -4.2023
   14CHL1   C24 1024   4.338   4.115   8.809 -0.1105  0.3049 -0.9783
   14CHL1  H24A 1025   4.439   4.068   8.807 -1.6767 -3.5095  0.7176
   14CHL1  H24B 1026   4.266   4.032   8.804 -1.2714  1.0909  1.5152
   14CHL1   C25 1027   4.315   4.215   8.697  0.8590 -0.4727 -0.6240
   14CHL1   H25 1028   4.221   4.269   8.722 -0.3114 -1.8244 -1.8525
   14CHL1   C26 1029   4.430   4.313   8.684  0.0683  0.3886 -0.1552
   14CHL1  H26A 1030   4.522   4.263   8.646  0.8278  1.6758 -0.0451
   14CHL1  H26B 1031   4.399   4.405   8.631 -1.1661  0.2628  0.2955
   14CHL1  H26C 1032   4.448   4.334   8.791  1.5917 -2.7264  0.3153
   14CHL1   C27 1033   4.298   4.136   8.567 -0.4914  0.2051  0.0972
   14CHL1  H27A 1034   4.390   4.077   8.547  0.2185  0.1444  2.9796
   14CHL1  H27B 1035   4.209   4.069   8.573  1.1989 -2.1772 -0.0752
   14CHL1  H27C 1036   4.282   4.215   8.490 -1.0305 -1.0718 -1.1400
   15CHL1    C3 1037   5.957   3.625   9.967 -0.2329  0.4457  0.7845
   15CHL1    H3 1038   5.916   3.729   9.962 -1.4033 -0.0515 -0.8737
   15CHL1    O3 1039   5.939   3.606  10.107 -0.5557  0.4320  0.6549
   15CHL1   H3' 1040   6.001   3.539  10.138 -0.3864 -0.5841 -1.6807
   15CHL1    C4 1041   5.884   3.527   9.882  0.1690 -0.3799 -0.5167
   15CHL1   H4A 1042   5.937   3.432   9.904  1.8381  0.8147  0.9612
   15CHL1   H4B 1043   5.785   3.506   9.927 -0.5106  3.9603  0.4743
   15CHL1    C5 1044   5.883   3.566   9.738  0.1883 -0.2664  0.4559
   15CHL1    C6 1045   5.766   3.575   9.666 -0.3655 -0.2743  0.2681
   15CHL1    H6 1046   5.673   3.547   9.718  0.0645  1.4379  2.1158
   15CHL1    C7 1047   5.757   3.609   9.514 -0.5251 -0.0208 -0.4034
   15CHL1   H7A 1048   5.695   3.527   9.472 -0.5643 -0.0103 -0.3658
   15CHL1   H7B 1049   5.723   3.711   9.485  0.5316  0.1858 -0.9533
   15CHL1    C8 1050   5.896   3.598   9.444 -0.4633  0.6161  0.6987
   15CHL1    H8 1051   5.922   3.497   9.407 -0.5467  1.2823 -1.2686
   15CHL1   C14 1052   5.897   3.681   9.313  0.8015  0.2542  0.0305
   15CHL1   H14 1053   5.877   3.785   9.347  0.5921  0.9081 -1.9344
   15CHL1   C15 1054   5.794   3.655   9.207  0.1613 -0.2931 -0.8551
   15CHL1  H15A 1055   5.764   3.548   9.205  0.2639 -0.4416  1.7128
   15CHL1  H15B 1056   5.700   3.713   9.226  1.4220  2.0951 -1.4795
   15CHL1   C16 1057   5.847   3.727   9.088 -0.2574 -0.2025 -0.4356
   15CHL1  H16A 1058   5.854   3.655   9.004 -1.8689 -2.0356  0.9213
   15CHL1  H16B 1059   5.781   3.804   9.043 -0.1979 -0.4423 -0.9346
   15CHL1   C17 1060   5.987   3.788   9.123 -0.9500 -0.8892  0.1815
   15CHL1   H17 1061   5.974   3.887   9.171 -2.6470 -1.5437  1.1803
   15CHL1   C13 1062   6.032   3.688   9.240 -0.1218 -0.5296  0.5811
   15CHL1   C18 1063   6.090   3.558   9.178  0.1949  0.3249  0.7829
   15CHL1  H18A 1064   6.043   3.526   9.082  0.9997 -0.0507  0.5050
   15CHL1  H18B 1065   6.199   3.572   9.162  0.1960 -0.0321  0.4382
   15CHL1  H18C 1066   6.093   3.482   9.258  0.1479 -0.2667  0.2365
   15CHL1   C12 1067   6.134   3.757   9.333 -0.0695  0.6258 -0.0609
   15CHL1  H12A 1068   6.236   3.765   9.289 -0.8906  0.3243 -2.1416
   15CHL1  H12B 1069   6.093   3.859   9.347 -1.0724  0.1703  0.4283
   15CHL1   C11 1070   6.147   3.674   9.463  0.0828  0.3981 -0.2779
   15CHL1  H11A 1071   6.190   3.572   9.450  0.7678  0.7215 -0.6193
   15CHL1  H11B 1072   6.221   3.723   9.529  0.5935  0.7463 -1.0929
   15CHL1    C9 1073   6.007   3.664   9.533  0.2303 -0.1255 -0.0649
   15CHL1    H9 1074   5.975   3.771   9.540  0.7009 -0.0081  0.3027
   15CHL1   C10 1075   6.020   3.596   9.671  0.0483 -0.2731 -0.3345
   15CHL1   C19 1076   6.091   3.452   9.654 -0.5384 -0.5995 -0.1265
   15CHL1  H19A 1077   6.098   3.393   9.748  1.1864 -1.6678 -0.8719
   15CHL1  H19B 1078   6.040   3.386   9.580 -1.2123  0.8504 -0.9945
   15CHL1  H19C 1079   6.195   3.460   9.614 -1.1453 -0.5864 -1.7893
   15CHL1    C1 1080   6.110   3.678   9.768  0.5880  0.2440 -0.4452
   15CHL1   H1A 1081   6.218   3.677   9.744  1.0020  1.4894  1.2304
   15CHL1   H1B 1082   6.072   3.782   9.761 -1.4907 -0.4592 -0.4290
   15CHL1    C2 1083   6.101   3.637   9.918  0.2519 -0.3457 -0.3651
   15CHL1   H2A 1084   6.167   3.695   9.985 -0.3831 -0.5778  0.4908
   15CHL1   H2B 1085   6.142   3.534   9.924  0.8503 -0.1375 -0.7983
   15CHL1   C20 1086   6.074   3.802   8.999 -0.2412 -0.4803 -0.4052
   15CHL1   H20 1087   6.094   3.698   8.967 -3.2437 -1.2393 -0.1219
   15CHL1   C21 1088   6.197   3.887   9.035 -0.1473  0.5541  0.2296
   15CHL1  H21A 1089   6.259   3.847   9.118  0.2998 -0.8829 -0.7593
   15CHL1  H21B 1090   6.148   3.986   9.047 -0.9333  0.5391 -2.2428
   15CHL1  H21C 1091   6.265   3.909   8.950 -1.3684 -0.5027 -1.0654
   15CHL1   C22 1092   5.999   3.867   8.872  0.5170  0.5637 -0.1277
   15CHL1  H22A 1093   5.895   3.832   8.854 -0.6136  4.0586 -1.1898
   15CHL1  H22B 1094   5.996   3.976   8.892 -3.0306  0.3497  1.2170
   15CHL1   C23 1095   6.072   3.831   8.738  0.1753  0.7724 -0.3069
   15CHL1  H23A 1096   6.179   3.850   8.759  0.2510  0.4072 -0.3604
   15CHL1  H23B 1097   6.054   3.723   8.724 -2.0172  0.8748  1.2284
   15CHL1   C24 1098   6.039   3.897   8.605 -0.7236  0.5736 -0.6546
   15CHL1  H24A 1099   5.932   3.877   8.585 -1.2544  0.1503  2.2479
   15CHL1  H24B 1100   6.039   4.007   8.617 -1.5988  0.4359  0.7594
   15CHL1   C25 1101   6.123   3.852   8.482  0.0007 -0.3088  0.1649
   15CHL1   H25 1102   6.139   3.742   8.488  0.3737 -0.1553  3.9225
   15CHL1   C26 1103   6.061   3.888   8.343 -0.3889 -0.5294 -0.2457
   15CHL1  H26A 1104   6.139   3.858   8.270  1.1983 -0.1262  1.2062
   15CHL1  H26B 1105   5.963   3.837   8.338 -0.2733 -0.6666 -1.2003
   15CHL1  H26C 1106   6.056   3.999   8.335  1.7441 -0.2475  1.2722
   15CHL1   C27 1107   6.261   3.913   8.502  0.0275 -0.4282 -0.1141
   15CHL1  H27A 1108   6.334   3.904   8.418 -0.4734  0.7727 -0.7082
   15CHL1  H27B 1109   6.249   4.023   8.507  1.2961 -0.2868  0.0695
   15CHL1  H27C 1110   6.310   3.881   8.596 -2.4924  0.2679  1.5468
   16CHL1    C3 1111   6.548   3.549  10.198  0.0567  0.3496  0.0791
   16CHL1    H3 1112   6.437   3.560  10.194 -0.3235 -2.7775  0.1283
   16CHL1    O3 1113   6.571   3.557  10.338 -0.2195  0.0753  0.2829
   16CHL1   H3' 1114   6.666   3.562  10.346 -0.2647  4.2513  0.1063
   16CHL1    C4 1115   6.591   3.419  10.130  0.3449  0.1907 -0.0503
   16CHL1   H4A 1116   6.700   3.404  10.148  0.1653 -1.0362  0.1062
   16CHL1   H4B 1117   6.549   3.333  10.186 -0.6896 -0.7347 -2.1170
   16CHL1    C5 1118   6.564   3.424   9.980 -0.1032 -1.0426 -0.7541
   16CHL1    C6 1119   6.496   3.325   9.917  0.3461  0.1134  0.2216
   16CHL1    H6 1120   6.459   3.236   9.970  0.2184 -0.4752 -0.8314
   16CHL1    C7 1121   6.468   3.314   9.771  0.0005 -0.0871  0.1069
   16CHL1   H7A 1122   6.498   3.212   9.737 -0.2075  0.8133 -3.1104
   16CHL1   H7B 1123   6.358   3.327   9.763  0.1835  1.4290 -0.1797
   16CHL1    C8 1124   6.547   3.417   9.686  0.6633 -0.3137  0.0089
   16CHL1    H8 1125   6.646   3.373   9.662 -0.3644 -2.1286 -1.1270
   16CHL1   C14 1126   6.491   3.437   9.542  0.5000 -0.4024 -0.4252
   16CHL1   H14 1127   6.393   3.489   9.545  0.3516 -0.5907 -1.6166
   16CHL1   C15 1128   6.462   3.320   9.455  0.1637 -0.2578 -0.1547
   16CHL1  H15A 1129   6.549   3.251   9.461  0.1070 -0.3429 -0.3103
   16CHL1  H15B 1130   6.368   3.264   9.468  0.4504 -0.8350 -0.5244
   16CHL1   C16 1131   6.444   3.387   9.312  0.1479 -0.2150  0.4603
   16CHL1  H16A 1132   6.496   3.324   9.236  0.9380  0.5951  0.3066
   16CHL1  H16B 1133   6.336   3.386   9.287 -0.0009 -1.1410  1.0810
   16CHL1   C17 1134   6.494   3.534   9.325  0.1109  0.4968 -0.0044
   16CHL1   H17 1135   6.404   3.595   9.346  1.0890  1.7858  0.5554
   16CHL1   C13 1136   6.574   3.538   9.456  0.0465 -0.8492 -0.4550
   16CHL1   C18 1137   6.714   3.487   9.435 -0.0128  0.6612 -0.3491
   16CHL1  H18A 1138   6.777   3.565   9.387 -2.5938  0.4937 -4.5185
   16CHL1  H18B 1139   6.772   3.466   9.527  0.8610  1.7458 -0.6324
   16CHL1  H18C 1140   6.712   3.389   9.383  1.4737 -0.9454  2.3856
   16CHL1   C12 1141   6.568   3.673   9.533 -0.4054  0.0175 -0.0380
   16CHL1  H12A 1142   6.621   3.758   9.486  0.3285 -1.3120 -1.7564
   16CHL1  H12B 1143   6.465   3.701   9.563 -0.0024  0.5264  0.9394
   16CHL1   C11 1144   6.629   3.662   9.677  0.1176  0.3608 -0.2969
   16CHL1  H11A 1145   6.735   3.637   9.658  0.2294 -1.8448  2.4760
   16CHL1  H11B 1146   6.619   3.755   9.736 -1.4183  0.9591 -1.4432
   16CHL1    C9 1147   6.556   3.548   9.762  0.0595 -0.3326 -0.5962
   16CHL1    H9 1148   6.453   3.586   9.774  0.6961  0.7866  2.1086
   16CHL1   C10 1149   6.620   3.540   9.903 -0.1779  0.4426  0.1310
   16CHL1   C19 1150   6.776   3.529   9.891 -0.2101  0.0105 -0.2597
   16CHL1  H19A 1151   6.832   3.492   9.980 -1.6392 -0.0283  0.6413
   16CHL1  H19B 1152   6.798   3.452   9.813 -0.9347  0.8269 -1.2890
   16CHL1  H19C 1153   6.822   3.627   9.865  0.4371 -0.1054  0.4116
   16CHL1    C1 1154   6.586   3.664   9.982  0.7360 -0.8720 -0.0046
   16CHL1   H1A 1155   6.636   3.751   9.934 -2.3790  1.0762  0.0035
   16CHL1   H1B 1156   6.478   3.689   9.968  1.2406  0.4651 -1.9115
   16CHL1    C2 1157   6.616   3.664  10.136 -0.8021 -1.0480 -0.5867
   16CHL1   H2A 1158   6.599   3.761  10.187  0.8553 -0.6716 -0.7118
   16CHL1   H2B 1159   6.724   3.642  10.151 -0.9025 -1.3751 -0.3231
   16CHL1   C20 1160   6.569   3.591   9.203 -0.5226  0.6305  0.3308
   16CHL1   H20 1161   6.666   3.541   9.181  0.1043  1.4631  1.1154
   16CHL1   C21 1162   6.602   3.736   9.227  0.2772  0.7952  0.7014
   16CHL1  H21A 1163   6.509   3.794   9.244 -1.2439  0.4911 -4.8543
   16CHL1  H21B 1164   6.651   3.780   9.137 -2.4256 -1.1520 -1.9162
   16CHL1  H21C 1165   6.682   3.747   9.303  2.0567 -2.0419 -0.5792
   16CHL1   C22 1166   6.479   3.574   9.082 -0.3287 -1.1478  0.9954
   16CHL1  H22A 1167   6.451   3.468   9.065 -1.1228 -1.1109  2.0327
   16CHL1  H22B 1168   6.389   3.634   9.107 -1.0472 -1.2740 -1.0604
   16CHL1   C23 1169   6.553   3.635   8.958 -0.1736  0.2912 -0.7711
   16CHL1  H23A 1170   6.547   3.746   8.965 -0.8138  0.1745  1.5361
   16CHL1  H23B 1171   6.658   3.600   8.970 -1.1247 -1.8540  2.5421
   16CHL1   C24 1172   6.495   3.591   8.822 -0.3423 -0.9219  0.1799
   16CHL1  H24A 1173   6.487   3.481   8.810  3.1022 -1.1819 -0.7600
   16CHL1  H24B 1174   6.390   3.625   8.808 -0.4478 -0.3491  2.0794
   16CHL1   C25 1175   6.570   3.655   8.703  0.2824 -0.6651  0.0249
   16CHL1   H25 1176   6.509   3.639   8.611  0.3757  2.6161 -0.7346
   16CHL1   C26 1177   6.586   3.809   8.701  0.2740  0.1165 -0.2004
   16CHL1  H26A 1178   6.597   3.836   8.593  0.3211  0.3452 -0.1397
   16CHL1  H26B 1179   6.498   3.851   8.753  0.5423  1.5106 -0.8035
   16CHL1  H26C 1180   6.679   3.832   8.757 -0.2052  0.4444  0.4624
   16CHL1   C27 1181   6.703   3.587   8.678  0.2195 -0.1242  0.2662
   16CHL1  H27A 1182   6.695   3.478   8.663  2.6749 -0.1097 -1.6703
   16CHL1  H27B 1183   6.721   3.634   8.579  2.5103  0.2131  0.7887
   16CHL1  H27C 1184   6.778   3.618   8.754  1.0825 -0.9583 -0.2334
   17CHL1    C3 1185   2.165   6.246  10.327 -0.1493 -0.9372  0.4420
   17CHL1    H3 1186   2.246   6.320  10.342 -1.0207  0.2465 -0.4710
   17CHL1    O3 1187   2.104   6.208  10.445  0.1928 -0.2475 -0.1467
   17CHL1   H3' 1188   2.109   6.113  10.435  4.9144 -0.3821  1.3122
   17CHL1    C4 1189   2.058   6.307  10.239  0.3484 -0.0572 -0.0393
   17CHL1   H4A 1190   1.969   6.240  10.235 -1.8841  2.7420  0.0390
   17CHL1   H4B 1191   2.026   6.400  10.291  1.9301 -0.0888  1.0539
   17CHL1    C5 1192   2.112   6.336  10.096  0.3784  0.3447 -0.6083
   17CHL1    C6 1193   2.106   6.459  10.042  0.0891  0.4192  0.4817
   17CHL1    H6 1194   2.052   6.537  10.099  1.8739 -0.9241  4.4124
   17CHL1    C7 1195   2.148   6.497   9.902 -0.3285 -0.3148  0.3026
   17CHL1   H7A 1196   2.069   6.561   9.858  0.6214 -0.0783 -1.1209
   17CHL1   H7B 1197   2.245   6.550   9.907 -1.2013  1.2697  1.4040
   17CHL1    C8 1198   2.163   6.366   9.817 -0.3276  0.1734 -0.3717
   17CHL1    H8 1199   2.062   6.327   9.793  0.1588 -2.9392  1.9581
   17CHL1   C14 1200   2.250   6.401   9.690  0.1813 -0.1431 -0.8805
   17CHL1   H14 1201   2.348   6.432   9.732 -0.1990 -2.2418  1.8337
   17CHL1   C15 1202   2.203   6.514   9.605  0.0051 -0.3495  0.6222
   17CHL1  H15A 1203   2.093   6.520   9.586  0.3976 -0.3621 -2.1128
   17CHL1  H15B 1204   2.231   6.615   9.640  0.3775 -0.2769  0.1301
   17CHL1   C16 1205   2.274   6.495   9.468 -0.2732  0.0553  0.2837
   17CHL1  H16A 1206   2.190   6.506   9.397 -0.5664  3.4936  0.9651
   17CHL1  H16B 1207   2.339   6.585   9.460 -2.0901  1.2785 -1.7239
   17CHL1   C17 1208   2.348   6.356   9.478  0.5756 -0.0306  0.0096
   17CHL1   H17 1209   2.453   6.383   9.502  1.0169  2.1132 -3.5343
   17CHL1   C13 1210   2.277   6.284   9.593  0.0597 -0.1183 -0.4638
   17CHL1   C18 1211   2.143   6.225   9.542 -0.7382 -0.4271  0.3708
   17CHL1  H18A 1212   2.083   6.188   9.628 -0.0277 -1.1094  0.5832
   17CHL1  H18B 1213   2.078   6.294   9.484 -3.4521 -2.9503  0.2218
   17CHL1  H18C 1214   2.164   6.140   9.474 -0.8157  1.2694 -1.9025
   17CHL1   C12 1215   2.362   6.186   9.674  0.5179  0.4921  0.4200
   17CHL1  H12A 1216   2.395   6.099   9.612 -1.6497 -0.4004  0.4492
   17CHL1  H12B 1217   2.457   6.235   9.704 -0.1973  2.2645 -0.1159
   17CHL1   C11 1218   2.288   6.138   9.804 -0.3285  0.1711  0.0611
   17CHL1  H11A 1219   2.200   6.079   9.773 -0.2745 -0.4922  1.1141
   17CHL1  H11B 1220   2.362   6.084   9.868  0.7636  1.0168 -0.4422
   17CHL1    C9 1221   2.242   6.261   9.893  0.4111  0.5702  0.6548
   17CHL1    H9 1222   2.338   6.312   9.917  0.3981  2.2815 -2.4699
   17CHL1   C10 1223   2.165   6.213  10.022 -0.4480  0.3961 -0.5297
   17CHL1   C19 1224   2.051   6.113   9.977 -0.5712 -0.9811 -0.2379
   17CHL1  H19A 1225   1.994   6.082  10.067  3.8771 -4.8906  1.6683
   17CHL1  H19B 1226   1.993   6.148   9.889 -1.5510 -0.8748  0.4359
   17CHL1  H19C 1227   2.096   6.017   9.944 -1.6903 -0.8817 -2.2136
   17CHL1    C1 1228   2.269   6.156  10.117 -0.6475  0.3277  0.6231
   17CHL1   H1A 1229   2.304   6.062  10.070  1.8743  0.3678  2.2289
   17CHL1   H1B 1230   2.357   6.225  10.123 -1.0145  0.7062  2.8073
   17CHL1    C2 1231   2.211   6.121  10.255 -0.5871 -0.0313  0.0019
   17CHL1   H2A 1232   2.298   6.066  10.297 -0.6062  0.4194  0.6387
   17CHL1   H2B 1233   2.128   6.049  10.242 -0.7155  0.0775  0.2221
   17CHL1   C20 1234   2.362   6.283   9.338  0.2055  0.2308  0.1373
   17CHL1   H20 1235   2.266   6.243   9.301  1.4285 -0.7953 -2.1836
   17CHL1   C21 1236   2.460   6.157   9.344  0.1196  0.1519  0.0487
   17CHL1  H21A 1237   2.497   6.121   9.246  3.3094  2.5423  0.1988
   17CHL1  H21B 1238   2.406   6.080   9.403 -2.0958  1.3276 -0.3380
   17CHL1  H21C 1239   2.546   6.183   9.409 -1.0058 -2.5221  2.8497
   17CHL1   C22 1240   2.411   6.385   9.231 -0.0652  0.5786  0.1403
   17CHL1  H22A 1241   2.332   6.464   9.226 -1.6924 -1.0342 -0.7412
   17CHL1  H22B 1242   2.511   6.422   9.262 -0.0010  2.3874 -1.9446
   17CHL1   C23 1243   2.432   6.336   9.083  0.0274  0.3218 -0.6119
   17CHL1  H23A 1244   2.485   6.424   9.039 -0.4666  0.7501 -0.3535
   17CHL1  H23B 1245   2.507   6.254   9.077  0.1158  0.4014 -0.6033
   17CHL1   C24 1246   2.304   6.279   9.021  0.6000 -0.4464  0.0826
   17CHL1  H24A 1247   2.291   6.176   9.061  0.0822 -0.3541  0.1525
   17CHL1  H24B 1248   2.223   6.345   9.057 -0.5082 -0.6616 -1.8850
   17CHL1   C25 1249   2.311   6.263   8.868  0.9779 -0.2740  0.3514
   17CHL1   H25 1250   2.216   6.226   8.823  1.4454  0.3210 -1.1742
   17CHL1   C26 1251   2.325   6.406   8.802  0.4423 -0.2578 -0.1905
   17CHL1  H26A 1252   2.433   6.428   8.810  0.1436  1.4626 -0.5596
   17CHL1  H26B 1253   2.295   6.399   8.695  0.1029  0.0422 -0.1164
   17CHL1  H26C 1254   2.268   6.484   8.856  1.8447 -0.0953  1.1156
   17CHL1   C27 1255   2.416   6.159   8.834  0.2073  0.2436 -0.0653
   17CHL1  H27A 1256   2.519   6.185   8.867  0.3061  0.5726 -0.6186
   17CHL1  H27B 1257   2.385   6.060   8.874  1.0511  0.5533  1.4277
   17CHL1  H27C 1258   2.429   6.156   8.724 -0.2420 -0.4722 -0.1077
   18CHL1    C3 1259   1.230   6.375  10.247  0.1794 -0.0624 -0.0390
   18CHL1    H3 1260   1.293   6.298  10.196 -0.7670 -0.9689  0.1270
   18CHL1    O3 1261   1.246   6.377  10.386 -0.3123  0.2644 -0.6820
   18CHL1   H3' 1262   1.201   6.458  10.411  1.5383  1.1997 -0.2910
   18CHL1    C4 1263   1.268   6.514  10.197 -0.4613 -0.0721  0.3399
   18CHL1   H4A 1264   1.200   6.593  10.235  0.6963  1.8199 -1.3067
   18CHL1   H4B 1265   1.373   6.541  10.217 -0.4968 -1.0263  1.9545
   18CHL1    C5 1266   1.263   6.508  10.046 -0.1694  0.1171  0.2600
   18CHL1    C6 1267   1.371   6.535   9.972 -0.0870 -0.6794  0.1591
   18CHL1    H6 1268   1.462   6.565  10.026  1.1188  1.2881 -2.7396
   18CHL1    C7 1269   1.378   6.531   9.824  0.2679 -0.4611 -0.0066
   18CHL1   H7A 1270   1.428   6.622   9.783 -2.1215  1.0525  0.2162
   18CHL1   H7B 1271   1.431   6.438   9.794  0.2610  0.2745 -2.6233
   18CHL1    C8 1272   1.241   6.518   9.758  0.0994  0.1332  0.2025
   18CHL1    H8 1273   1.203   6.622   9.750 -1.4374 -0.4554 -0.5629
   18CHL1   C14 1274   1.258   6.471   9.617  0.5304 -0.9611  0.9000
   18CHL1   H14 1275   1.291   6.365   9.612  1.2426 -0.6955 -0.7560
   18CHL1   C15 1276   1.357   6.540   9.531  0.9459 -0.2363  0.0475
   18CHL1  H15A 1277   1.368   6.650   9.542  0.2739 -0.4083  3.6823
   18CHL1  H15B 1278   1.457   6.500   9.557  0.5150 -0.3787  1.5716
   18CHL1   C16 1279   1.319   6.501   9.387 -0.4082  0.0573  0.1399
   18CHL1  H16A 1280   1.319   6.599   9.333  4.9562 -0.2249 -0.9035
   18CHL1  H16B 1281   1.396   6.433   9.345  0.3092  0.9993 -0.0878
   18CHL1   C17 1282   1.184   6.418   9.400 -0.2153  0.4505 -0.0931
   18CHL1   H17 1283   1.220   6.315   9.423  0.1487 -0.1810 -3.1077
   18CHL1   C13 1284   1.129   6.471   9.534  0.5171 -0.4600 -0.1069
   18CHL1   C18 1285   1.071   6.608   9.521 -0.3033  0.0426 -0.1074
   18CHL1  H18A 1286   1.142   6.676   9.468 -0.0960 -0.0391  0.0597
   18CHL1  H18B 1287   0.978   6.607   9.461  1.2541  1.4401 -2.7693
   18CHL1  H18C 1288   1.043   6.655   9.618 -0.6116  2.0450 -1.1066
   18CHL1   C12 1289   1.024   6.380   9.605  0.0594 -0.3888  0.2993
   18CHL1  H12A 1290   0.929   6.399   9.551  1.5663  1.7801 -1.8511
   18CHL1  H12B 1291   1.060   6.278   9.578 -0.4507 -0.1138 -1.5888
   18CHL1   C11 1292   1.012   6.412   9.752  0.1004 -0.5176 -0.3349
   18CHL1  H11A 1293   0.950   6.504   9.759  1.4536  0.7304 -2.9674
   18CHL1  H11B 1294   0.949   6.330   9.793 -0.8939  1.3576  2.1768
   18CHL1    C9 1295   1.143   6.431   9.836  0.0908  0.1569  0.0711
   18CHL1    H9 1296   1.199   6.335   9.828 -0.3797  0.0423 -3.5664
   18CHL1   C10 1297   1.129   6.469   9.985  0.7992 -0.2141  0.3184
   18CHL1   C19 1298   1.029   6.591   9.995  0.5023 -0.6061  0.3185
   18CHL1  H19A 1299   0.929   6.554   9.963  1.6216 -1.5447 -2.3171
   18CHL1  H19B 1300   1.024   6.631  10.099 -0.9652  0.8344 -0.2703
   18CHL1  H19C 1301   1.062   6.669   9.924 -0.7669 -1.2922 -1.0798
   18CHL1    C1 1302   1.067   6.353  10.061 -0.3904  0.7101  0.1966
   18CHL1   H1A 1303   0.960   6.353  10.032 -0.3286 -1.3142 -0.2010
   18CHL1   H1B 1304   1.110   6.263  10.013  1.0463  1.8708 -0.8057
   18CHL1    C2 1305   1.085   6.342  10.215  0.5112 -0.2376  0.0849
   18CHL1   H2A 1306   1.049   6.244  10.253  0.1492 -1.0807 -2.2206
   18CHL1   H2B 1307   1.020   6.421  10.257 -1.9707 -2.0271 -0.1320
   18CHL1   C20 1308   1.095   6.402   9.279 -1.0047  0.3000  0.2886
   18CHL1   H20 1309   1.005   6.466   9.288  0.1473  2.2712 -1.3982
   18CHL1   C21 1310   1.039   6.261   9.277 -1.1168 -0.3925 -0.0828
   18CHL1  H21A 1311   1.120   6.186   9.267 -0.6168  0.0472  0.5445
   18CHL1  H21B 1312   0.975   6.247   9.188  0.1644  0.3597 -1.1606
   18CHL1  H21C 1313   0.975   6.230   9.362 -1.0325  0.5960  0.3534
   18CHL1   C22 1314   1.167   6.438   9.148 -0.3958  0.9503 -0.0394
   18CHL1  H22A 1315   1.275   6.410   9.143 -0.2753  1.1751  1.0484
   18CHL1  H22B 1316   1.125   6.381   9.063 -0.2242  1.5351 -0.5277
   18CHL1   C23 1317   1.150   6.589   9.113  0.3968 -0.3634 -0.0989
   18CHL1  H23A 1318   1.160   6.649   9.206 -1.9882 -0.5202  0.3241
   18CHL1  H23B 1319   1.235   6.616   9.048  0.0832 -0.1527 -0.4210
   18CHL1   C24 1320   1.020   6.622   9.042 -0.3511  0.0788  0.6233
   18CHL1  H24A 1321   1.010   6.553   8.955 -1.5271  1.4049 -0.3406
   18CHL1  H24B 1322   0.930   6.603   9.104 -0.7218 -1.1611 -0.2443
   18CHL1   C25 1323   1.011   6.766   8.976  0.5211  0.7462  0.9445
   18CHL1   H25 1324   1.070   6.754   8.883 -2.0159 -1.4647 -0.5328
   18CHL1   C26 1325   0.865   6.787   8.928  0.4480 -0.7789  0.1329
   18CHL1  H26A 1326   0.865   6.887   8.880  0.9301  0.4660  2.5880
   18CHL1  H26B 1327   0.840   6.705   8.857 -1.0610  0.1437 -0.4368
   18CHL1  H26C 1328   0.803   6.802   9.018 -0.9291  1.8732 -1.1646
   18CHL1   C27 1329   1.070   6.876   9.063  0.4881 -0.4013 -0.3718
   18CHL1  H27A 1330   1.177   6.852   9.081  0.1425 -1.0702  0.8908
   18CHL1  H27B 1331   1.062   6.981   9.028  1.4090  0.1050  0.8274
   18CHL1  H27C 1332   1.023   6.877   9.164 -2.0292 -0.9000 -1.4795
   19CHL1    C3 1333   6.055   3.129   9.985  0.3502 -0.5041 -0.7084
   19CHL1    H3 1334   6.084   3.234   9.959  0.9655 -0.9088 -1.7199
   19CHL1    O3 1335   6.067   3.111  10.124 -0.2750  0.1354 -0.2652
   19CHL1   H3' 1336   5.997   3.048  10.142 -0.1938  0.5025  1.6022
   19CHL1    C4 1337   5.909   3.107   9.946  0.0604  0.4255  0.6110
   19CHL1   H4A 1338   5.873   3.006   9.976 -1.2400  1.1184  1.4927
   19CHL1   H4B 1339   5.847   3.181  10.001 -1.4761  0.7549 -1.4464
   19CHL1    C5 1340   5.884   3.121   9.791  0.2442  0.1642 -0.2867
   19CHL1    C6 1341   5.788   3.209   9.741 -0.0465  0.0668  0.5432
   19CHL1    H6 1342   5.749   3.275   9.821  2.0686 -1.4880  3.0306
   19CHL1    C7 1343   5.765   3.232   9.592 -0.7162  0.1411 -0.1662
   19CHL1   H7A 1344   5.657   3.236   9.566 -0.7248 -2.0762 -0.6839
   19CHL1   H7B 1345   5.816   3.328   9.568 -0.1725  0.2569  1.3569
   19CHL1    C8 1346   5.835   3.126   9.508 -0.5657 -0.0646  0.5671
   19CHL1    H8 1347   5.775   3.033   9.502 -0.3498 -0.1417 -1.0213
   19CHL1   C14 1348   5.855   3.166   9.359  0.2568 -0.2840  0.2610
   19CHL1   H14 1349   5.932   3.245   9.367  1.0606 -1.1065  0.9123
   19CHL1   C15 1350   5.731   3.237   9.294  0.6686  0.3097  0.3026
   19CHL1  H15A 1351   5.638   3.182   9.319  0.1203  0.9562 -0.2812
   19CHL1  H15B 1352   5.719   3.341   9.330  0.0788 -0.2422  1.7692
   19CHL1   C16 1353   5.762   3.231   9.143 -0.6298 -0.1104 -0.5778
   19CHL1  H16A 1354   5.679   3.195   9.078 -0.3942 -1.9708  0.0826
   19CHL1  H16B 1355   5.796   3.332   9.111 -0.2027  0.2166  0.8464
   19CHL1   C17 1356   5.891   3.135   9.133 -0.2107 -0.3491  0.3431
   19CHL1   H17 1357   5.980   3.201   9.142 -0.6264  0.2535  0.0757
   19CHL1   C13 1358   5.900   3.058   9.264 -0.4663 -0.3392  0.3052
   19CHL1   C18 1359   5.805   2.940   9.259 -0.2548  0.3461  0.1257
   19CHL1  H18A 1360   5.813   2.883   9.354  0.7787  0.4446  0.1093
   19CHL1  H18B 1361   5.696   2.954   9.248 -0.6577 -1.3449  1.5650
   19CHL1  H18C 1362   5.839   2.870   9.181 -0.8617 -2.0010  1.8651
   19CHL1   C12 1363   6.039   3.016   9.314 -0.3195  0.3414 -0.0536
   19CHL1  H12A 1364   6.086   2.944   9.245  0.2891  1.7624 -1.1682
   19CHL1  H12B 1365   6.095   3.111   9.298  1.6389 -0.7584  0.0144
   19CHL1   C11 1366   6.052   2.981   9.465 -0.0359  0.1131  0.7058
   19CHL1  H11A 1367   6.019   2.877   9.483 -1.5760 -0.0767 -2.5394
   19CHL1  H11B 1368   6.161   2.992   9.484  0.3172 -2.8326  0.8019
   19CHL1    C9 1369   5.978   3.081   9.562 -0.3192 -0.1984  0.3530
   19CHL1    H9 1370   6.038   3.174   9.556 -1.3320  0.4343 -0.1326
   19CHL1   C10 1371   5.982   3.041   9.706 -0.4415 -0.0611  0.4232
   19CHL1   C19 1372   5.925   2.891   9.723  0.2292 -0.0575  0.1883
   19CHL1  H19A 1373   6.000   2.816   9.691  0.7297  0.6781 -0.3677
   19CHL1  H19B 1374   5.906   2.854   9.826  1.8801  0.1566  0.5843
   19CHL1  H19C 1375   5.829   2.873   9.669 -0.9568  0.3507  2.0525
   19CHL1    C1 1376   6.129   3.043   9.765  0.3830 -0.8294  0.4980
   19CHL1   H1A 1377   6.186   2.963   9.714  0.6917 -1.9484  2.5143
   19CHL1   H1B 1378   6.182   3.140   9.749  0.9688 -1.2037  0.1297
   19CHL1    C2 1379   6.143   3.024   9.914  0.5137  0.0273 -0.1386
   19CHL1   H2A 1380   6.248   3.040   9.947 -0.5521 -0.6934  4.1514
   19CHL1   H2B 1381   6.113   2.919   9.931  0.3792 -0.5430 -3.2884
   19CHL1   C20 1382   5.896   3.062   9.001  0.5253  0.1436  0.5744
   19CHL1   H20 1383   5.818   2.984   8.995 -1.2920  1.9463 -0.6126
   19CHL1   C21 1384   6.028   2.984   8.993 -0.4584  0.3084 -0.0832
   19CHL1  H21A 1385   6.054   2.948   8.892 -0.5665  1.0144 -0.3641
   19CHL1  H21B 1386   6.007   2.892   9.052 -0.0675  0.1986 -0.1139
   19CHL1  H21C 1387   6.119   3.040   9.024 -1.3767  0.1465  3.3945
   19CHL1   C22 1388   5.890   3.147   8.877 -0.4470  0.2515 -0.5724
   19CHL1  H22A 1389   5.816   3.230   8.889 -1.8310 -0.8357 -1.2276
   19CHL1  H22B 1390   5.995   3.181   8.867  0.7504 -3.0565 -0.3821
   19CHL1   C23 1391   5.856   3.078   8.747 -0.7305  0.0632  0.8591
   19CHL1  H23A 1392   5.936   3.008   8.716 -1.2213  1.2427 -3.9524
   19CHL1  H23B 1393   5.754   3.035   8.756 -0.8971 -0.1715 -1.4737
   19CHL1   C24 1394   5.858   3.183   8.632 -0.1522 -1.0237 -0.9490
   19CHL1  H24A 1395   5.773   3.251   8.652 -0.8037 -2.0771 -0.0080
   19CHL1  H24B 1396   5.947   3.247   8.645 -0.4978 -0.8298  0.5989
   19CHL1   C25 1397   5.852   3.112   8.496  0.4191 -0.0349  0.7119
   19CHL1   H25 1398   5.918   3.023   8.505  0.1055 -0.2476  0.9405
   19CHL1   C26 1399   5.708   3.067   8.454  0.5085  0.2127  0.5437
   19CHL1  H26A 1400   5.704   2.977   8.389 -1.5381 -0.3150  1.3247
   19CHL1  H26B 1401   5.661   3.036   8.550 -4.2990  1.4988 -1.0750
   19CHL1  H26C 1402   5.635   3.144   8.419  1.2872 -0.2389 -2.3605
   19CHL1   C27 1403   5.896   3.204   8.388  0.5475 -0.3595 -0.9397
   19CHL1  H27A 1404   5.991   3.260   8.404  0.3012 -0.0860 -0.3540
   19CHL1  H27B 1405   5.926   3.156   8.293 -0.6341  0.2486 -1.6438
   19CHL1  H27C 1406   5.819   3.285   8.379 -0.8163 -1.2048  1.7359
   20CHL1    C3 1407   3.783   1.326  10.323  0.3825  0.0788  0.3114
   20CHL1    H3 1408   3.700   1.400  10.328 -0.6622 -0.9981 -0.5902
   20CHL1    O3 1409   3.814   1.294  10.455  0.6224 -0.1535 -0.0744
   20CHL1   H3' 1410   3.800   1.200  10.469 -3.3383  0.4207  1.2304
   20CHL1    C4 1411   3.728   1.195  10.248 -1.0513  0.2900  0.3992
   20CHL1   H4A 1412   3.797   1.108  10.255 -0.4105  0.8647  1.6062
   20CHL1   H4B 1413   3.639   1.156  10.301 -1.3263  0.0589 -0.2261
   20CHL1    C5 1414   3.695   1.242  10.103 -0.1202  0.2446 -0.5173
   20CHL1    C6 1415   3.569   1.220  10.058  0.0151 -0.3702  0.0856
   20CHL1    H6 1416   3.492   1.172  10.120 -1.1874  1.1233 -0.1732
   20CHL1    C7 1417   3.538   1.258   9.915 -0.2490 -0.4765 -0.2091
   20CHL1   H7A 1418   3.481   1.170   9.878 -0.5628 -1.9767  3.3804
   20CHL1   H7B 1419   3.475   1.350   9.915  0.7708  0.4483  4.1008
   20CHL1    C8 1420   3.661   1.273   9.822 -0.0082 -0.2712  0.1800
   20CHL1    H8 1421   3.715   1.176   9.816 -1.5269 -1.0506 -2.2474
   20CHL1   C14 1422   3.617   1.325   9.686  0.2733 -0.0374 -0.2640
   20CHL1   H14 1423   3.576   1.427   9.705 -2.1275 -1.1380  0.9112
   20CHL1   C15 1424   3.506   1.241   9.607 -0.2150 -0.3983 -0.3761
   20CHL1  H15A 1425   3.527   1.132   9.611  0.8625 -0.1957 -0.0529
   20CHL1  H15B 1426   3.398   1.259   9.627 -0.4430 -0.2432 -1.6612
   20CHL1   C16 1427   3.529   1.278   9.458 -0.2091 -0.0378  0.4946
   20CHL1  H16A 1428   3.555   1.195   9.389  0.4967  2.9971 -3.2254
   20CHL1  H16B 1429   3.432   1.321   9.427 -0.8845 -1.4102  0.6408
   20CHL1   C17 1430   3.650   1.375   9.456  1.0950  0.5080 -1.0222
   20CHL1   H17 1431   3.601   1.474   9.465  1.4004  0.4578  4.2253
   20CHL1   C13 1432   3.730   1.349   9.586  0.6309 -0.0219 -0.5067
   20CHL1   C18 1433   3.807   1.216   9.570  0.1210 -0.0308 -0.1178
   20CHL1  H18A 1434   3.743   1.128   9.552  0.9386 -0.2166 -2.4643
   20CHL1  H18B 1435   3.876   1.211   9.484 -1.2251 -3.1415 -1.1306
   20CHL1  H18C 1436   3.873   1.210   9.659 -1.1317  1.1355  0.9432
   20CHL1   C12 1437   3.817   1.464   9.650 -0.6999 -0.4246 -0.2205
   20CHL1  H12A 1438   3.906   1.485   9.587  0.4542  0.7302  1.6986
   20CHL1  H12B 1439   3.754   1.555   9.655  1.0738  0.7501  2.6561
   20CHL1   C11 1440   3.860   1.431   9.794 -0.5247  0.3563 -0.1153
   20CHL1  H11A 1441   3.939   1.356   9.773 -0.3807  0.7123 -0.8589
   20CHL1  H11B 1442   3.911   1.513   9.849  0.3297 -2.3044  3.5043
   20CHL1    C9 1443   3.753   1.369   9.887  0.2875  0.7433 -0.2690
   20CHL1    H9 1444   3.691   1.454   9.921 -2.3730 -0.8741 -0.7767
   20CHL1   C10 1445   3.804   1.322  10.026  0.8914 -0.0752  0.1445
   20CHL1   C19 1446   3.915   1.219  10.004 -0.1993 -0.0375 -0.4613
   20CHL1  H19A 1447   4.005   1.268   9.960 -0.6929 -0.2282 -1.7261
   20CHL1  H19B 1448   3.958   1.182  10.100  1.8745 -0.7382 -1.5972
   20CHL1  H19C 1449   3.884   1.124   9.957  1.4805 -0.3474 -1.0209
   20CHL1    C1 1450   3.856   1.440  10.115 -0.5942  0.0609 -0.6322
   20CHL1   H1A 1451   3.929   1.501  10.058  0.0382 -0.5227 -0.4572
   20CHL1   H1B 1452   3.775   1.514  10.133  0.0137  1.0872 -1.9131
   20CHL1    C2 1453   3.904   1.398  10.256 -0.6082  0.9821 -1.2054
   20CHL1   H2A 1454   3.936   1.493  10.304 -1.8088  0.6028  0.4491
   20CHL1   H2B 1455   3.995   1.333  10.256 -0.5832  1.0059 -0.2549
   20CHL1   C20 1456   3.724   1.378   9.321  0.1854  0.5671  0.2095
   20CHL1   H20 1457   3.741   1.272   9.291  0.7798  0.3403  1.2803
   20CHL1   C21 1458   3.853   1.454   9.335  0.0076 -0.1097  0.1324
   20CHL1  H21A 1459   3.905   1.477   9.240  2.0533 -0.4655  1.1074
   20CHL1  H21B 1460   3.932   1.401   9.393  1.1694  1.9464  0.5328
   20CHL1  H21C 1461   3.836   1.552   9.385 -2.0147 -0.7286  0.7663
   20CHL1   C22 1462   3.626   1.438   9.211 -0.2153 -0.6549 -0.2985
   20CHL1  H22A 1463   3.540   1.367   9.203 -1.7738  1.1869 -0.6346
   20CHL1  H22B 1464   3.588   1.536   9.247  1.6503 -0.9549  2.8941
   20CHL1   C23 1465   3.698   1.453   9.073 -0.0230  0.2715 -0.0353
   20CHL1  H23A 1466   3.773   1.535   9.082 -1.6380  1.7745  0.2126
   20CHL1  H23B 1467   3.753   1.361   9.045 -1.0086 -0.1436 -0.6552
   20CHL1   C24 1468   3.600   1.484   8.964 -0.6277 -0.0699 -0.0202
   20CHL1  H24A 1469   3.525   1.404   8.951 -1.3206  0.8403 -2.1188
   20CHL1  H24B 1470   3.542   1.572   9.000 -0.0605 -0.9251  3.3096
   20CHL1   C25 1471   3.653   1.534   8.830  0.3290 -0.1007  0.4396
   20CHL1   H25 1472   3.740   1.602   8.840  0.3002 -0.2401  1.7592
   20CHL1   C26 1473   3.701   1.416   8.743  0.7718 -0.7851  0.2378
   20CHL1  H26A 1474   3.619   1.343   8.729 -0.4206  0.0770  2.2216
   20CHL1  H26B 1475   3.734   1.451   8.643 -1.1163 -0.5374 -0.3222
   20CHL1  H26C 1476   3.794   1.378   8.791  1.0492  1.4457  1.6299
   20CHL1   C27 1477   3.546   1.608   8.753  0.5080  1.2113 -0.2224
   20CHL1  H27A 1478   3.451   1.553   8.769  0.9626  0.8615  1.5117
   20CHL1  H27B 1479   3.524   1.713   8.780 -1.9337  0.3867  1.2710
   20CHL1  H27C 1480   3.558   1.605   8.642 -0.5454 -2.2047 -0.3730
   21CHL1    C3 1481   1.445   5.861  10.342 -0.5660 -0.6108 -0.0168
   21CHL1    H3 1482   1.539   5.812  10.310 -1.0168 -0.2818 -1.9357
   21CHL1    O3 1483   1.446   5.851  10.485 -0.2721  0.6277 -0.0256
   21CHL1   H3' 1484   1.367   5.896  10.514 -0.7605 -0.0575 -0.2502
   21CHL1    C4 1485   1.453   6.009  10.293 -0.4188 -0.5064  0.1671
   21CHL1   H4A 1486   1.360   6.067  10.314  0.6568  1.7258 -0.8895
   21CHL1   H4B 1487   1.539   6.068  10.329  0.2980 -0.7693 -1.0558
   21CHL1    C5 1488   1.451   6.001  10.138 -0.4085 -0.4778 -1.0874
   21CHL1    C6 1489   1.560   6.038  10.066 -0.1241  0.2541 -1.0397
   21CHL1    H6 1490   1.647   6.072  10.124 -0.9982 -1.9855  1.8423
   21CHL1    C7 1491   1.558   6.036   9.919 -0.0513 -0.6055  0.0875
   21CHL1   H7A 1492   1.588   6.137   9.886  0.6518 -0.3743  1.3593
   21CHL1   H7B 1493   1.644   5.981   9.875  0.8363  1.3877 -0.8083
   21CHL1    C8 1494   1.427   5.995   9.850  0.1057  0.8561 -0.2405
   21CHL1    H8 1495   1.359   6.082   9.858  0.8229  1.3728  0.3468
   21CHL1   C14 1496   1.450   5.962   9.700  0.6140 -0.3535 -0.6532
   21CHL1   H14 1497   1.510   5.869   9.712  0.7573 -0.0729  1.0917
   21CHL1   C15 1498   1.529   6.059   9.606 -0.3963  0.1197  1.0654
   21CHL1  H15A 1499   1.493   6.164   9.613 -4.2458 -0.9969  0.2506
   21CHL1  H15B 1500   1.637   6.046   9.629 -0.0698 -0.9143 -0.8660
   21CHL1   C16 1501   1.481   6.007   9.472  0.1966 -0.2896 -0.1130
   21CHL1  H16A 1502   1.422   6.089   9.426  1.7534  2.1331  1.9258
   21CHL1  H16B 1503   1.563   5.985   9.400 -0.4163  0.4787 -1.0586
   21CHL1   C17 1504   1.382   5.887   9.486  0.7526  0.6039 -0.2207
   21CHL1   H17 1505   1.451   5.801   9.496 -1.4617 -1.3597 -0.8918
   21CHL1   C13 1506   1.323   5.911   9.632 -0.1377  0.3364  0.4318
   21CHL1   C18 1507   1.217   6.014   9.616 -0.0137 -0.1284  0.3957
   21CHL1  H18A 1508   1.247   6.105   9.560 -0.1008 -1.0896 -1.2815
   21CHL1  H18B 1509   1.133   5.971   9.558 -0.4489  0.7775  0.3378
   21CHL1  H18C 1510   1.179   6.052   9.713 -0.5694  1.3505 -0.3780
   21CHL1   C12 1511   1.275   5.783   9.710  0.2551 -0.3361 -0.3064
   21CHL1  H12A 1512   1.182   5.758   9.656 -0.3403  2.7761 -0.8984
   21CHL1  H12B 1513   1.350   5.702   9.698 -0.3271 -0.9218 -0.0078
   21CHL1   C11 1514   1.248   5.816   9.851  0.7885  0.4898  0.1186
   21CHL1  H11A 1515   1.157   5.880   9.855  0.5495  0.3061 -1.7334
   21CHL1  H11B 1516   1.216   5.726   9.908  1.5653  0.0717 -0.0994
   21CHL1    C9 1517   1.364   5.881   9.926 -0.8622 -0.9142  0.2161
   21CHL1    H9 1518   1.442   5.803   9.934  0.2868  0.2537  0.7852
   21CHL1   C10 1519   1.337   5.926  10.069  0.5518  0.7014  0.5661
   21CHL1   C19 1520   1.209   6.015  10.067 -0.2004 -0.1690  0.0641
   21CHL1  H19A 1521   1.120   5.956  10.036 -1.8857 -0.0003  4.0194
   21CHL1  H19B 1522   1.176   6.036  10.171  0.1434 -1.0866  0.3706
   21CHL1  H19C 1523   1.236   6.106  10.009 -0.0828  0.3775  0.9701
   21CHL1    C1 1524   1.302   5.792  10.138  0.5202  0.5485 -0.0937
   21CHL1   H1A 1525   1.199   5.760  10.109  0.7522 -0.2981 -0.0182
   21CHL1   H1B 1526   1.371   5.712  10.103  1.7272  1.6187 -0.2090
   21CHL1    C2 1527   1.318   5.786  10.289 -0.1096  0.0165 -0.5205
   21CHL1   H2A 1528   1.318   5.678  10.316  0.1868 -0.3531 -1.9358
   21CHL1   H2B 1529   1.228   5.833  10.334 -0.1522 -0.8136  0.2978
   21CHL1   C20 1530   1.284   5.866   9.367 -0.8218  0.4705  0.5099
   21CHL1   H20 1531   1.220   5.957   9.365  1.0874  1.8558  0.2749
   21CHL1   C21 1532   1.197   5.744   9.386  0.1975  0.1156  0.0800
   21CHL1  H21A 1533   1.157   5.695   9.294  0.5883  1.7202 -0.9815
   21CHL1  H21B 1534   1.111   5.772   9.450 -1.0197  0.3505 -1.6009
   21CHL1  H21C 1535   1.262   5.667   9.433  0.5344 -0.9815 -2.0437
   21CHL1   C22 1536   1.356   5.864   9.228 -0.2119  0.0777 -0.5287
   21CHL1  H22A 1537   1.430   5.945   9.208  1.3092 -1.0296  0.3254
   21CHL1  H22B 1538   1.419   5.773   9.219  1.2034  0.9221  0.3752
   21CHL1   C23 1539   1.275   5.859   9.102  0.0272  0.5886 -0.0966
   21CHL1  H23A 1540   1.338   5.815   9.022 -1.1460 -0.2423 -0.5969
   21CHL1  H23B 1541   1.188   5.790   9.109 -0.2361  0.8669 -0.5983
   21CHL1   C24 1542   1.225   5.997   9.051  0.4597  0.3663  0.0808
   21CHL1  H24A 1543   1.135   6.023   9.110 -1.3663  2.9392 -3.4423
   21CHL1  H24B 1544   1.302   6.076   9.065  1.5733 -1.0313  2.5869
   21CHL1   C25 1545   1.170   5.987   8.907  0.0141 -0.4592 -0.1189
   21CHL1   H25 1546   1.122   5.887   8.904 -1.1068  0.0688 -0.2223
   21CHL1   C26 1547   1.063   6.099   8.874 -0.6000 -0.1777  0.1515
   21CHL1  H26A 1548   1.113   6.198   8.868  1.5722 -1.2704 -0.9493
   21CHL1  H26B 1549   1.015   6.075   8.777 -2.8194  0.5958  0.9836
   21CHL1  H26C 1550   0.993   6.091   8.960  0.4149  1.7933  1.2202
   21CHL1   C27 1551   1.286   5.985   8.808 -0.3363 -0.5304  1.0532
   21CHL1  H27A 1552   1.354   5.899   8.825  3.3255  2.0720  0.7177
   21CHL1  H27B 1553   1.242   5.988   8.706 -1.4668 -0.4559  1.5238
   21CHL1  H27C 1554   1.347   6.077   8.804  0.4536 -1.0876 -0.7750
   22CHL1    C3 1555   5.769   6.478  10.113 -0.8394  0.2522  0.5945
   22CHL1    H3 1556   5.735   6.582  10.095 -0.0829  0.4164  0.0724
   22CHL1    O3 1557   5.784   6.461  10.256 -0.5296  0.2858 -0.5940
   22CHL1   H3' 1558   5.793   6.368  10.279 -0.8603  0.2084 -0.7680
   22CHL1    C4 1559   5.664   6.377  10.061 -0.4273 -0.5772 -0.1845
   22CHL1   H4A 1560   5.688   6.271  10.083  1.4178 -0.5599 -1.8839
   22CHL1   H4B 1561   5.570   6.408  10.113 -0.1457  1.1044 -0.6056
   22CHL1    C5 1562   5.655   6.392   9.908 -0.1106  0.1632 -0.8498
   22CHL1    C6 1563   5.541   6.410   9.850 -0.7957  0.3594  0.4429
   22CHL1    H6 1564   5.450   6.428   9.907  0.1145  1.0569  1.7215
   22CHL1    C7 1565   5.518   6.431   9.704  0.0053  0.6078  0.0963
   22CHL1   H7A 1566   5.428   6.378   9.667  0.9911 -1.3676  0.3892
   22CHL1   H7B 1567   5.502   6.537   9.676 -0.0534  0.6504  0.2925
   22CHL1    C8 1568   5.638   6.380   9.628 -1.2881 -0.2436 -0.0711
   22CHL1    H8 1569   5.653   6.270   9.631  3.1162  0.1412 -0.6157
   22CHL1   C14 1570   5.616   6.418   9.484 -0.6794 -1.0982  0.1046
   22CHL1   H14 1571   5.597   6.527   9.489 -2.0399 -1.3453  0.8047
   22CHL1   C15 1572   5.486   6.380   9.398 -0.0890 -0.0771 -0.3109
   22CHL1  H15A 1573   5.477   6.269   9.397  0.7865 -0.1561 -1.4961
   22CHL1  H15B 1574   5.390   6.429   9.424  0.8897  1.2976  0.8630
   22CHL1   C16 1575   5.534   6.423   9.265 -0.0969 -0.5532  0.5877
   22CHL1  H16A 1576   5.501   6.362   9.178  1.1205  1.2129 -1.2026
   22CHL1  H16B 1577   5.478   6.515   9.238  1.5294  0.4465  0.4829
   22CHL1   C17 1578   5.682   6.464   9.264 -0.3460 -0.2785 -0.2660
   22CHL1   H17 1579   5.685   6.573   9.285  0.7601 -0.2107 -0.7208
   22CHL1   C13 1580   5.739   6.400   9.393  0.2235 -0.1586 -0.5315
   22CHL1   C18 1581   5.769   6.247   9.371  0.3411 -0.0217 -0.1840
   22CHL1  H18A 1582   5.686   6.212   9.306  0.9456  0.3947 -1.2044
   22CHL1  H18B 1583   5.864   6.229   9.316  0.2929 -1.0550  0.0401
   22CHL1  H18C 1584   5.759   6.191   9.467  0.2953  1.8354  0.9301
   22CHL1   C12 1585   5.862   6.464   9.450 -0.2094 -0.4786 -0.5903
   22CHL1  H12A 1586   5.952   6.430   9.395  1.1387  0.8239  0.6838
   22CHL1  H12B 1587   5.866   6.575   9.453  1.3044 -0.4581 -1.7607
   22CHL1   C11 1588   5.892   6.408   9.591  0.7970  0.6228  0.0820
   22CHL1  H11A 1589   5.905   6.299   9.575 -2.2496  0.2842 -0.7344
   22CHL1  H11B 1590   5.982   6.458   9.634  0.2417  0.5179  1.3868
   22CHL1    C9 1591   5.772   6.435   9.685 -0.3068  0.2228 -0.0388
   22CHL1    H9 1592   5.761   6.545   9.681 -2.4040  0.0076 -1.3005
   22CHL1   C10 1593   5.792   6.388   9.835  0.5391  0.0184  0.1124
   22CHL1   C19 1594   5.843   6.242   9.848  0.2034 -0.2468  0.4621
   22CHL1  H19A 1595   5.763   6.182   9.799  1.0543 -2.2875  1.4188
   22CHL1  H19B 1596   5.934   6.211   9.792 -1.3456 -0.0003 -2.4110
   22CHL1  H19C 1597   5.857   6.216   9.955  2.2790  2.2189  0.8725
   22CHL1    C1 1598   5.897   6.490   9.901  0.0692 -0.1881  0.0208
   22CHL1   H1A 1599   5.993   6.467   9.850 -1.8870 -1.3655 -3.5269
   22CHL1   H1B 1600   5.865   6.595   9.890  1.8761  0.3271 -0.7881
   22CHL1    C2 1601   5.904   6.473  10.050  0.2779 -0.1534  0.2637
   22CHL1   H2A 1602   5.965   6.553  10.096 -0.7703 -0.3615  2.1100
   22CHL1   H2B 1603   5.950   6.374  10.071  0.8789  0.6104  2.9005
   22CHL1   C20 1604   5.748   6.451   9.124  0.2677 -0.2431 -0.0671
   22CHL1   H20 1605   5.736   6.345   9.092  0.4330 -0.3676  0.2832
   22CHL1   C21 1606   5.898   6.475   9.139 -1.1294 -0.2239  0.7111
   22CHL1  H21A 1607   5.916   6.575   9.182  1.3831  0.7702 -2.2422
   22CHL1  H21B 1608   5.951   6.476   9.041 -0.9091 -2.8650  0.7310
   22CHL1  H21C 1609   5.946   6.387   9.188 -0.4648 -0.7791 -0.8519
   22CHL1   C22 1610   5.688   6.539   9.013 -0.5572  0.7404  0.6427
   22CHL1  H22A 1611   5.577   6.532   9.020 -0.4935 -3.8070 -0.0071
   22CHL1  H22B 1612   5.727   6.642   9.030  0.7935  0.4096 -0.2690
   22CHL1   C23 1613   5.727   6.512   8.868 -0.3763  0.5579  0.1157
   22CHL1  H23A 1614   5.838   6.502   8.873 -0.5461 -1.2384  0.8159
   22CHL1  H23B 1615   5.685   6.412   8.846  1.7651 -0.9264  2.2983
   22CHL1   C24 1616   5.667   6.617   8.775 -0.4227  0.9046 -0.5956
   22CHL1  H24A 1617   5.557   6.626   8.790 -0.3954  0.1347  0.1713
   22CHL1  H24B 1618   5.709   6.717   8.795 -0.4559  1.0206 -1.1067
   22CHL1   C25 1619   5.665   6.578   8.627 -0.3265  0.4538 -0.0408
   22CHL1   H25 1620   5.763   6.530   8.606  1.2001  2.3028  2.1896
   22CHL1   C26 1621   5.558   6.478   8.590 -0.2301 -0.2916 -0.1098
   22CHL1  H26A 1622   5.572   6.385   8.648  0.4298 -0.1874 -0.0992
   22CHL1  H26B 1623   5.455   6.520   8.595  0.2033  0.7265  0.8960
   22CHL1  H26C 1624   5.568   6.456   8.482  0.1180 -2.7141  0.3766
   22CHL1   C27 1625   5.661   6.711   8.542  0.3581 -0.1524  0.6944
   22CHL1  H27A 1626   5.671   6.689   8.433  0.5270 -0.5903  0.7990
   22CHL1  H27B 1627   5.561   6.759   8.549  0.0248 -0.5326 -0.9892
   22CHL1  H27C 1628   5.744   6.780   8.570  2.4947 -1.5852 -1.6126
   23CHL1    C3 1629   5.484   6.777  10.219 -0.1799 -0.1926  0.4357
   23CHL1    H3 1630   5.529   6.676  10.221  1.2713  0.4423  1.6765
   23CHL1    O3 1631   5.418   6.792  10.343  0.4167 -0.4890 -0.1159
   23CHL1   H3' 1632   5.469   6.741  10.406  0.0554  2.3508  2.7351
   23CHL1    C4 1633   5.590   6.885  10.201  0.2094  0.1955 -0.0064
   23CHL1   H4A 1634   5.558   6.989  10.225 -1.9061 -0.9467  2.5674
   23CHL1   H4B 1635   5.669   6.887  10.279  0.1712 -1.2269  0.0939
   23CHL1    C5 1636   5.652   6.896  10.059 -0.0101  0.5020 -0.6864
   23CHL1    C6 1637   5.786   6.898  10.049 -0.1721  0.3537 -0.2383
   23CHL1    H6 1638   5.842   6.902  10.144  2.3130  0.7457 -1.6234
   23CHL1    C7 1639   5.862   6.895   9.919  0.1048 -0.6356 -0.0742
   23CHL1   H7A 1640   5.942   6.971   9.926  0.0409 -0.5579 -0.1821
   23CHL1   H7B 1641   5.913   6.798   9.900  1.7261  0.5393 -1.9990
   23CHL1    C8 1642   5.775   6.927   9.798  0.3600  0.0270  0.7006
   23CHL1    H8 1643   5.751   7.035   9.799  1.8651  0.4752 -1.9995
   23CHL1   C14 1644   5.849   6.903   9.664 -0.0179 -0.5088 -0.1099
   23CHL1   H14 1645   5.877   6.796   9.661 -0.7712 -0.7859  1.5249
   23CHL1   C15 1646   5.983   6.969   9.645 -0.0399 -0.5733  0.3831
   23CHL1  H15A 1647   5.991   7.077   9.672 -3.0039 -0.5954  1.7416
   23CHL1  H15B 1648   6.066   6.922   9.702 -0.3548 -0.8798  0.5880
   23CHL1   C16 1649   6.012   6.960   9.493  0.1828  0.1536 -0.1753
   23CHL1  H16A 1650   6.031   7.060   9.448 -0.8310  0.3541 -0.1829
   23CHL1  H16B 1651   6.093   6.890   9.465 -0.6180  0.0458 -2.4805
   23CHL1   C17 1652   5.876   6.909   9.433  0.2873 -0.0830  0.0982
   23CHL1   H17 1653   5.895   6.800   9.421 -3.4103 -0.7529 -0.7712
   23CHL1   C13 1654   5.769   6.930   9.536 -0.8881  0.4440  0.5606
   23CHL1   C18 1655   5.728   7.075   9.534 -0.1032  0.2424  0.0342
   23CHL1  H18A 1656   5.818   7.139   9.523  0.0266  0.2351  0.9559
   23CHL1  H18B 1657   5.654   7.110   9.459  0.7870  2.0843 -0.0279
   23CHL1  H18C 1658   5.693   7.111   9.633  1.9899  0.5572  0.7154
   23CHL1   C12 1659   5.648   6.838   9.549  0.2715 -0.0370 -0.4846
   23CHL1  H12A 1660   5.583   6.844   9.459 -0.0729 -1.3060 -0.3430
   23CHL1  H12B 1661   5.698   6.739   9.560  0.4106  0.3089  3.0650
   23CHL1   C11 1662   5.563   6.861   9.670  0.0696 -0.6431  0.6283
   23CHL1  H11A 1663   5.517   6.962   9.658 -0.3975 -1.0324 -1.0248
   23CHL1  H11B 1664   5.485   6.783   9.674 -0.3611 -0.2530 -0.0077
   23CHL1    C9 1665   5.640   6.850   9.804 -0.7200  0.2348  0.1626
   23CHL1    H9 1666   5.677   6.746   9.801 -2.5057 -0.5195  2.0784
   23CHL1   C10 1667   5.557   6.887   9.932 -0.0579 -0.4773 -0.8315
   23CHL1   C19 1668   5.484   7.028   9.916  0.9166 -0.2211  0.5264
   23CHL1  H19A 1669   5.551   7.100   9.864  1.1909 -0.6839  0.2252
   23CHL1  H19B 1670   5.394   7.012   9.853  0.9588  1.0383  0.1228
   23CHL1  H19C 1671   5.445   7.078  10.007  0.4362  0.4512 -0.0325
   23CHL1    C1 1672   5.461   6.768   9.972 -0.3053  0.1559 -0.6568
   23CHL1   H1A 1673   5.377   6.760   9.899 -1.3211 -0.0483  0.5179
   23CHL1   H1B 1674   5.513   6.671   9.977  0.4398  0.5476 -0.6220
   23CHL1    C2 1675   5.386   6.791  10.103 -0.0757  0.3725 -0.5790
   23CHL1   H2A 1676   5.311   6.714  10.131 -0.1684  1.1023  1.3131
   23CHL1   H2B 1677   5.322   6.882  10.105 -0.4494  0.1229  1.3292
   23CHL1   C20 1678   5.849   6.960   9.297 -0.5018 -1.0953 -0.0765
   23CHL1   H20 1679   5.842   7.070   9.297  0.3495 -1.0323 -0.8133
   23CHL1   C21 1680   5.712   6.918   9.232  0.8169  0.2116  0.2107
   23CHL1  H21A 1681   5.694   6.957   9.130 -0.3074 -0.0303  0.2949
   23CHL1  H21B 1682   5.627   6.953   9.295 -0.5612 -2.1942 -0.1779
   23CHL1  H21C 1683   5.707   6.807   9.229  0.9310  0.1930  0.6659
   23CHL1   C22 1684   5.969   6.938   9.196  0.4420  0.0736 -0.1757
   23CHL1  H22A 1685   6.066   6.971   9.239  0.4244 -1.0017  0.7352
   23CHL1  H22B 1686   5.981   6.831   9.169  0.1528  0.2123 -0.8852
   23CHL1   C23 1687   5.960   7.005   9.058 -0.3996  0.3926 -0.5265
   23CHL1  H23A 1688   5.866   6.977   9.008 -0.8567 -1.6730  1.2978
   23CHL1  H23B 1689   5.958   7.110   9.095 -0.7277 -0.7041  2.9157
   23CHL1   C24 1690   6.086   6.985   8.972 -0.3287  0.4997  0.1442
   23CHL1  H24A 1691   6.069   7.052   8.884 -0.3901  0.6822  0.2934
   23CHL1  H24B 1692   6.179   7.014   9.026  0.4593 -0.4297 -0.6877
   23CHL1   C25 1693   6.090   6.841   8.918  0.1031  0.3543  0.2019
   23CHL1   H25 1694   6.058   6.767   8.994  0.7174 -0.9704 -0.7813
   23CHL1   C26 1695   5.985   6.829   8.805 -0.0957 -0.8499 -0.0979
   23CHL1  H26A 1696   5.997   6.905   8.724  0.4769 -1.9388 -1.0638
   23CHL1  H26B 1697   5.983   6.731   8.752 -3.3842 -0.1806 -1.4991
   23CHL1  H26C 1698   5.885   6.841   8.851  0.3291  2.7307  0.1983
   23CHL1   C27 1699   6.223   6.795   8.869  0.1924 -0.3668  0.3887
   23CHL1  H27A 1700   6.304   6.842   8.929  1.0882  2.1936 -2.5395
   23CHL1  H27B 1701   6.232   6.687   8.893  0.9059 -0.3594  0.1939
   23CHL1  H27C 1702   6.238   6.828   8.764  0.9269  0.5423  0.7594
   24CHL1    C3 1703   5.716   2.169  10.065 -0.1751  0.2272 -0.0053
   24CHL1    H3 1704   5.693   2.274  10.038  2.3443  1.0259  0.6826
   24CHL1    O3 1705   5.710   2.153  10.200 -0.1045 -0.1401 -0.2502
   24CHL1   H3' 1706   5.747   2.067  10.219  1.5593  0.4750 -0.5808
   24CHL1    C4 1707   5.605   2.089   9.998  0.3687  0.2706 -0.4866
   24CHL1   H4A 1708   5.609   1.982  10.029 -0.7015  0.7874  1.5889
   24CHL1   H4B 1709   5.518   2.148  10.033  2.8601  2.6088  2.3565
   24CHL1    C5 1710   5.613   2.089   9.844  0.2555 -0.5592 -0.0550
   24CHL1    C6 1711   5.513   2.125   9.758 -0.3179 -1.2791  0.0865
   24CHL1    H6 1712   5.422   2.169   9.801  1.6201 -0.4529  3.7089
   24CHL1    C7 1713   5.524   2.120   9.608 -0.3542 -0.2142  0.8082
   24CHL1   H7A 1714   5.432   2.069   9.574 -0.6050 -0.2132  1.4628
   24CHL1   H7B 1715   5.529   2.226   9.576  2.8043 -0.2178  0.9453
   24CHL1    C8 1716   5.654   2.055   9.558 -0.2925 -0.1530  0.4484
   24CHL1    H8 1717   5.630   1.947   9.558  1.4790 -0.5726  0.3996
   24CHL1   C14 1718   5.671   2.088   9.412 -0.2471  0.5282 -0.5638
   24CHL1   H14 1719   5.690   2.197   9.404 -0.1768  0.6412  0.8873
   24CHL1   C15 1720   5.553   2.051   9.315  0.6140 -0.1994  0.1811
   24CHL1  H15A 1721   5.512   1.950   9.337 -1.4603 -0.0215 -2.3857
   24CHL1  H15B 1722   5.471   2.125   9.322 -2.0175 -2.8844 -0.3461
   24CHL1   C16 1723   5.619   2.064   9.179  0.4298  0.2575 -0.4103
   24CHL1  H16A 1724   5.600   1.976   9.114  0.8865  2.0007 -3.0710
   24CHL1  H16B 1725   5.585   2.156   9.125 -1.4001 -0.7559 -1.0771
   24CHL1   C17 1726   5.768   2.081   9.201  0.6389 -0.5799  0.2876
   24CHL1   H17 1727   5.796   2.187   9.216  0.5549 -0.5755  0.4102
   24CHL1   C13 1728   5.794   2.030   9.345  0.8151 -0.3262  0.1936
   24CHL1   C18 1729   5.787   1.876   9.343  0.4276 -0.0462  0.5427
   24CHL1  H18A 1730   5.771   1.836   9.446  0.5819  0.8953  0.9504
   24CHL1  H18B 1731   5.704   1.849   9.275 -1.5661  1.1606  2.3423
   24CHL1  H18C 1732   5.885   1.833   9.314  0.4583 -0.9583  1.8680
   24CHL1   C12 1733   5.916   2.087   9.416  0.2826 -0.4406 -0.2422
   24CHL1  H12A 1734   6.006   2.036   9.376  0.1074 -1.5458  0.7059
   24CHL1  H12B 1735   5.919   2.198   9.412  0.1015 -0.3990  0.6320
   24CHL1   C11 1736   5.901   2.050   9.563 -0.2670 -0.3180 -0.3996
   24CHL1  H11A 1737   5.907   1.940   9.568  1.0680 -0.4435 -2.8940
   24CHL1  H11B 1738   5.990   2.089   9.618 -0.3137 -1.7225  0.7147
   24CHL1    C9 1739   5.772   2.093   9.641 -0.6361  0.1503  0.5977
   24CHL1    H9 1740   5.776   2.204   9.640 -2.6231  0.2814  2.1307
   24CHL1   C10 1741   5.761   2.055   9.791 -0.5751 -0.1215 -0.1574
   24CHL1   C19 1742   5.779   1.905   9.809 -0.0232  0.7319  1.0226
   24CHL1  H19A 1743   5.727   1.842   9.734  1.8031  0.7165 -0.2938
   24CHL1  H19B 1744   5.889   1.891   9.804 -0.1459 -0.2691  0.9503
   24CHL1  H19C 1745   5.744   1.863   9.906  1.4394 -0.9850  0.8660
   24CHL1    C1 1746   5.878   2.129   9.876 -0.0932  1.4007  0.5595
   24CHL1   H1A 1747   5.974   2.091   9.835 -0.8309 -0.9168  0.7847
   24CHL1   H1B 1748   5.883   2.235   9.845 -0.6342  0.5168 -3.0775
   24CHL1    C2 1749   5.854   2.111  10.025  0.2737  0.1398 -0.1367
   24CHL1   H2A 1750   5.939   2.156  10.081 -1.2408  2.3722  0.5039
   24CHL1   H2B 1751   5.851   2.008  10.066 -1.1079  0.6002  1.0148
   24CHL1   C20 1752   5.861   2.035   9.083  0.7437 -0.1455 -0.2189
   24CHL1   H20 1753   5.847   1.926   9.069  0.4792  0.2242 -3.4398
   24CHL1   C21 1754   6.004   2.059   9.116 -0.9689 -0.0557 -1.0971
   24CHL1  H21A 1755   6.046   1.988   9.190 -1.0341  0.1837 -0.8294
   24CHL1  H21B 1756   6.009   2.161   9.160  1.6052  0.1958 -1.7680
   24CHL1  H21C 1757   6.067   2.057   9.024  1.3640  3.2161  0.2382
   24CHL1   C22 1758   5.813   2.116   8.960 -0.3062  0.2806 -0.1432
   24CHL1  H22A 1759   5.796   2.222   8.990 -1.0205 -0.5854  2.8543
   24CHL1  H22B 1760   5.897   2.120   8.887  0.4343 -0.7109  0.6191
   24CHL1   C23 1761   5.701   2.059   8.876 -0.0392 -0.4191 -0.6382
   24CHL1  H23A 1762   5.700   1.949   8.864 -0.8246 -0.2570 -2.1809
   24CHL1  H23B 1763   5.614   2.092   8.936  0.9791  1.7435 -0.2401
   24CHL1   C24 1764   5.687   2.135   8.746  0.1763  0.2461  0.1407
   24CHL1  H24A 1765   5.680   2.245   8.764 -2.3169  0.1868 -0.1011
   24CHL1  H24B 1766   5.772   2.115   8.676 -0.8810 -0.4263 -0.9975
   24CHL1   C25 1767   5.564   2.101   8.669  0.0713 -0.2958 -0.1623
   24CHL1   H25 1768   5.492   2.061   8.743  1.7670  0.4455  1.9865
   24CHL1   C26 1769   5.516   2.218   8.592 -0.1903 -0.8137  0.3474
   24CHL1  H26A 1770   5.607   2.264   8.548  1.1755 -0.3273  3.4095
   24CHL1  H26B 1771   5.445   2.183   8.515  0.4823  1.1323 -1.2522
   24CHL1  H26C 1772   5.470   2.297   8.656 -0.8922  0.0789 -1.2031
   24CHL1   C27 1773   5.574   1.979   8.575  0.6009 -0.3286  0.1898
   24CHL1  H27A 1774   5.597   1.883   8.626 -0.4631 -1.4404 -1.3351
   24CHL1  H27B 1775   5.482   1.953   8.519  1.0708  0.1929 -0.8538
   24CHL1  H27C 1776   5.649   1.995   8.494 -0.4428 -0.0041 -0.7374
   25CHL1    C3 1777   6.260   4.210  10.376  0.7373 -0.2171  0.0827
   25CHL1    H3 1778   6.168   4.152  10.356  0.1950  0.1794  1.3095
   25CHL1    O3 1779   6.279   4.216  10.513 -0.0194  0.0102 -0.5651
   25CHL1   H3' 1780   6.375   4.214  10.507  0.1809  2.0693  0.8429
   25CHL1    C4 1781   6.371   4.119  10.306  0.6501 -0.0282 -0.9656
   25CHL1   H4A 1782   6.475   4.150  10.330  0.7404 -1.2805  0.3796
   25CHL1   H4B 1783   6.364   4.017  10.349 -1.3104 -0.0269 -1.1871
   25CHL1    C5 1784   6.349   4.124  10.160 -0.3363  0.4590 -0.3951
   25CHL1    C6 1785   6.344   4.010  10.083 -0.1967  0.4590 -0.7267
   25CHL1    H6 1786   6.358   3.911  10.129  2.8083  0.1996 -1.9528
   25CHL1    C7 1787   6.324   3.996   9.937  0.4502  0.1877 -0.1620
   25CHL1   H7A 1788   6.375   3.903   9.901  2.8002  0.0692  2.9980
   25CHL1   H7B 1789   6.215   3.990   9.917  0.4135  2.6144 -0.9366
   25CHL1    C8 1790   6.369   4.125   9.864 -0.1536  0.6411 -0.6342
   25CHL1    H8 1791   6.480   4.123   9.869  0.0086 -3.1830 -1.8598
   25CHL1   C14 1792   6.322   4.115   9.715  0.4180 -0.8617 -0.0626
   25CHL1   H14 1793   6.212   4.108   9.731  0.1779 -0.6151 -1.4993
   25CHL1   C15 1794   6.365   4.001   9.631  0.0180 -0.0315  0.0373
   25CHL1  H15A 1795   6.471   3.968   9.630 -0.0826 -0.7334 -4.1766
   25CHL1  H15B 1796   6.311   3.907   9.654  0.0719 -0.4862 -1.6049
   25CHL1   C16 1797   6.338   4.047   9.486  0.3127 -0.2190 -0.4451
   25CHL1  H16A 1798   6.427   4.022   9.425  0.4845 -3.0310  0.7744
   25CHL1  H16B 1799   6.247   3.993   9.452 -0.2867 -0.1316  0.9528
   25CHL1   C17 1800   6.314   4.203   9.489  0.4086 -0.2055 -0.2960
   25CHL1   H17 1801   6.205   4.223   9.483  0.5161  0.3864 -0.4372
   25CHL1   C13 1802   6.358   4.239   9.635  0.5972 -0.0863 -0.2044
   25CHL1   C18 1803   6.508   4.260   9.639 -0.1439  0.2490  0.0122
   25CHL1  H18A 1804   6.571   4.186   9.585  1.5790  2.4086 -1.0932
   25CHL1  H18B 1805   6.528   4.362   9.599 -0.0104  0.1663 -0.1343
   25CHL1  H18C 1806   6.545   4.272   9.743  0.6440  2.5998 -0.4842
   25CHL1   C12 1807   6.277   4.354   9.701  0.4143 -0.4625  0.5798
   25CHL1  H12A 1808   6.285   4.451   9.649 -0.7760 -0.8291 -0.3350
   25CHL1  H12B 1809   6.169   4.332   9.683  0.9099 -1.8575 -0.9647
   25CHL1   C11 1810   6.308   4.381   9.849 -0.1636  0.1107  0.2681
   25CHL1  H11A 1811   6.410   4.422   9.867  0.2130 -1.4277  1.8415
   25CHL1  H11B 1812   6.229   4.451   9.886 -1.5270 -1.4936  0.5140
   25CHL1    C9 1813   6.301   4.247   9.937  0.4648 -0.6803 -0.5529
   25CHL1    H9 1814   6.195   4.214   9.938  0.3433 -0.5524  2.7834
   25CHL1   C10 1815   6.342   4.265  10.087  0.0646 -0.1409 -0.1076
   25CHL1   C19 1816   6.485   4.326  10.101  0.6791  0.1035  0.1801
   25CHL1  H19A 1817   6.565   4.270  10.049 -1.4115 -1.7857 -1.1559
   25CHL1  H19B 1818   6.492   4.431  10.066  1.0588  0.1593  0.4101
   25CHL1  H19C 1819   6.509   4.341  10.209 -1.3850  1.3908  0.5246
   25CHL1    C1 1820   6.239   4.358  10.168 -0.1517  0.4284  0.9111
   25CHL1   H1A 1821   6.231   4.465  10.138 -1.4937  0.4496  1.2363
   25CHL1   H1B 1822   6.135   4.319  10.157  0.2442 -0.4041  0.0628
   25CHL1    C2 1823   6.247   4.353  10.324 -1.2514  0.6328  0.8692
   25CHL1   H2A 1824   6.170   4.423  10.360  1.2599  3.1984  1.6554
   25CHL1   H2B 1825   6.341   4.407  10.348 -1.2390  1.9886 -1.8145
   25CHL1   C20 1826   6.372   4.279   9.362 -0.1697  0.5680 -0.4069
   25CHL1   H20 1827   6.482   4.265   9.361 -0.2899 -0.5551 -0.1366
   25CHL1   C21 1828   6.351   4.430   9.372  0.4172 -0.2441 -0.2518
   25CHL1  H21A 1829   6.406   4.483   9.292 -0.9046  0.9673 -0.4183
   25CHL1  H21B 1830   6.400   4.463   9.466  0.2903 -2.8903  0.8119
   25CHL1  H21C 1831   6.245   4.464   9.367  0.2867 -0.6834 -0.4769
   25CHL1   C22 1832   6.316   4.222   9.229  0.1447  0.2132 -0.3661
   25CHL1  H22A 1833   6.339   4.114   9.218  1.1871  0.1760  1.6529
   25CHL1  H22B 1834   6.208   4.244   9.235  0.1167 -0.1087  0.4526
   25CHL1   C23 1835   6.372   4.292   9.107 -0.4049 -0.2089 -0.2972
   25CHL1  H23A 1836   6.332   4.395   9.095  0.1127 -0.1205 -1.3859
   25CHL1  H23B 1837   6.483   4.294   9.107 -0.3958  2.0795 -0.5514
   25CHL1   C24 1838   6.319   4.218   8.972 -0.6636 -0.1563  0.4622
   25CHL1  H24A 1839   6.342   4.110   8.980 -1.6533 -0.2487  3.3301
   25CHL1  H24B 1840   6.212   4.221   8.945 -0.1913 -1.6882 -1.8580
   25CHL1   C25 1841   6.390   4.269   8.845  0.2099  0.5198 -0.3289
   25CHL1   H25 1842   6.496   4.267   8.876  0.5779  1.7850 -1.4312
   25CHL1   C26 1843   6.369   4.180   8.725 -0.1370  0.5425 -0.6946
   25CHL1  H26A 1844   6.259   4.186   8.708 -0.3648  0.8235  0.7386
   25CHL1  H26B 1845   6.433   4.197   8.636  3.0819 -0.5475  1.2343
   25CHL1  H26C 1846   6.381   4.071   8.745  1.6006  0.2062 -3.0697
   25CHL1   C27 1847   6.347   4.411   8.800 -0.4602 -0.5656  0.0633
   25CHL1  H27A 1848   6.413   4.453   8.721  0.2557  0.7195  1.2895
   25CHL1  H27B 1849   6.246   4.398   8.755 -1.4084 -1.5744  2.3304
   25CHL1  H27C 1850   6.330   4.471   8.891 -1.0724 -3.5616  2.0669
   26CHL1    C3 1851   6.235   0.856  10.231  0.1966  0.2781  0.3395
   26CHL1    H3 1852   6.254   0.746  10.236 -2.0284 -0.1314  0.9241
   26CHL1    O3 1853   6.217   0.916  10.357 -0.0431  0.5700 -0.1890
   26CHL1   H3' 1854   6.182   1.001  10.329  1.7951  1.8145  1.0534
   26CHL1    C4 1855   6.358   0.926  10.168 -0.7671  0.8820  0.0146
   26CHL1   H4A 1856   6.363   1.034  10.190  0.0084  0.9021 -0.2226
   26CHL1   H4B 1857   6.445   0.880  10.221 -0.4646 -0.7796 -1.7844
   26CHL1    C5 1858   6.365   0.904  10.019 -0.5462  0.6332  0.3310
   26CHL1    C6 1859   6.479   0.868   9.960 -0.3533  0.2779 -0.2473
   26CHL1    H6 1860   6.566   0.847  10.023 -2.4271 -1.0456  2.3967
   26CHL1    C7 1861   6.487   0.841   9.809  0.4261  0.4188 -0.0349
   26CHL1   H7A 1862   6.588   0.874   9.777  1.1979 -0.6775  1.1383
   26CHL1   H7B 1863   6.480   0.735   9.775  0.4133 -0.5336  2.6414
   26CHL1    C8 1864   6.378   0.923   9.726 -0.7587  0.2245  0.0198
   26CHL1    H8 1865   6.399   1.032   9.733 -0.0736  0.0745  0.4087
   26CHL1   C14 1866   6.389   0.887   9.580 -0.2367  0.6237 -0.0193
   26CHL1   H14 1867   6.367   0.779   9.567  1.3221  0.0730  1.5352
   26CHL1   C15 1868   6.533   0.886   9.520 -0.1894 -0.0881 -0.0621
   26CHL1  H15A 1869   6.588   0.979   9.543 -1.2985  1.0936 -1.9272
   26CHL1  H15B 1870   6.591   0.803   9.566  0.6391  1.3688  1.6593
   26CHL1   C16 1871   6.517   0.872   9.368 -0.8763  0.1506 -0.7390
   26CHL1  H16A 1872   6.585   0.946   9.321  0.2238 -0.4119 -0.0725
   26CHL1  H16B 1873   6.555   0.779   9.321 -0.2841  0.6360 -1.2446
   26CHL1   C17 1874   6.362   0.889   9.340 -0.0353  0.1786  0.1035
   26CHL1   H17 1875   6.317   0.788   9.328  1.4368 -0.5736  0.5972
   26CHL1   C13 1876   6.303   0.950   9.473 -0.3129  0.4391  0.0293
   26CHL1   C18 1877   6.330   1.109   9.474  0.1891 -0.1264  0.1500
   26CHL1  H18A 1878   6.335   1.151   9.577 -0.0664 -2.2126  1.0626
   26CHL1  H18B 1879   6.427   1.134   9.427  0.5325  0.3941  1.1200
   26CHL1  H18C 1880   6.244   1.160   9.425  0.0711 -1.3030 -0.9222
   26CHL1   C12 1881   6.160   0.919   9.520  0.1491 -0.0746  0.4230
   26CHL1  H12A 1882   6.082   0.977   9.467 -1.2046  2.7466  4.9181
   26CHL1  H12B 1883   6.139   0.810   9.518  0.7041 -0.2176  1.4601
   26CHL1   C11 1884   6.144   0.955   9.672 -0.3022 -0.0826 -0.4146
   26CHL1  H11A 1885   6.165   1.064   9.674  2.3375 -0.5567  1.0357
   26CHL1  H11B 1886   6.038   0.934   9.697 -0.0835  0.3826  0.9737
   26CHL1    C9 1887   6.246   0.899   9.778  1.0389 -0.1915  0.2443
   26CHL1    H9 1888   6.226   0.790   9.767 -1.2157  0.2085 -0.1123
   26CHL1   C10 1889   6.235   0.929   9.931  0.4783  0.0161  0.0608
   26CHL1   C19 1890   6.207   1.084   9.938  0.1536  0.6738  0.5349
   26CHL1  H19A 1891   6.114   1.097   9.879  1.0374  0.6911 -0.9057
   26CHL1  H19B 1892   6.198   1.132  10.038  2.0066 -0.0897  1.1225
   26CHL1  H19C 1893   6.290   1.135   9.885 -0.6593  2.4322  0.8984
   26CHL1    C1 1894   6.126   0.838  10.001 -0.2189 -0.0799 -0.3473
   26CHL1   H1A 1895   6.035   0.840   9.939  0.2002  1.1253 -0.9471
   26CHL1   H1B 1896   6.161   0.732   9.996 -1.4955 -0.5168 -0.3037
   26CHL1    C2 1897   6.112   0.872  10.145 -0.3501 -0.4150 -0.3589
   26CHL1   H2A 1898   6.035   0.805  10.191 -0.3654 -1.1078 -1.3500
   26CHL1   H2B 1899   6.071   0.975  10.146  0.3217 -0.1351  1.0337
   26CHL1   C20 1900   6.338   0.967   9.204 -0.7001 -0.4062 -0.1193
   26CHL1   H20 1901   6.394   1.062   9.213  0.1145 -0.7538 -1.3835
   26CHL1   C21 1902   6.186   0.998   9.190 -0.1081  0.7572 -0.3741
   26CHL1  H21A 1903   6.162   1.041   9.091 -1.6007  0.1505 -0.3055
   26CHL1  H21B 1904   6.165   1.085   9.256  0.1890  1.4339 -1.1631
   26CHL1  H21C 1905   6.118   0.910   9.194 -0.0137  0.6284 -1.3591
   26CHL1   C22 1906   6.388   0.889   9.080  0.3928 -0.4641  0.0592
   26CHL1  H22A 1907   6.477   0.827   9.105 -1.0953 -2.1536  1.4238
   26CHL1  H22B 1908   6.320   0.810   9.042  0.0720 -1.0574  1.7716
   26CHL1   C23 1909   6.421   0.985   8.969  0.4802 -0.0072 -0.0610
   26CHL1  H23A 1910   6.330   1.029   8.924  0.6487 -0.4692 -0.8596
   26CHL1  H23B 1911   6.476   1.066   9.021 -0.3545  0.2176  0.4983
   26CHL1   C24 1912   6.514   0.930   8.854  0.3340 -0.1851 -0.2368
   26CHL1  H24A 1913   6.552   1.021   8.802  1.5326 -0.0344  0.8661
   26CHL1  H24B 1914   6.599   0.869   8.892 -0.5782 -0.0528  2.1858
   26CHL1   C25 1915   6.435   0.842   8.756 -0.4289  0.4588 -0.3458
   26CHL1   H25 1916   6.368   0.778   8.816 -0.0576 -0.4061 -0.8265
   26CHL1   C26 1917   6.342   0.927   8.666 -0.1613  0.4126 -0.1955
   26CHL1  H26A 1918   6.401   0.996   8.601 -1.4342  0.7129 -1.0721
   26CHL1  H26B 1919   6.267   0.873   8.604  0.1819  0.2840 -0.5038
   26CHL1  H26C 1920   6.281   0.997   8.727 -3.0326 -2.0323 -0.0523
   26CHL1   C27 1921   6.510   0.750   8.670  0.0674  0.6889 -0.8175
   26CHL1  H27A 1922   6.445   0.683   8.610 -2.7390  3.5440 -1.2781
   26CHL1  H27B 1923   6.582   0.799   8.601  0.1462  1.1309 -0.4286
   26CHL1  H27C 1924   6.563   0.682   8.740 -1.8101  1.6816  1.7127
   27CHL1    C3 1925   5.319   3.947  10.293 -0.6279 -0.9815 -0.2276
   27CHL1    H3 1926   5.219   3.992  10.270 -0.3365 -0.1205  0.1287
   27CHL1    O3 1927   5.346   3.945  10.431  0.3142 -0.4426 -0.0419
   27CHL1   H3' 1928   5.430   3.899  10.441  0.0080 -0.9448  0.2245
   27CHL1    C4 1929   5.327   3.804  10.241 -0.1737 -0.4223 -0.1348
   27CHL1   H4A 1930   5.427   3.768  10.273 -1.3990 -2.6577  1.4889
   27CHL1   H4B 1931   5.257   3.734  10.291 -2.3096  0.1033 -2.2133
   27CHL1    C5 1932   5.316   3.801  10.090 -0.2672 -0.0898  0.2344
   27CHL1    C6 1933   5.223   3.728  10.030 -0.2883  0.0188 -0.2056
   27CHL1    H6 1934   5.158   3.665  10.093 -0.7461  1.7688  1.1783
   27CHL1    C7 1935   5.210   3.729   9.877 -0.4933  0.5370  0.0168
   27CHL1   H7A 1936   5.218   3.625   9.839 -0.1104  0.7702 -0.5574
   27CHL1   H7B 1937   5.109   3.772   9.857 -0.5680  0.5284  0.3717
   27CHL1    C8 1938   5.327   3.805   9.803 -0.2022 -0.3576 -0.1913
   27CHL1    H8 1939   5.416   3.740   9.788 -0.1230  0.0599 -1.6717
   27CHL1   C14 1940   5.269   3.832   9.664 -0.2489  0.3364 -0.4456
   27CHL1   H14 1941   5.178   3.893   9.682  0.5491  0.6821  3.2894
   27CHL1   C15 1942   5.227   3.711   9.580 -0.2154 -0.0492 -0.5658
   27CHL1  H15A 1943   5.308   3.637   9.596  1.8834  1.8613 -1.8852
   27CHL1  H15B 1944   5.132   3.669   9.620  0.2132  0.0897  0.6460
   27CHL1   C16 1945   5.224   3.773   9.440 -0.0826 -0.4509 -0.3303
   27CHL1  H16A 1946   5.276   3.720   9.357  0.4988  0.9254 -0.8926
   27CHL1  H16B 1947   5.119   3.777   9.404  0.2895  1.3536 -1.3782
   27CHL1   C17 1948   5.279   3.917   9.452  0.1694  0.4512  0.7886
   27CHL1   H17 1949   5.192   3.981   9.477  1.0587  1.4216  1.4726
   27CHL1   C13 1950   5.359   3.918   9.584  0.3412 -0.1645  0.4030
   27CHL1   C18 1951   5.495   3.853   9.552 -0.6400  0.2738 -0.0286
   27CHL1  H18A 1952   5.548   3.821   9.644  1.1258  1.5959 -0.5157
   27CHL1  H18B 1953   5.481   3.766   9.485  0.4929 -1.0955  1.4461
   27CHL1  H18C 1954   5.563   3.917   9.491 -0.1736 -0.5546 -0.3821
   27CHL1   C12 1955   5.388   4.048   9.654 -0.1815 -0.7293  0.1794
   27CHL1  H12A 1956   5.454   4.108   9.588  1.8397 -1.7397  1.1827
   27CHL1  H12B 1957   5.289   4.097   9.668 -1.3519 -2.5726 -1.1203
   27CHL1   C11 1958   5.453   4.030   9.792  0.2520 -0.0687 -0.0674
   27CHL1  H11A 1959   5.555   3.989   9.778  0.0771 -0.3090 -0.6801
   27CHL1  H11B 1960   5.471   4.128   9.841  1.2628 -1.0369  1.5840
   27CHL1    C9 1961   5.362   3.934   9.874 -0.1290 -0.5358 -0.5846
   27CHL1    H9 1962   5.263   3.985   9.880 -0.2428 -0.8954  2.9995
   27CHL1   C10 1963   5.406   3.906  10.017 -0.1040  0.1400 -0.3883
   27CHL1   C19 1964   5.547   3.850  10.012  0.4885 -0.1503  0.3584
   27CHL1  H19A 1965   5.617   3.924   9.966 -0.5549  1.2860  0.9902
   27CHL1  H19B 1966   5.586   3.839  10.115  1.5009 -0.5213 -0.0579
   27CHL1  H19C 1967   5.553   3.749   9.967  0.4036  0.4801 -1.1328
   27CHL1    C1 1968   5.419   4.040  10.093 -0.4373 -0.7597  0.5357
   27CHL1   H1A 1969   5.505   4.092  10.046  1.0227 -2.7883  0.8219
   27CHL1   H1B 1970   5.328   4.099  10.068 -0.6690 -2.1883 -2.5050
   27CHL1    C2 1971   5.437   4.031  10.241  0.0897  0.2581 -0.5519
   27CHL1   H2A 1972   5.449   4.136  10.274  3.5581  0.2185 -1.2308
   27CHL1   H2B 1973   5.531   3.980  10.270  0.2340  1.0470  0.4172
   27CHL1   C20 1974   5.335   3.970   9.316 -0.0183 -0.1251  0.4923
   27CHL1   H20 1975   5.417   3.901   9.289  0.0387  0.0423  0.2370
   27CHL1   C21 1976   5.410   4.102   9.322  0.4310  0.6276  0.1213
   27CHL1  H21A 1977   5.491   4.090   9.397 -0.7572 -0.2873  1.3147
   27CHL1  H21B 1978   5.349   4.191   9.350  0.7635  0.8278  0.2148
   27CHL1  H21C 1979   5.462   4.143   9.233 -1.4055  1.9825 -0.4100
   27CHL1   C22 1980   5.217   3.974   9.203  0.3177 -0.2058 -0.3560
   27CHL1  H22A 1981   5.171   3.873   9.193 -0.4815  0.2095 -0.9677
   27CHL1  H22B 1982   5.143   4.037   9.256  0.6893 -0.9822  1.1553
   27CHL1   C23 1983   5.256   4.034   9.064  0.2761 -0.0198 -0.4031
   27CHL1  H23A 1984   5.164   4.024   9.003  0.7342 -0.9515 -0.9516
   27CHL1  H23B 1985   5.264   4.145   9.059 -1.4811  0.0793 -2.5676
   27CHL1   C24 1986   5.375   3.965   9.004  0.0800 -0.2930 -0.5665
   27CHL1  H24A 1987   5.463   3.986   9.069 -2.3411  4.1834  1.8131
   27CHL1  H24B 1988   5.336   3.863   8.989  0.8681 -0.6026 -0.5559
   27CHL1   C25 1989   5.401   4.013   8.864 -0.2117 -0.7024  0.5101
   27CHL1   H25 1990   5.448   3.924   8.816  0.2350  0.5068 -1.4033
   27CHL1   C26 1991   5.272   4.047   8.785 -0.5139 -0.1806  0.1224
   27CHL1  H26A 1992   5.313   4.078   8.687  0.1772  3.2152  1.3412
   27CHL1  H26B 1993   5.202   3.960   8.783 -0.4055 -0.2494 -1.0509
   27CHL1  H26C 1994   5.215   4.131   8.832 -1.4645 -1.0665  0.5903
   27CHL1   C27 1995   5.503   4.130   8.866  0.0209  0.5854 -0.0272
   27CHL1  H27A 1996   5.516   4.185   8.769 -0.0984  0.6129 -0.0285
   27CHL1  H27B 1997   5.460   4.198   8.943 -0.0303 -1.0775  1.4682
   27CHL1  H27C 1998   5.600   4.085   8.896  0.9604  0.9915 -2.2393
   28CHL1    C3 1999   4.841   2.381  10.024 -1.1529 -0.5924  0.0460
   28CHL1    H3 2000   4.944   2.417  10.002 -1.5487 -0.0311 -0.9627
   28CHL1    O3 2001   4.833   2.395  10.166 -0.5907  0.4113  0.1794
   28CHL1   H3' 2002   4.916   2.355  10.192 -1.5232 -0.9527  1.2254
   28CHL1    C4 2003   4.736   2.461   9.947 -0.3625  0.5698  0.5048
   28CHL1   H4A 2004   4.632   2.441   9.980 -0.3647 -0.8476 -0.2853
   28CHL1   H4B 2005   4.749   2.570   9.966 -0.0662  0.5308  0.5276
   28CHL1    C5 2006   4.739   2.443   9.798  0.6443 -0.4029 -0.3746
   28CHL1    C6 2007   4.754   2.549   9.722 -1.0720  0.3046  0.1259
   28CHL1    H6 2008   4.774   2.646   9.770  0.0890  0.7683 -1.2333
   28CHL1    C7 2009   4.769   2.537   9.573 -0.1260  0.4544 -0.0764
   28CHL1   H7A 2010   4.715   2.626   9.533 -0.0423  1.4762  1.9561
   28CHL1   H7B 2011   4.875   2.532   9.540 -1.1517 -0.8018 -3.6064
   28CHL1    C8 2012   4.696   2.410   9.526 -0.2458  0.4159 -0.0002
   28CHL1    H8 2013   4.588   2.428   9.545 -0.0840  1.6680 -0.1870
   28CHL1   C14 2014   4.716   2.393   9.380 -0.6410  0.6796  0.5537
   28CHL1   H14 2015   4.826   2.389   9.365 -0.5822  0.6360  0.9856
   28CHL1   C15 2016   4.675   2.506   9.283  0.2407 -0.0990  0.1311
   28CHL1  H15A 2017   4.571   2.530   9.313  0.0779 -0.6094 -0.0068
   28CHL1  H15B 2018   4.745   2.592   9.282  3.7359 -2.6702  1.9253
   28CHL1   C16 2019   4.675   2.441   9.143  0.4934  0.6508 -0.1418
   28CHL1  H16A 2020   4.577   2.471   9.101  0.4211 -0.3660 -0.7338
   28CHL1  H16B 2021   4.755   2.486   9.080  0.9667 -1.3898 -1.0865
   28CHL1   C17 2022   4.692   2.287   9.167  0.1078  0.0732 -0.1040
   28CHL1   H17 2023   4.800   2.264   9.159  0.6542  2.6549 -1.2492
   28CHL1   C13 2024   4.659   2.259   9.322  0.1424 -0.3029 -0.8455
   28CHL1   C18 2025   4.505   2.258   9.347 -0.1556  0.6426  0.3712
   28CHL1  H18A 2026   4.474   2.301   9.445 -2.2383  0.5302 -0.1896
   28CHL1  H18B 2027   4.459   2.337   9.284  1.1879  1.0401 -0.1402
   28CHL1  H18C 2028   4.459   2.161   9.319  0.3812  1.0932 -2.3318
   28CHL1   C12 2029   4.729   2.143   9.387  0.2315 -0.3839 -0.7736
   28CHL1  H12A 2030   4.682   2.047   9.356 -0.1717 -0.5839  0.4304
   28CHL1  H12B 2031   4.837   2.143   9.365  0.1469 -1.3841 -1.2688
   28CHL1   C11 2032   4.714   2.146   9.543  0.0966  0.2854 -0.1080
   28CHL1  H11A 2033   4.608   2.114   9.557  0.1857 -0.0745 -0.2467
   28CHL1  H11B 2034   4.771   2.061   9.586 -1.6155 -0.5731  0.5759
   28CHL1    C9 2035   4.751   2.285   9.603 -0.1269  0.6412 -0.2711
   28CHL1    H9 2036   4.862   2.289   9.605  0.1048 -2.7547 -0.2160
   28CHL1   C10 2037   4.725   2.292   9.762 -0.0676 -0.4816  0.0568
   28CHL1   C19 2038   4.581   2.237   9.796  0.0560 -0.4238 -0.1053
   28CHL1  H19A 2039   4.544   2.259   9.899 -0.3655 -4.0860  0.6593
   28CHL1  H19B 2040   4.518   2.286   9.719  1.6596  0.4859 -0.8943
   28CHL1  H19C 2041   4.584   2.130   9.768  0.9894  0.2803 -2.9956
   28CHL1    C1 2042   4.838   2.211   9.846  0.8387 -0.2351 -0.2109
   28CHL1   H1A 2043   4.817   2.107   9.816 -0.8544  0.0422 -0.0754
   28CHL1   H1B 2044   4.939   2.247   9.815  0.6949 -0.2192 -0.6529
   28CHL1    C2 2045   4.823   2.233   9.993 -0.2044  0.1242 -0.1110
   28CHL1   H2A 2046   4.899   2.168  10.042  0.5422 -0.8058 -2.3638
   28CHL1   H2B 2047   4.730   2.209  10.049 -0.5417  1.7462  0.0631
   28CHL1   C20 2048   4.621   2.204   9.059 -0.1726 -0.4272  0.2227
   28CHL1   H20 2049   4.511   2.213   9.062 -0.1086  0.2047  0.7698
   28CHL1   C21 2050   4.661   2.053   9.084  0.0080  0.3990  0.1435
   28CHL1  H21A 2051   4.583   2.009   9.151 -1.0285  1.7234 -0.1464
   28CHL1  H21B 2052   4.765   2.038   9.120 -0.6484 -3.4116  0.8501
   28CHL1  H21C 2053   4.647   1.994   8.991 -0.2307 -1.0685  1.0796
   28CHL1   C22 2054   4.669   2.240   8.914 -0.2371 -0.1526 -0.1577
   28CHL1  H22A 2055   4.741   2.323   8.928 -2.0420  1.2382  1.4194
   28CHL1  H22B 2056   4.732   2.162   8.866 -0.2698 -0.7669  0.7585
   28CHL1   C23 2057   4.566   2.295   8.815 -0.4574  0.2355  0.5896
   28CHL1  H23A 2058   4.508   2.370   8.872  0.8382  0.6148  1.4583
   28CHL1  H23B 2059   4.623   2.340   8.731 -0.6731  0.8205  0.7569
   28CHL1   C24 2060   4.467   2.189   8.774  0.2192  0.6030 -0.5075
   28CHL1  H24A 2061   4.525   2.100   8.741 -0.1023 -0.0053  0.5243
   28CHL1  H24B 2062   4.401   2.161   8.859 -0.6613  2.5922 -0.4922
   28CHL1   C25 2063   4.377   2.236   8.662  0.8816  0.8012  0.3987
   28CHL1   H25 2064   4.336   2.336   8.687 -1.1706 -0.2118  1.3233
   28CHL1   C26 2065   4.442   2.234   8.522  0.1786 -1.0349  0.2623
   28CHL1  H26A 2066   4.480   2.134   8.495 -2.5168 -2.0200 -0.1740
   28CHL1  H26B 2067   4.374   2.266   8.440 -0.2757 -3.0576 -0.2008
   28CHL1  H26C 2068   4.521   2.312   8.518  0.1486 -0.9632  0.9284
   28CHL1   C27 2069   4.253   2.148   8.650 -0.0553 -0.2483  0.1165
   28CHL1  H27A 2070   4.192   2.155   8.742 -2.6380 -0.1857 -1.4989
   28CHL1  H27B 2071   4.191   2.196   8.571  1.8173 -0.0626 -1.3152
   28CHL1  H27C 2072   4.278   2.041   8.632 -1.3813 -0.8005  1.3726
   29CHL1    C3 2073   1.283   1.108   6.736 -0.1288 -0.2120  0.2769
   29CHL1    H3 2074   1.173   1.099   6.749 -0.2978  1.2847  0.0625
   29CHL1    O3 2075   1.322   1.136   6.603  0.3818  0.6890  0.4032
   29CHL1   H3' 2076   1.415   1.114   6.597  0.3087  0.6629 -0.8955
   29CHL1    C4 2077   1.352   1.220   6.816  0.1303  0.6728 -0.0120
   29CHL1   H4A 2078   1.455   1.228   6.775  0.6169  0.7892  1.1902
   29CHL1   H4B 2079   1.290   1.307   6.785 -0.3203  1.0955  1.9384
   29CHL1    C5 2080   1.344   1.198   6.965  0.2227  0.7407  0.7675
   29CHL1    C6 2081   1.305   1.291   7.046 -0.5777  0.2795 -0.5616
   29CHL1    H6 2082   1.262   1.387   7.016 -1.2046  0.8328  1.8671
   29CHL1    C7 2083   1.302   1.272   7.199  0.2819 -0.1487 -0.1183
   29CHL1   H7A 2084   1.341   1.362   7.251 -0.4511  0.4939 -0.6485
   29CHL1   H7B 2085   1.201   1.239   7.230  0.4393 -0.3704  0.1557
   29CHL1    C8 2086   1.385   1.155   7.247 -0.0775 -0.4277  0.5450
   29CHL1    H8 2087   1.493   1.178   7.250 -0.2777  0.4746  1.0966
   29CHL1   C14 2088   1.344   1.112   7.391  0.1863 -0.8367 -0.3255
   29CHL1   H14 2089   1.235   1.092   7.388  0.0308 -0.5185  1.5691
   29CHL1   C15 2090   1.349   1.223   7.505 -0.1229  0.0720 -0.9092
   29CHL1  H15A 2091   1.447   1.273   7.513 -0.8992  1.4672  0.4916
   29CHL1  H15B 2092   1.284   1.312   7.491  1.1673  1.4156  1.0785
   29CHL1   C16 2093   1.331   1.141   7.633 -0.0100 -0.4035 -0.0027
   29CHL1  H16A 2094   1.411   1.164   7.707  0.9106 -1.5748 -0.5921
   29CHL1  H16B 2095   1.235   1.166   7.684  0.7563  2.0843  0.3747
   29CHL1   C17 2096   1.339   0.993   7.593 -0.3772 -0.1299  0.8547
   29CHL1   H17 2097   1.236   0.957   7.573 -0.2728  0.7513 -1.5415
   29CHL1   C13 2098   1.410   0.991   7.455  0.1662  0.1723 -0.0245
   29CHL1   C18 2099   1.562   1.027   7.473  0.1447  0.8443  0.2012
   29CHL1  H18A 2100   1.607   0.929   7.499 -2.1111 -0.5518 -0.8300
   29CHL1  H18B 2101   1.605   1.077   7.384 -1.5080  1.3580 -0.3487
   29CHL1  H18C 2102   1.578   1.095   7.560 -1.2823  2.5336 -0.7842
   29CHL1   C12 2103   1.385   0.872   7.356  0.6213 -0.5329  0.0221
   29CHL1  H12A 2104   1.431   0.779   7.396 -0.4393 -1.4198 -0.7569
   29CHL1  H12B 2105   1.275   0.860   7.346  0.2649  0.6739  1.9791
   29CHL1   C11 2106   1.435   0.907   7.215 -0.1279  0.6366  0.4341
   29CHL1  H11A 2107   1.545   0.913   7.225 -0.0970 -0.7648  1.1327
   29CHL1  H11B 2108   1.410   0.813   7.161 -1.4853  0.4330  1.3609
   29CHL1    C9 2109   1.362   1.030   7.158  0.4934 -0.1698  0.0011
   29CHL1    H9 2110   1.253   1.007   7.153  0.5987 -0.4311 -2.7739
   29CHL1   C10 2111   1.400   1.053   7.009 -0.8003 -0.9210 -0.3890
   29CHL1   C19 2112   1.555   1.068   6.982  0.1490  0.0426 -0.0412
   29CHL1  H19A 2113   1.610   0.973   6.963  1.2620  0.2428  1.9380
   29CHL1  H19B 2114   1.575   1.125   6.889  0.3123 -0.8512 -0.5679
   29CHL1  H19C 2115   1.598   1.104   7.078 -2.5330 -1.0406  1.7032
   29CHL1    C1 2116   1.336   0.938   6.932 -0.0671 -0.0170  0.0881
   29CHL1   H1A 2117   1.371   0.833   6.943 -1.7873 -0.6142  0.1037
   29CHL1   H1B 2118   1.226   0.943   6.943  0.1303  1.0303  1.8671
   29CHL1    C2 2119   1.340   0.970   6.782  0.5168  0.8831  0.7606
   29CHL1   H2A 2120   1.277   0.895   6.729  0.2996  1.6489 -0.0960
   29CHL1   H2B 2121   1.441   0.959   6.739 -0.4082  0.4949 -1.4537
   29CHL1   C20 2122   1.398   0.902   7.707 -0.1551 -0.8873  0.2408
   29CHL1   H20 2123   1.506   0.920   7.726  0.0101 -0.7798 -0.7455
   29CHL1   C21 2124   1.396   0.761   7.671 -0.0842 -0.3613 -0.1392
   29CHL1  H21A 2125   1.299   0.714   7.646  0.1968 -0.3809 -1.2822
   29CHL1  H21B 2126   1.442   0.704   7.755  1.1318  0.6145 -0.1099
   29CHL1  H21C 2127   1.475   0.748   7.594  1.4385  1.9933  0.9170
   29CHL1   C22 2128   1.340   0.923   7.849  0.2948  0.1861  0.0654
   29CHL1  H22A 2129   1.374   0.835   7.908 -0.8798 -0.4576 -0.1890
   29CHL1  H22B 2130   1.388   1.019   7.880  1.1592 -0.2011 -0.0498
   29CHL1   C23 2131   1.183   0.927   7.858 -0.3093 -0.5968  0.3146
   29CHL1  H23A 2132   1.153   1.022   7.810  1.7761  0.0239  0.1533
   29CHL1  H23B 2133   1.140   0.856   7.784 -1.3476  0.8527 -0.5170
   29CHL1   C24 2134   1.145   0.918   7.998 -0.5899  0.7099 -0.6814
   29CHL1  H24A 2135   1.186   0.821   8.036 -1.9135  0.6703  0.7578
   29CHL1  H24B 2136   1.200   0.996   8.055 -0.2046 -0.6330  0.8895
   29CHL1   C25 2137   0.998   0.915   8.041 -0.6489  0.1920 -0.8142
   29CHL1   H25 2138   0.947   0.832   7.989 -2.5893  0.2294  0.9023
   29CHL1   C26 2139   0.983   0.888   8.191 -0.7329  0.3796 -0.2615
   29CHL1  H26A 2140   1.044   0.955   8.255 -0.1996 -0.4672  0.1322
   29CHL1  H26B 2141   0.882   0.874   8.236 -0.7011 -1.3135 -0.6341
   29CHL1  H26C 2142   1.030   0.788   8.198 -1.5850 -0.0074  0.0842
   29CHL1   C27 2143   0.931   1.046   8.011 -0.1783 -0.8211 -0.3932
   29CHL1  H27A 2144   0.962   1.098   7.918 -0.6778  2.0767  0.9580
   29CHL1  H27B 2145   0.822   1.028   7.996 -0.2820 -1.9117  1.3559
   29CHL1  H27C 2146   0.938   1.122   8.092 -2.7775  0.0692 -0.9063
   30CHL1    C3 2147   5.233   6.114   7.347 -0.2781 -0.7840 -0.2287
   30CHL1    H3 2148   5.252   6.009   7.380  1.8093 -0.5417 -0.5189
   30CHL1    O3 2149   5.239   6.131   7.206 -0.5251  0.0542  0.2991
   30CHL1   H3' 2150   5.237   6.226   7.198 -0.2950  0.0479  0.1404
   30CHL1    C4 2151   5.096   6.167   7.401 -0.1970 -0.0878  0.1101
   30CHL1   H4A 2152   5.097   6.269   7.358 -1.5394 -0.9463 -2.1132
   30CHL1   H4B 2153   5.003   6.128   7.356 -0.0199 -0.2149 -0.1487
   30CHL1    C5 2154   5.091   6.166   7.557 -0.1053  0.1022  0.2838
   30CHL1    C6 2155   5.010   6.088   7.627  0.4881  0.0163  0.4252
   30CHL1    H6 2156   4.936   6.023   7.580 -1.7696  2.8561 -0.2391
   30CHL1    C7 2157   4.999   6.088   7.778 -0.2854 -0.2336  0.0047
   30CHL1   H7A 2158   4.892   6.082   7.809 -0.5611 -3.3154 -1.1931
   30CHL1   H7B 2159   5.052   5.997   7.813  0.4388 -0.1761 -0.8992
   30CHL1    C8 2160   5.071   6.209   7.838  0.1260 -0.3510  0.4162
   30CHL1    H8 2161   4.997   6.291   7.827  0.7449  0.1915  0.2654
   30CHL1   C14 2162   5.101   6.185   7.978  0.2030 -0.4103  0.0780
   30CHL1   H14 2163   5.182   6.111   7.998 -1.2612 -1.6013  1.9297
   30CHL1   C15 2164   4.993   6.127   8.074 -0.0305  0.2445  0.0415
   30CHL1  H15A 2165   4.893   6.169   8.053  0.9416  1.5441 -2.4900
   30CHL1  H15B 2166   4.988   6.017   8.059 -0.0188  0.1478  0.7154
   30CHL1   C16 2167   5.024   6.169   8.214 -0.6495 -0.3856  0.0256
   30CHL1  H16A 2168   4.949   6.242   8.251 -1.2795 -1.3100  0.6108
   30CHL1  H16B 2169   5.028   6.077   8.276 -1.2325 -1.3883 -1.3761
   30CHL1   C17 2170   5.160   6.243   8.200 -0.4209 -0.2923  0.3422
   30CHL1   H17 2171   5.231   6.158   8.205  0.7202  0.6380  0.4462
   30CHL1   C13 2172   5.156   6.306   8.053 -0.5482  0.1554 -0.2008
   30CHL1   C18 2173   5.067   6.431   8.052 -0.3438  0.2570 -0.5040
   30CHL1  H18A 2174   4.974   6.405   8.107  0.9610 -2.5642  0.5196
   30CHL1  H18B 2175   5.108   6.523   8.099  0.4667 -0.2514 -0.1932
   30CHL1  H18C 2176   5.039   6.451   7.947 -3.6051 -2.5591 -0.3392
   30CHL1   C12 2177   5.293   6.324   7.992  0.6294 -0.3319  0.1356
   30CHL1  H12A 2178   5.340   6.415   8.035 -2.1651  0.7167  1.2125
   30CHL1  H12B 2179   5.359   6.238   8.019  1.8856  0.3592 -0.6462
   30CHL1   C11 2180   5.283   6.343   7.841 -0.0263  0.4973  0.5278
   30CHL1  H11A 2181   5.236   6.442   7.822 -2.5961 -0.6441  0.5739
   30CHL1  H11B 2182   5.386   6.348   7.798 -0.7188 -2.1135 -1.6690
   30CHL1    C9 2183   5.205   6.234   7.768 -0.0932 -0.3103 -0.2605
   30CHL1    H9 2184   5.251   6.136   7.793 -1.3277 -0.3248  2.3225
   30CHL1   C10 2185   5.208   6.246   7.613  0.8356  0.0779  0.0125
   30CHL1   C19 2186   5.189   6.398   7.580 -0.9741 -0.2939  0.3952
   30CHL1  H19A 2187   5.185   6.416   7.470  0.4395  0.8783  0.5039
   30CHL1  H19B 2188   5.100   6.449   7.621  0.0895  3.6662 -1.6988
   30CHL1  H19C 2189   5.277   6.461   7.604 -1.8944  0.7051  1.2452
   30CHL1    C1 2190   5.341   6.203   7.554  0.1376  0.3181 -0.4843
   30CHL1   H1A 2191   5.431   6.262   7.582  1.0127 -1.8654  1.7536
   30CHL1   H1B 2192   5.361   6.099   7.590  2.3038  0.4270 -1.2032
   30CHL1    C2 2193   5.349   6.205   7.402 -0.7220  0.3170  0.0069
   30CHL1   H2A 2194   5.447   6.173   7.361 -1.2906  2.0903 -3.0731
   30CHL1   H2B 2195   5.338   6.305   7.354 -1.9386  0.9459  1.5137
   30CHL1   C20 2196   5.206   6.329   8.322  0.5501  0.6026 -0.4598
   30CHL1   H20 2197   5.126   6.397   8.358 -1.1831 -1.4422 -0.2256
   30CHL1   C21 2198   5.327   6.409   8.289 -0.3190 -0.2959  0.2600
   30CHL1  H21A 2199   5.304   6.497   8.225  1.0744 -1.2592 -1.6585
   30CHL1  H21B 2200   5.417   6.358   8.250  0.3188 -0.0089  1.3187
   30CHL1  H21C 2201   5.363   6.449   8.386 -0.6376 -0.0432  0.2748
   30CHL1   C22 2202   5.235   6.247   8.452  0.0601 -0.3518 -0.7085
   30CHL1  H22A 2203   5.274   6.147   8.423  0.6350  0.4569 -2.9104
   30CHL1  H22B 2204   5.317   6.294   8.511  0.6248 -1.5763 -0.4792
   30CHL1   C23 2205   5.108   6.221   8.543 -0.3105 -0.4264  0.5914
   30CHL1  H23A 2206   5.030   6.182   8.474  0.6625  0.6595 -1.1940
   30CHL1  H23B 2207   5.121   6.146   8.624 -1.2825  0.7039  1.8308
   30CHL1   C24 2208   5.065   6.359   8.613 -0.0229  0.3904  0.4675
   30CHL1  H24A 2209   5.148   6.429   8.636 -0.6822  1.2972  0.1501
   30CHL1  H24B 2210   4.992   6.424   8.561 -2.9867 -2.1270  1.1788
   30CHL1   C25 2211   4.962   6.344   8.733  0.1942 -0.7320 -0.1176
   30CHL1   H25 2212   5.008   6.309   8.828 -0.8349 -1.1554  0.2399
   30CHL1   C26 2213   4.883   6.474   8.754  0.7433 -0.5260  0.4774
   30CHL1  H26A 2214   4.828   6.473   8.851  0.7835  2.6696  0.6319
   30CHL1  H26B 2215   4.953   6.560   8.762 -0.0472  0.6235 -3.0579
   30CHL1  H26C 2216   4.815   6.499   8.670 -0.4174 -0.6635  1.3406
   30CHL1   C27 2217   4.856   6.243   8.706  0.2089  0.9278 -0.3071
   30CHL1  H27A 2218   4.903   6.143   8.718  2.0402  1.5078 -2.1955
   30CHL1  H27B 2219   4.773   6.249   8.780 -0.2592  0.1749 -0.7559
   30CHL1  H27C 2220   4.823   6.248   8.600 -0.8182 -3.2576 -0.3717
   31CHL1    C3 2221   3.974   2.409   6.617  0.4492  0.3922 -0.8932
   31CHL1    H3 2222   3.890   2.476   6.647  0.0011  0.3813 -2.0665
   31CHL1    O3 2223   3.960   2.410   6.475 -0.2903  0.2488  0.5097
   31CHL1   H3' 2224   3.883   2.355   6.459  1.1185 -2.1532  1.3690
   31CHL1    C4 2225   4.105   2.467   6.660  0.1804 -0.2854  0.0009
   31CHL1   H4A 2226   4.183   2.403   6.611  0.4430  1.5287 -2.1117
   31CHL1   H4B 2227   4.108   2.565   6.609 -0.5877 -0.8278 -1.1331
   31CHL1    C5 2228   4.125   2.472   6.813 -0.2021  0.2997  0.0534
   31CHL1    C6 2229   4.137   2.592   6.864  0.4650 -0.6199 -0.4043
   31CHL1    H6 2230   4.141   2.689   6.813 -2.2458  0.5100  1.3190
   31CHL1    C7 2231   4.139   2.609   7.012  0.2101  0.4342 -0.6894
   31CHL1   H7A 2232   4.211   2.689   7.041  0.7277  0.2713 -1.4820
   31CHL1   H7B 2233   4.037   2.640   7.046  0.9497  1.7647  0.3959
   31CHL1    C8 2234   4.157   2.484   7.104 -0.3421  0.1023  0.5519
   31CHL1    H8 2235   4.257   2.437   7.092 -1.0147 -1.2467 -0.1791
   31CHL1   C14 2236   4.125   2.506   7.246 -0.3786 -0.1602  0.1272
   31CHL1   H14 2237   4.019   2.537   7.254  0.6590  3.4698  1.6762
   31CHL1   C15 2238   4.216   2.611   7.314  0.3144  0.7111  0.5923
   31CHL1  H15A 2239   4.321   2.594   7.282  0.0876  2.1755 -1.0234
   31CHL1  H15B 2240   4.177   2.712   7.292 -0.8721 -0.1867 -1.8476
   31CHL1   C16 2241   4.192   2.574   7.463 -0.9984 -0.6785 -0.0668
   31CHL1  H16A 2242   4.293   2.582   7.509 -1.6735  2.5124  1.1144
   31CHL1  H16B 2243   4.132   2.654   7.511 -1.7023 -1.2856  0.0750
   31CHL1   C17 2244   4.122   2.437   7.469 -0.2019 -0.1421  0.5900
   31CHL1   H17 2245   4.013   2.455   7.471  0.1319  2.4713 -0.8696
   31CHL1   C13 2246   4.141   2.372   7.330  0.6941 -0.6136  0.0747
   31CHL1   C18 2247   4.278   2.315   7.329 -0.0634  0.2000  0.0361
   31CHL1  H18A 2248   4.317   2.285   7.229  0.2414 -2.3045  0.8178
   31CHL1  H18B 2249   4.355   2.380   7.375  1.8375 -1.1247 -1.1011
   31CHL1  H18C 2250   4.275   2.226   7.396 -3.3803  0.1122 -0.0678
   31CHL1   C12 2251   4.032   2.269   7.279  0.0092 -0.6513  0.0546
   31CHL1  H12A 2252   4.022   2.169   7.327 -0.4516 -0.5535  0.1695
   31CHL1  H12B 2253   3.933   2.313   7.305 -0.6568 -1.8841 -0.3423
   31CHL1   C11 2254   4.043   2.246   7.134 -0.0913  0.2662  0.5374
   31CHL1  H11A 2255   4.132   2.182   7.118 -0.0294 -0.7311  4.0271
   31CHL1  H11B 2256   3.960   2.193   7.083  0.0757 -0.2644  0.8153
   31CHL1    C9 2257   4.066   2.374   7.039 -0.4968  0.1530  0.1543
   31CHL1    H9 2258   3.965   2.421   7.037 -0.7604 -0.4133 -0.8748
   31CHL1   C10 2259   4.094   2.345   6.883  0.0167  0.1704 -0.3144
   31CHL1   C19 2260   4.206   2.245   6.846 -0.2129 -0.0448 -0.6878
   31CHL1  H19A 2261   4.227   2.249   6.737  0.0794  2.6028 -0.5954
   31CHL1  H19B 2262   4.298   2.275   6.900 -1.4454  0.6368  1.1406
   31CHL1  H19C 2263   4.173   2.146   6.884 -0.6328  0.3408 -0.0392
   31CHL1    C1 2264   3.966   2.278   6.830  0.0305  0.0533 -0.6787
   31CHL1   H1A 2265   3.952   2.173   6.865 -2.8196  0.9609  1.2567
   31CHL1   H1B 2266   3.883   2.341   6.870 -0.2218 -0.8557  0.2830
   31CHL1    C2 2267   3.953   2.274   6.677  0.5755 -0.4947 -0.3354
   31CHL1   H2A 2268   3.852   2.237   6.648 -1.0342  2.0524  1.5403
   31CHL1   H2B 2269   4.025   2.200   6.636  0.6053  0.0828 -1.3529
   31CHL1   C20 2270   4.156   2.366   7.606  0.4521 -0.4688  0.5029
   31CHL1   H20 2271   4.266   2.347   7.602  0.2360 -2.0361  1.4258
   31CHL1   C21 2272   4.082   2.230   7.613 -0.7369 -0.0907 -0.0729
   31CHL1  H21A 2273   3.974   2.248   7.631 -0.9706 -1.2731 -0.1944
   31CHL1  H21B 2274   4.101   2.164   7.701  0.8370 -1.3165 -1.2715
   31CHL1  H21C 2275   4.099   2.163   7.526  1.9149  2.6406 -1.8382
   31CHL1   C22 2276   4.121   2.450   7.732 -0.7396 -0.0547  0.3916
   31CHL1  H22A 2277   4.168   2.550   7.721 -1.6912  0.3527 -0.0915
   31CHL1  H22B 2278   4.012   2.471   7.733 -0.7956 -0.2835 -0.2557
   31CHL1   C23 2279   4.167   2.386   7.865  0.2529  0.5060  0.7288
   31CHL1  H23A 2280   4.107   2.294   7.874 -0.9205  1.1731 -0.0572
   31CHL1  H23B 2281   4.276   2.364   7.877  1.1174  2.8582 -1.8169
   31CHL1   C24 2282   4.133   2.472   7.992  0.3054  0.2613  0.7055
   31CHL1  H24A 2283   4.184   2.569   7.974  0.8121 -0.0047  0.7007
   31CHL1  H24B 2284   4.027   2.504   8.007 -0.7472 -2.3864 -0.5597
   31CHL1   C25 2285   4.179   2.407   8.126 -0.1101  0.0556 -0.4585
   31CHL1   H25 2286   4.271   2.350   8.103 -0.1578  0.9914 -3.3953
   31CHL1   C26 2287   4.205   2.512   8.228 -0.2896 -0.1616  0.4104
   31CHL1  H26A 2288   4.252   2.471   8.320  0.9887 -0.8043 -0.5102
   31CHL1  H26B 2289   4.267   2.593   8.187 -0.9731  0.2403  0.1603
   31CHL1  H26C 2290   4.119   2.573   8.265  0.4375  1.6804 -0.8191
   31CHL1   C27 2291   4.064   2.309   8.170 -1.0322  0.0202 -0.2484
   31CHL1  H27A 2292   4.058   2.225   8.097 -1.0209  0.1648 -0.4196
   31CHL1  H27B 2293   3.970   2.365   8.185  0.2030  2.2729 -0.3806
   31CHL1  H27C 2294   4.091   2.272   8.271  1.0696  0.4002 -0.6054
   32CHL1    C3 2295   0.368   1.496   6.906 -0.4986  0.5177  0.4157
   32CHL1    H3 2296   0.275   1.436   6.917 -2.2299  2.9665 -0.0948
   32CHL1    O3 2297   0.362   1.529   6.770  0.3277  0.0192 -0.1025
   32CHL1   H3' 2298   0.446   1.572   6.753 -0.2245  0.9145 -0.6165
   32CHL1    C4 2299   0.368   1.627   6.984 -0.1757 -0.2865 -0.2926
   32CHL1   H4A 2300   0.434   1.706   6.943  0.7348 -0.6013  0.5216
   32CHL1   H4B 2301   0.266   1.667   6.967 -1.4961 -2.7609  1.2266
   32CHL1    C5 2302   0.408   1.617   7.129 -0.6580  0.3605  0.1506
   32CHL1    C6 2303   0.328   1.668   7.229  0.0922 -0.0986  0.1267
   32CHL1    H6 2304   0.239   1.727   7.203  1.4758  1.9216 -0.2732
   32CHL1    C7 2305   0.357   1.653   7.377  0.1133  0.1821 -0.4663
   32CHL1   H7A 2306   0.336   1.753   7.421  3.7493  0.8184  0.1018
   32CHL1   H7B 2307   0.288   1.586   7.432  1.6797 -3.0762 -2.2079
   32CHL1    C8 2308   0.497   1.599   7.412 -0.1017 -0.0083  0.8904
   32CHL1    H8 2309   0.572   1.681   7.401  0.2154 -0.5597 -1.9735
   32CHL1   C14 2310   0.497   1.546   7.553 -0.4816  0.0907 -0.0411
   32CHL1   H14 2311   0.434   1.454   7.547 -1.3199  0.4540  2.0826
   32CHL1   C15 2312   0.440   1.633   7.670  0.1315  0.3146 -0.0678
   32CHL1  H15A 2313   0.477   1.738   7.668 -1.7491  1.0638  1.4095
   32CHL1  H15B 2314   0.329   1.623   7.677  0.2740 -0.6488  1.0719
   32CHL1   C16 2315   0.500   1.568   7.798  0.1571 -0.2447  0.2466
   32CHL1  H16A 2316   0.545   1.642   7.867 -0.5435  0.0618  0.3817
   32CHL1  H16B 2317   0.422   1.506   7.848 -0.6613  0.1678 -0.5081
   32CHL1   C17 2318   0.603   1.461   7.753 -0.5382  0.8667 -0.0464
   32CHL1   H17 2319   0.559   1.360   7.739 -2.5672  1.5027  1.2869
   32CHL1   C13 2320   0.632   1.506   7.605 -1.4814  0.7075  0.3173
   32CHL1   C18 2321   0.745   1.616   7.604 -0.6264 -0.4083  0.9329
   32CHL1  H18A 2322   0.768   1.644   7.499 -0.3630 -1.4242  0.7042
   32CHL1  H18B 2323   0.706   1.705   7.658  0.9643  0.3094  0.9686
   32CHL1  H18C 2324   0.837   1.577   7.655  0.7001  0.2580 -0.8585
   32CHL1   C12 2325   0.679   1.382   7.515  0.6184  0.1762  0.1050
   32CHL1  H12A 2326   0.785   1.353   7.532  0.2781 -1.5311 -0.5453
   32CHL1  H12B 2327   0.607   1.302   7.538  1.2936 -0.7331 -0.8589
   32CHL1   C11 2328   0.670   1.409   7.365  0.0209 -0.0981 -0.1465
   32CHL1  H11A 2329   0.761   1.468   7.341  0.8252 -0.2995  2.1050
   32CHL1  H11B 2330   0.672   1.311   7.313 -0.8521 -0.1169 -0.1639
   32CHL1    C9 2331   0.537   1.487   7.323 -0.2595 -0.4390  0.4907
   32CHL1    H9 2332   0.458   1.409   7.322  2.2794 -3.2468  1.8979
   32CHL1   C10 2333   0.532   1.530   7.168 -0.3586  0.5831  0.5977
   32CHL1   C19 2334   0.658   1.610   7.129  0.1371  0.6522 -0.2013
   32CHL1  H19A 2335   0.747   1.546   7.149 -0.3042  0.4752  1.4084
   32CHL1  H19B 2336   0.657   1.636   7.021  1.2463  0.4769 -0.2697
   32CHL1  H19C 2337   0.669   1.707   7.183  0.3798  0.9239 -0.7362
   32CHL1    C1 2338   0.512   1.396   7.088  0.7738  0.8369  0.4768
   32CHL1   H1A 2339   0.605   1.336   7.098  0.4533  0.1831 -0.3485
   32CHL1   H1B 2340   0.429   1.332   7.124  1.2572 -1.1113 -1.6545
   32CHL1    C2 2341   0.491   1.414   6.933  0.5509  0.1944 -0.4366
   32CHL1   H2A 2342   0.467   1.313   6.893 -1.3599  0.3356  0.2509
   32CHL1   H2B 2343   0.585   1.458   6.893  1.2093 -0.7111  0.0719
   32CHL1   C20 2344   0.721   1.432   7.853  0.1219 -0.4072 -0.1317
   32CHL1   H20 2345   0.787   1.520   7.866 -0.8522  0.0780  1.9323
   32CHL1   C21 2346   0.808   1.315   7.806  0.2112 -0.0699  0.2819
   32CHL1  H21A 2347   0.872   1.278   7.890 -0.9168 -0.1796  1.1167
   32CHL1  H21B 2348   0.874   1.349   7.724 -0.1654  0.4119  0.1770
   32CHL1  H21C 2349   0.744   1.233   7.769 -0.7297  1.1637 -0.9045
   32CHL1   C22 2350   0.660   1.399   7.991 -0.2359 -0.3261 -0.3344
   32CHL1  H22A 2351   0.746   1.383   8.060  0.1828  0.0403 -0.7656
   32CHL1  H22B 2352   0.612   1.491   8.031  1.7530  0.9208 -0.6677
   32CHL1   C23 2353   0.559   1.285   8.001 -1.0223  0.0218 -0.0112
   32CHL1  H23A 2354   0.469   1.323   7.949 -0.8686 -1.0092 -1.0650
   32CHL1  H23B 2355   0.593   1.198   7.939  0.0995  0.4582 -0.0391
   32CHL1   C24 2356   0.518   1.260   8.150  0.0312 -0.4290 -0.0541
   32CHL1  H24A 2357   0.608   1.271   8.214  0.2837 -0.3871 -0.4175
   32CHL1  H24B 2358   0.441   1.336   8.174  2.1320  2.2246 -1.2112
   32CHL1   C25 2359   0.463   1.118   8.171 -0.1083 -0.1317  0.1240
   32CHL1   H25 2360   0.532   1.038   8.137  2.8857  1.8807  1.0440
   32CHL1   C26 2361   0.419   1.099   8.314  0.0869  0.4470 -0.4107
   32CHL1  H26A 2362   0.510   1.094   8.378  0.4463  1.5030 -0.8158
   32CHL1  H26B 2363   0.354   1.184   8.343 -0.9727 -0.2060 -0.8439
   32CHL1  H26C 2364   0.360   1.008   8.335 -0.0730  0.8292  0.9163
   32CHL1   C27 2365   0.331   1.110   8.093 -0.0249 -0.0041 -0.5440
   32CHL1  H27A 2366   0.343   1.121   7.983  1.9113  0.1518 -0.3451
   32CHL1  H27B 2367   0.278   1.017   8.121 -1.5755  0.8741 -0.4238
   32CHL1  H27C 2368   0.262   1.192   8.124  0.9304  0.1252  1.3892
   33CHL1    C3 2369   1.549   1.654   6.689  1.1316 -0.1426  0.3957
   33CHL1    H3 2370   1.446   1.675   6.724  1.6561  0.4774  1.6506
   33CHL1    O3 2371   1.548   1.655   6.546 -0.1706 -0.0270 -0.1382
   33CHL1   H3' 2372   1.639   1.637   6.521 -0.2897 -1.5172  0.4247
   33CHL1    C4 2373   1.642   1.758   6.748 -0.2803  0.0694  0.5468
   33CHL1   H4A 2374   1.740   1.759   6.695 -1.1628 -2.4386 -1.3124
   33CHL1   H4B 2375   1.589   1.852   6.721 -1.3474 -0.4213  0.8785
   33CHL1    C5 2376   1.646   1.741   6.903  0.8949 -0.3979 -0.5822
   33CHL1    C6 2377   1.626   1.853   6.975 -0.1139 -0.8909 -0.5187
   33CHL1    H6 2378   1.619   1.953   6.928  1.4380  0.2629  1.5353
   33CHL1    C7 2379   1.626   1.855   7.125  0.4557 -0.1136  1.1716
   33CHL1   H7A 2380   1.694   1.941   7.144  0.0523 -0.0572  2.4041
   33CHL1   H7B 2381   1.527   1.892   7.160  0.6410  0.8555  0.7112
   33CHL1    C8 2382   1.674   1.723   7.191 -0.5697  0.1976 -0.4436
   33CHL1    H8 2383   1.782   1.711   7.167 -0.9336 -0.9960 -1.5960
   33CHL1   C14 2384   1.646   1.729   7.337 -0.0673 -0.7398 -0.6845
   33CHL1   H14 2385   1.537   1.749   7.345  0.3305  2.1692 -1.4038
   33CHL1   C15 2386   1.705   1.845   7.416 -0.0955  0.4280  0.3315
   33CHL1  H15A 2387   1.812   1.865   7.392  0.1832  0.1250  1.3018
   33CHL1  H15B 2388   1.641   1.933   7.395 -0.4853 -0.5856 -3.5683
   33CHL1   C16 2389   1.694   1.804   7.568  0.5452 -0.1945 -0.0659
   33CHL1  H16A 2390   1.798   1.811   7.606  0.2400  0.9079  0.6206
   33CHL1  H16B 2391   1.644   1.874   7.638  1.5816 -0.5605  1.0805
   33CHL1   C17 2392   1.651   1.653   7.561 -0.0106 -0.6695 -0.6543
   33CHL1   H17 2393   1.540   1.658   7.568  0.0494 -0.7325  0.3715
   33CHL1   C13 2394   1.686   1.611   7.417 -0.0699 -0.0523  0.0851
   33CHL1   C18 2395   1.835   1.586   7.410 -0.0262 -0.5880  0.6306
   33CHL1  H18A 2396   1.865   1.574   7.304  1.3199  1.3242  0.7474
   33CHL1  H18B 2397   1.895   1.667   7.455  1.2297 -0.2725 -1.4924
   33CHL1  H18C 2398   1.871   1.495   7.463  0.3359 -1.1804 -0.5978
   33CHL1   C12 2399   1.607   1.499   7.358 -0.7425  0.4679 -0.1801
   33CHL1  H12A 2400   1.629   1.403   7.410  0.0214  1.0319  0.5585
   33CHL1  H12B 2401   1.500   1.522   7.374 -0.5236 -0.3375  3.2536
   33CHL1   C11 2402   1.633   1.473   7.204  0.1586 -0.2213  0.3478
   33CHL1  H11A 2403   1.736   1.434   7.206  0.1735 -0.1524  1.3473
   33CHL1  H11B 2404   1.560   1.402   7.159 -0.2863 -0.2513  1.0971
   33CHL1    C9 2405   1.614   1.605   7.124 -0.7505  0.4268  0.6421
   33CHL1    H9 2406   1.504   1.621   7.127 -0.7628  0.8263 -0.9345
   33CHL1   C10 2407   1.662   1.603   6.967 -0.1912 -0.8099 -0.1048
   33CHL1   C19 2408   1.809   1.566   6.956  0.1173 -0.1217  0.2797
   33CHL1  H19A 2409   1.838   1.533   6.854 -1.2657  0.4359 -0.3166
   33CHL1  H19B 2410   1.872   1.652   6.986  0.7861 -1.2720  2.3821
   33CHL1  H19C 2411   1.835   1.478   7.018 -1.8156 -0.6002  0.4786
   33CHL1    C1 2412   1.570   1.503   6.899 -0.4172  0.3723  0.0845
   33CHL1   H1A 2413   1.610   1.400   6.914  0.9001  0.7215 -0.8570
   33CHL1   H1B 2414   1.461   1.504   6.916 -0.3914 -1.6499  0.6736
   33CHL1    C2 2415   1.573   1.515   6.740  0.0977  0.2299 -0.2795
   33CHL1   H2A 2416   1.494   1.452   6.695  2.1792 -0.2162 -3.6265
   33CHL1   H2B 2417   1.671   1.474   6.707 -0.5316 -0.3066 -1.5472
   33CHL1   C20 2418   1.702   1.558   7.679  0.1956 -0.5958  0.2636
   33CHL1   H20 2419   1.809   1.532   7.663 -0.0532 -1.5916  0.1470
   33CHL1   C21 2420   1.613   1.431   7.694 -0.0954  0.2181  0.1290
   33CHL1  H21A 2421   1.648   1.354   7.621 -2.5297  0.0490 -0.9640
   33CHL1  H21B 2422   1.510   1.457   7.660  0.9327  3.9829 -0.6090
   33CHL1  H21C 2423   1.621   1.382   7.793  0.9864 -0.4717 -0.2828
   33CHL1   C22 2424   1.703   1.646   7.805 -0.1533 -0.2267 -0.3274
   33CHL1  H22A 2425   1.747   1.588   7.889  3.2028 -0.3321 -1.9783
   33CHL1  H22B 2426   1.768   1.736   7.800  1.1897 -1.1984 -0.7996
   33CHL1   C23 2427   1.562   1.689   7.861 -0.4295 -0.1789 -1.0070
   33CHL1  H23A 2428   1.502   1.742   7.784 -0.7739  1.2797  0.2289
   33CHL1  H23B 2429   1.503   1.601   7.896 -1.5926  0.7900 -0.4851
   33CHL1   C24 2430   1.577   1.784   7.985  0.3790  0.5349 -0.3440
   33CHL1  H24A 2431   1.631   1.733   8.068 -1.0072 -0.3428  0.0680
   33CHL1  H24B 2432   1.618   1.885   7.966  0.1641  0.5823 -0.5582
   33CHL1   C25 2433   1.437   1.802   8.051  0.7507 -0.0213  1.0835
   33CHL1   H25 2434   1.380   1.707   8.046  1.3366 -0.3315 -0.6698
   33CHL1   C26 2435   1.456   1.856   8.192  0.1688  0.4232  0.1685
   33CHL1  H26A 2436   1.533   1.796   8.245 -0.1581  0.6413  0.9048
   33CHL1  H26B 2437   1.499   1.958   8.188  1.5788 -0.0691  1.7011
   33CHL1  H26C 2438   1.357   1.857   8.242  0.7643 -0.6574  1.4361
   33CHL1   C27 2439   1.348   1.891   7.973 -0.3272  0.1148  0.2140
   33CHL1  H27A 2440   1.253   1.889   8.031 -1.7173  0.3241 -1.9408
   33CHL1  H27B 2441   1.387   1.995   7.967 -0.5788  0.3215  1.7850
   33CHL1  H27C 2442   1.331   1.848   7.872  1.0966 -0.2350  0.1046
   34CHL1    C3 2443   3.307   0.299   6.914  0.1681 -0.9443 -0.0757
   34CHL1    H3 2444   3.343   0.404   6.908 -2.3864 -0.0978 -2.4282
   34CHL1    O3 2445   3.304   0.245   6.784 -0.3873  0.9386  0.0443
   34CHL1   H3' 2446   3.262   0.159   6.791  1.4484  0.1112  2.5552
   34CHL1    C4 2447   3.391   0.204   6.997  0.0704  0.4991 -0.1616
   34CHL1   H4A 2448   3.351   0.102   6.979 -1.6783  1.1269  0.0152
   34CHL1   H4B 2449   3.494   0.218   6.957 -0.5490  1.3973 -1.5246
   34CHL1    C5 2450   3.385   0.225   7.143 -0.1653  0.1072 -0.5918
   34CHL1    C6 2451   3.500   0.232   7.211 -0.4789 -0.4152  0.7022
   34CHL1    H6 2452   3.596   0.226   7.157 -0.2608  0.0249  1.0393
   34CHL1    C7 2453   3.506   0.260   7.358 -0.1819 -0.2928  0.0143
   34CHL1   H7A 2454   3.584   0.200   7.408 -0.5737 -2.7805 -2.1196
   34CHL1   H7B 2455   3.538   0.363   7.383 -2.3181  0.5361 -0.4331
   34CHL1    C8 2456   3.366   0.240   7.426  0.4489 -0.5067 -0.1142
   34CHL1    H8 2457   3.345   0.131   7.432 -0.7472 -0.2569  0.3908
   34CHL1   C14 2458   3.368   0.288   7.571  0.4901  0.4357  0.0431
   34CHL1   H14 2459   3.381   0.398   7.562  0.9235  0.4098  0.2974
   34CHL1   C15 2460   3.480   0.239   7.657  0.2284  0.2218  0.4810
   34CHL1  H15A 2461   3.485   0.128   7.657  0.0060  0.2105  0.3670
   34CHL1  H15B 2462   3.581   0.282   7.645  0.2281  0.5893  1.6708
   34CHL1   C16 2463   3.437   0.292   7.798 -0.0167 -0.4338 -0.2968
   34CHL1  H16A 2464   3.455   0.223   7.883  1.1315  0.6612  0.3797
   34CHL1  H16B 2465   3.479   0.392   7.821 -0.0638 -0.7854  1.3971
   34CHL1   C17 2466   3.285   0.332   7.788  0.4274  0.1339 -0.5610
   34CHL1   H17 2467   3.281   0.442   7.775  2.4823  0.3272  0.0151
   34CHL1   C13 2468   3.243   0.275   7.649  0.4812 -0.5702 -0.2298
   34CHL1   C18 2469   3.198   0.130   7.662 -0.4319  0.1258  0.3101
   34CHL1  H18A 2470   3.271   0.076   7.726  1.3308  1.5388 -0.3986
   34CHL1  H18B 2471   3.107   0.123   7.724 -0.8412  2.2839  0.0244
   34CHL1  H18C 2472   3.202   0.077   7.564 -1.8926 -1.7233  1.1951
   34CHL1   C12 2473   3.136   0.352   7.576 -0.0895  0.2216 -0.1061
   34CHL1  H12A 2474   3.042   0.337   7.633 -0.3288  2.0081  0.0281
   34CHL1  H12B 2475   3.176   0.456   7.578 -0.7974  0.5276 -1.0804
   34CHL1   C11 2476   3.119   0.301   7.435  0.2821  0.3539 -0.4460
   34CHL1  H11A 2477   3.077   0.198   7.433 -0.8846  0.8110 -0.0311
   34CHL1  H11B 2478   3.038   0.359   7.387 -0.9842 -2.7354 -2.3693
   34CHL1    C9 2479   3.254   0.302   7.350 -0.7475 -0.0444 -0.5548
   34CHL1    H9 2480   3.288   0.408   7.344 -0.4199  0.1732  3.0590
   34CHL1   C10 2481   3.242   0.241   7.212  0.1618  0.3595 -0.2131
   34CHL1   C19 2482   3.176   0.095   7.218  0.3982 -0.2843  0.0644
   34CHL1  H19A 2483   3.065   0.099   7.226  0.3942 -0.3419  0.0406
   34CHL1  H19B 2484   3.198   0.039   7.124  0.4647 -1.3123  0.6770
   34CHL1  H19C 2485   3.207   0.036   7.306 -1.3323  0.7578  1.4280
   34CHL1    C1 2486   3.165   0.340   7.124  0.1282  0.2076  0.0491
   34CHL1   H1A 2487   3.058   0.343   7.154 -0.3026 -1.5940 -1.1002
   34CHL1   H1B 2488   3.220   0.435   7.142  0.9039 -0.4995  1.6262
   34CHL1    C2 2489   3.161   0.299   6.969  0.3084 -0.8049 -0.1062
   34CHL1   H2A 2490   3.115   0.388   6.921  1.1415  0.9289  2.1303
   34CHL1   H2B 2491   3.108   0.203   6.954  1.0008 -1.8312  3.1885
   34CHL1   C20 2492   3.209   0.305   7.917  0.2553 -0.4286  0.2208
   34CHL1   H20 2493   3.197   0.196   7.933 -0.8082 -0.1979  1.1331
   34CHL1   C21 2494   3.065   0.359   7.918 -0.3144  0.1850  0.8509
   34CHL1  H21A 2495   3.012   0.325   7.826 -0.2022 -2.4427  1.6862
   34CHL1  H21B 2496   3.075   0.470   7.924  3.0077  0.4887 -4.1804
   34CHL1  H21C 2497   3.003   0.326   8.004 -2.0222  2.1746  0.4498
   34CHL1   C22 2498   3.280   0.373   8.034 -0.0414  0.3130 -0.1626
   34CHL1  H22A 2499   3.391   0.364   8.036 -0.1414 -1.0532  1.8001
   34CHL1  H22B 2500   3.260   0.482   8.026 -0.4669  0.3329  1.0590
   34CHL1   C23 2501   3.228   0.327   8.173  0.0071 -0.5898 -0.2609
   34CHL1  H23A 2502   3.241   0.414   8.240  2.2516  2.4555 -4.2106
   34CHL1  H23B 2503   3.118   0.312   8.165  0.0287 -0.5481 -0.6834
   34CHL1   C24 2504   3.284   0.188   8.215  0.7016 -0.4708  0.0796
   34CHL1  H24A 2505   3.288   0.130   8.120  2.3711 -0.6585  0.2466
   34CHL1  H24B 2506   3.386   0.188   8.257  0.6659  0.7621  0.2050
   34CHL1   C25 2507   3.188   0.118   8.319 -0.6554  0.4033 -0.0124
   34CHL1   H25 2508   3.084   0.115   8.281 -0.8516 -1.6148  0.5498
   34CHL1   C26 2509   3.235  -0.028   8.334  0.1462  0.8592  0.4793
   34CHL1  H26A 2510   3.213  -0.085   8.241 -1.1491 -0.9920  1.8501
   34CHL1  H26B 2511   3.341  -0.025   8.366  0.7171  1.2120 -1.3186
   34CHL1  H26C 2512   3.180  -0.091   8.406  0.1287 -0.2168 -0.4520
   34CHL1   C27 2513   3.200   0.190   8.456  0.1515  1.0904  0.2978
   34CHL1  H27A 2514   3.130   0.137   8.525  1.0107  0.5398  0.7552
   34CHL1  H27B 2515   3.303   0.177   8.496 -0.5040  0.4635  1.8707
   34CHL1  H27C 2516   3.176   0.297   8.433  1.3414  0.7798 -2.8369
   35CHL1    C3 2517   4.393   6.690   7.307 -0.2788  0.3857  0.2320
   35CHL1    H3 2518   4.296   6.732   7.343  1.3166  2.4502  2.5152
   35CHL1    O3 2519   4.398   6.714   7.165  0.2945 -0.5267 -0.4419
   35CHL1   H3' 2520   4.418   6.631   7.121 -0.7133 -0.4759 -1.0171
   35CHL1    C4 2521   4.510   6.761   7.370 -0.6989 -0.2302 -0.6172
   35CHL1   H4A 2522   4.611   6.729   7.334  0.3546  2.3765 -0.2440
   35CHL1   H4B 2523   4.498   6.870   7.350 -0.5569 -0.2191 -0.6467
   35CHL1    C5 2524   4.509   6.718   7.519 -0.2458  0.9781 -0.4071
   35CHL1    C6 2525   4.509   6.814   7.617 -0.7516  0.0913 -0.2596
   35CHL1    H6 2526   4.514   6.921   7.593  0.8630  0.2730  0.7318
   35CHL1    C7 2527   4.518   6.781   7.768  0.1292  0.3083  0.2236
   35CHL1   H7A 2528   4.591   6.843   7.823  0.7070 -1.4316  1.4904
   35CHL1   H7B 2529   4.415   6.799   7.806 -0.7029 -0.2873 -1.6312
   35CHL1    C8 2530   4.554   6.629   7.788  0.8585  0.3567  0.1025
   35CHL1    H8 2531   4.657   6.620   7.746 -0.0856  0.8863 -2.5217
   35CHL1   C14 2532   4.535   6.586   7.935 -0.3196  0.2241  0.1823
   35CHL1   H14 2533   4.426   6.598   7.949 -0.4234 -0.2702 -0.1649
   35CHL1   C15 2534   4.612   6.664   8.041 -0.2299  0.0545  0.5422
   35CHL1  H15A 2535   4.712   6.702   8.011  1.0898 -2.7212  1.0798
   35CHL1  H15B 2536   4.561   6.761   8.059 -0.3765  0.1808 -0.4941
   35CHL1   C16 2537   4.605   6.579   8.164 -0.3041 -0.8481 -0.0108
   35CHL1  H16A 2538   4.709   6.580   8.203 -1.5582 -0.0022  3.7281
   35CHL1  H16B 2539   4.537   6.616   8.244 -0.5474  2.9503 -1.7581
   35CHL1   C17 2540   4.552   6.441   8.121 -0.1678  0.2722  0.0473
   35CHL1   H17 2541   4.448   6.450   8.159  0.0360  0.5241  0.5588
   35CHL1   C13 2542   4.557   6.439   7.967 -0.1180 -0.1562 -0.4041
   35CHL1   C18 2543   4.704   6.403   7.915  0.5296 -0.5188  0.2166
   35CHL1  H18A 2544   4.783   6.444   7.981 -0.7291 -0.2241  1.5948
   35CHL1  H18B 2545   4.716   6.294   7.932  0.2255 -0.4756  0.7019
   35CHL1  H18C 2546   4.709   6.424   7.806  2.8691  0.0621  0.3948
   35CHL1   C12 2547   4.442   6.355   7.895 -0.4115  0.5870  0.2010
   35CHL1  H12A 2548   4.473   6.251   7.919  0.2440  0.8959  0.7492
   35CHL1  H12B 2549   4.346   6.376   7.945 -0.8373 -0.5683 -0.1094
   35CHL1   C11 2550   4.442   6.391   7.744  0.1139 -0.3209 -0.3985
   35CHL1  H11A 2551   4.528   6.335   7.701  1.3270  0.0925  1.3535
   35CHL1  H11B 2552   4.349   6.350   7.699 -1.1230 -0.4853  2.1508
   35CHL1    C9 2553   4.463   6.540   7.702  0.1176 -0.3872 -0.4507
   35CHL1    H9 2554   4.367   6.590   7.726  0.8576  1.1359 -0.5756
   35CHL1   C10 2555   4.496   6.564   7.554  0.6129 -0.0782 -0.5452
   35CHL1   C19 2556   4.622   6.485   7.506 -0.0436 -0.4544 -0.3026
   35CHL1  H19A 2557   4.713   6.514   7.562  0.1601 -1.0693 -0.3018
   35CHL1  H19B 2558   4.611   6.375   7.494  0.0072 -0.3326 -1.5641
   35CHL1  H19C 2559   4.648   6.511   7.401 -0.8441 -3.3329 -1.3159
   35CHL1    C1 2560   4.377   6.512   7.472  0.9604  0.2352  0.0922
   35CHL1   H1A 2561   4.362   6.402   7.482  1.9191 -0.2341 -2.8767
   35CHL1   H1B 2562   4.281   6.554   7.508 -0.2992 -1.6725 -0.8898
   35CHL1    C2 2563   4.388   6.541   7.322  0.0387  0.5058 -0.1539
   35CHL1   H2A 2564   4.303   6.489   7.275  0.1660  0.1030  0.0622
   35CHL1   H2B 2565   4.476   6.502   7.266 -0.4778  1.8884 -2.0203
   35CHL1   C20 2566   4.614   6.329   8.201  0.2204  0.5333 -0.1227
   35CHL1   H20 2567   4.723   6.330   8.180  0.1248  1.3020 -0.6353
   35CHL1   C21 2568   4.551   6.196   8.153  0.7970  0.1456 -0.3876
   35CHL1  H21A 2569   4.589   6.108   8.209  0.7183  1.4825  1.8948
   35CHL1  H21B 2570   4.600   6.169   8.056  2.4237 -1.1658  0.7491
   35CHL1  H21C 2571   4.440   6.196   8.150  0.5746 -2.9471  2.2477
   35CHL1   C22 2572   4.594   6.350   8.351  0.3408  0.0133  0.7136
   35CHL1  H22A 2573   4.646   6.261   8.393  2.2139 -0.2052 -1.7743
   35CHL1  H22B 2574   4.650   6.444   8.374 -0.0071 -0.1045  2.1418
   35CHL1   C23 2575   4.452   6.353   8.405 -0.4608 -1.0811 -0.2265
   35CHL1  H23A 2576   4.375   6.378   8.329 -0.4793 -0.2609  0.0482
   35CHL1  H23B 2577   4.429   6.251   8.442 -1.8044 -0.0164  2.0829
   35CHL1   C24 2578   4.430   6.460   8.517  0.0218  0.6644 -0.2668
   35CHL1  H24A 2579   4.468   6.555   8.474 -1.4942  1.1905 -0.5154
   35CHL1  H24B 2580   4.322   6.480   8.532 -0.2590  0.6255 -2.0238
   35CHL1   C25 2581   4.501   6.427   8.652  0.4768  0.1024  0.4242
   35CHL1   H25 2582   4.609   6.412   8.628  0.5917  1.3526  0.0817
   35CHL1   C26 2583   4.488   6.547   8.751 -0.2441 -0.4566  0.1773
   35CHL1  H26A 2584   4.541   6.628   8.696  2.0819 -2.8738 -1.4393
   35CHL1  H26B 2585   4.383   6.572   8.777 -0.8398 -2.4175 -0.2186
   35CHL1  H26C 2586   4.536   6.531   8.850 -2.6977 -0.5495  1.4324
   35CHL1   C27 2587   4.445   6.295   8.710 -0.2802 -0.9051  0.2117
   35CHL1  H27A 2588   4.336   6.297   8.691 -0.5288 -0.7559  1.5993
   35CHL1  H27B 2589   4.467   6.284   8.818 -2.7899 -0.9963  0.7570
   35CHL1  H27C 2590   4.498   6.214   8.655  0.1739 -0.6149  0.2151
   36CHL1    C3 2591   3.395   6.576   7.063 -0.1599 -0.0309 -0.0089
   36CHL1    H3 2592   3.331   6.660   7.097 -0.9666  0.3243 -2.2755
   36CHL1    O3 2593   3.423   6.580   6.926  0.1240  0.0493  0.2065
   36CHL1   H3' 2594   3.458   6.492   6.906 -0.4156  0.2336 -1.8438
   36CHL1    C4 2595   3.522   6.582   7.150 -0.2135 -0.2593  0.0412
   36CHL1   H4A 2596   3.602   6.505   7.138 -1.2144 -2.0653  3.5499
   36CHL1   H4B 2597   3.561   6.681   7.118 -0.8630 -0.4063 -1.2625
   36CHL1    C5 2598   3.486   6.572   7.301 -0.1420 -0.5408 -0.0499
   36CHL1    C6 2599   3.515   6.675   7.390 -0.0155 -0.1190 -0.1870
   36CHL1    H6 2600   3.580   6.758   7.357  0.4812  0.3604  1.8859
   36CHL1    C7 2601   3.481   6.668   7.534  0.3758 -1.1659  0.0042
   36CHL1   H7A 2602   3.563   6.703   7.600 -0.0311 -1.1629  0.5152
   36CHL1   H7B 2603   3.397   6.738   7.553 -0.3117 -2.1846  0.8869
   36CHL1    C8 2604   3.420   6.533   7.580 -0.0429  0.6314  0.0457
   36CHL1    H8 2605   3.494   6.451   7.593  0.0150  0.1264 -2.8884
   36CHL1   C14 2606   3.342   6.552   7.709  0.2636  1.3562  0.3335
   36CHL1   H14 2607   3.251   6.611   7.685 -1.1005 -0.7056  0.1805
   36CHL1   C15 2608   3.412   6.615   7.833  0.1097  0.1727  0.3009
   36CHL1  H15A 2609   3.509   6.562   7.840  0.1924  0.4342  1.3647
   36CHL1  H15B 2610   3.430   6.724   7.816  1.3734  0.2350  1.7586
   36CHL1   C16 2611   3.324   6.573   7.949 -0.2745  0.4158  0.3050
   36CHL1  H16A 2612   3.392   6.532   8.027  1.3568  1.7264 -0.3592
   36CHL1  H16B 2613   3.265   6.654   7.998 -0.5560  0.0331  0.6020
   36CHL1   C17 2614   3.225   6.469   7.899 -0.1242 -0.2293  0.3795
   36CHL1   H17 2615   3.138   6.534   7.875  0.6601  0.9297  0.5590
   36CHL1   C13 2616   3.274   6.420   7.761  0.0893  0.5845 -0.6493
   36CHL1   C18 2617   3.384   6.307   7.789 -0.0781 -0.1024  0.0737
   36CHL1  H18A 2618   3.456   6.330   7.871  1.2275  0.6483 -1.2393
   36CHL1  H18B 2619   3.337   6.208   7.799 -2.5630  0.5592 -3.2697
   36CHL1  H18C 2620   3.457   6.289   7.707 -0.9654 -1.4863 -0.4487
   36CHL1   C12 2621   3.171   6.366   7.665 -0.3244  0.2108 -0.5534
   36CHL1  H12A 2622   3.135   6.267   7.703  0.9528  1.0769  3.4389
   36CHL1  H12B 2623   3.084   6.433   7.649 -0.3343 -0.0236 -1.5573
   36CHL1   C11 2624   3.239   6.353   7.523  0.1456 -0.3117  0.3043
   36CHL1  H11A 2625   3.310   6.267   7.529  0.0441 -0.6555 -2.2631
   36CHL1  H11B 2626   3.161   6.329   7.448  2.9267 -1.9634 -2.2564
   36CHL1    C9 2627   3.326   6.474   7.479 -0.0833 -0.1968 -0.7374
   36CHL1    H9 2628   3.252   6.557   7.467  0.7214  0.8440  1.0429
   36CHL1   C10 2629   3.384   6.454   7.340  0.0513  0.4328 -0.0030
   36CHL1   C19 2630   3.476   6.328   7.345  0.0251  0.0979  0.2065
   36CHL1  H19A 2631   3.416   6.235   7.352 -2.4584  1.6318  0.7128
   36CHL1  H19B 2632   3.538   6.329   7.253 -0.0786  0.8629  0.1357
   36CHL1  H19C 2633   3.537   6.341   7.437 -0.5587 -1.3905  0.8346
   36CHL1    C1 2634   3.277   6.443   7.233  0.1237  0.7315  0.1245
   36CHL1   H1A 2635   3.221   6.348   7.248 -1.0341  1.5508  1.2270
   36CHL1   H1B 2636   3.217   6.536   7.244  0.9814  1.2912  0.0914
   36CHL1    C2 2637   3.328   6.450   7.090  0.1445  0.1093  0.3841
   36CHL1   H2A 2638   3.242   6.447   7.019 -0.1959  2.1625  0.6632
   36CHL1   H2B 2639   3.397   6.367   7.062  1.7662  1.3375  0.6198
   36CHL1   C20 2640   3.171   6.357   7.988  0.6032  0.2538 -0.2147
   36CHL1   H20 2641   3.154   6.268   7.924  2.2380  0.0705 -0.4286
   36CHL1   C21 2642   3.034   6.399   8.049  0.2267 -0.5279  0.2102
   36CHL1  H21A 2643   3.056   6.486   8.114  0.7686 -0.0448 -0.5997
   36CHL1  H21B 2644   2.970   6.320   8.094  0.4303 -2.1989 -2.1976
   36CHL1  H21C 2645   2.972   6.436   7.964 -1.2056 -2.5519  0.2720
   36CHL1   C22 2646   3.257   6.293   8.096  0.6363  0.0790  0.0651
   36CHL1  H22A 2647   3.361   6.290   8.058  0.9108 -0.7031  0.8318
   36CHL1  H22B 2648   3.263   6.377   8.168  0.4505  2.0162 -2.0478
   36CHL1   C23 2649   3.209   6.154   8.142 -0.7571  0.8186  0.5969
   36CHL1  H23A 2650   3.098   6.150   8.152 -1.0092  0.6733 -1.7409
   36CHL1  H23B 2651   3.242   6.082   8.065 -0.7812  1.5174 -0.0780
   36CHL1   C24 2652   3.279   6.116   8.278  0.4034 -0.1240  0.6942
   36CHL1  H24A 2653   3.389   6.120   8.263  0.7375 -3.0181  1.7331
   36CHL1  H24B 2654   3.253   6.201   8.345  1.1095  0.6589 -0.0054
   36CHL1   C25 2655   3.250   5.977   8.335  0.6049  1.2441 -0.9217
   36CHL1   H25 2656   3.139   5.972   8.336  0.2704  5.3924 -0.1855
   36CHL1   C26 2657   3.289   5.868   8.239 -0.5193  0.4861  0.3553
   36CHL1  H26A 2658   3.400   5.863   8.241 -0.2624  3.0518 -1.3981
   36CHL1  H26B 2659   3.244   5.769   8.260  1.9538 -1.3413 -2.2300
   36CHL1  H26C 2660   3.270   5.884   8.130 -0.5585  0.4456  0.3569
   36CHL1   C27 2661   3.299   5.945   8.474 -0.0712 -0.1213  0.0834
   36CHL1  H27A 2662   3.250   5.984   8.565 -0.8199 -1.8005  0.4441
   36CHL1  H27B 2663   3.314   5.835   8.483 -1.8040 -0.5763 -1.6891
   36CHL1  H27C 2664   3.400   5.990   8.469 -0.2661  0.2216 -1.5254
   37CHL1    C3 2665   1.459   2.948   6.656  0.0310 -0.1464  0.6791
   37CHL1    H3 2666   1.452   2.840   6.683 -2.6911  0.0822  1.1421
   37CHL1    O3 2667   1.463   2.955   6.515 -0.0362 -0.7582 -0.1992
   37CHL1   H3' 2668   1.375   2.952   6.478 -0.7249  2.3195  0.8691
   37CHL1    C4 2669   1.323   3.020   6.702  0.3884  0.3722  0.7693
   37CHL1   H4A 2670   1.337   3.123   6.662 -0.4223  1.2147  2.5533
   37CHL1   H4B 2671   1.251   2.962   6.641  0.9636 -1.1364  1.4774
   37CHL1    C5 2672   1.310   3.007   6.847  0.4202  0.2066  0.4490
   37CHL1    C6 2673   1.208   2.951   6.909  0.0340 -0.1979 -0.5692
   37CHL1    H6 2674   1.122   2.921   6.847  1.4196 -1.4616 -2.0037
   37CHL1    C7 2675   1.192   2.945   7.058 -0.1638 -0.0223 -0.5695
   37CHL1   H7A 2676   1.088   2.961   7.096  1.2129  1.2139  3.1517
   37CHL1   H7B 2677   1.215   2.841   7.089 -0.3891 -0.2892 -1.2777
   37CHL1    C8 2678   1.279   3.046   7.141  0.0560  0.5009  0.4546
   37CHL1    H8 2679   1.235   3.145   7.117  0.5935  0.8391  0.8677
   37CHL1   C14 2680   1.284   3.019   7.289  0.1191  0.8705 -0.5901
   37CHL1   H14 2681   1.330   2.918   7.298  0.1946  0.9400 -0.2066
   37CHL1   C15 2682   1.152   3.004   7.364 -0.2132  0.1204 -0.2237
   37CHL1  H15A 2683   1.073   3.073   7.327  1.2535  1.2873 -1.3009
   37CHL1  H15B 2684   1.120   2.899   7.346 -0.9817  0.4404 -0.8059
   37CHL1   C16 2685   1.188   3.031   7.512 -0.3816 -0.0001  0.7537
   37CHL1  H16A 2686   1.123   3.109   7.555  0.7853  0.4792  1.7141
   37CHL1  H16B 2687   1.177   2.937   7.571  2.2711 -1.6171 -1.0628
   37CHL1   C17 2688   1.338   3.063   7.519 -0.0861  0.4994  0.8589
   37CHL1   H17 2689   1.397   2.969   7.520  0.1210  0.6289  0.8626
   37CHL1   C13 2690   1.366   3.111   7.377 -0.4589  0.1053  0.3763
   37CHL1   C18 2691   1.312   3.262   7.373  0.1599 -1.0515 -0.5289
   37CHL1  H18A 2692   1.222   3.273   7.437  0.0395 -1.7443 -0.5788
   37CHL1  H18B 2693   1.395   3.328   7.406 -0.6633 -0.5916  0.6894
   37CHL1  H18C 2694   1.288   3.293   7.269 -2.6412  1.0502  0.6193
   37CHL1   C12 2695   1.511   3.101   7.318  0.4851  0.7276 -0.4148
   37CHL1  H12A 2696   1.573   3.172   7.377 -0.6667 -0.6062  2.5961
   37CHL1  H12B 2697   1.546   2.996   7.324  0.4964  0.7631  0.1081
   37CHL1   C11 2698   1.516   3.136   7.166  0.8016 -0.0974  0.4122
   37CHL1  H11A 2699   1.487   3.242   7.157  0.9533 -0.1795 -1.3551
   37CHL1  H11B 2700   1.623   3.125   7.136  0.5573  1.2844 -1.0665
   37CHL1    C9 2701   1.425   3.041   7.082  0.0644  0.2785  0.0231
   37CHL1    H9 2702   1.460   2.938   7.105 -1.0803 -0.1805 -0.1965
   37CHL1   C10 2703   1.430   3.068   6.924 -0.2929  0.3327 -0.4036
   37CHL1   C19 2704   1.439   3.225   6.897 -0.1576 -0.4190 -0.6079
   37CHL1  H19A 2705   1.361   3.287   6.946  0.2043  0.7402 -1.4412
   37CHL1  H19B 2706   1.536   3.252   6.943 -0.2985 -2.4984  1.0568
   37CHL1  H19C 2707   1.451   3.257   6.791  1.3390 -2.2864 -1.0601
   37CHL1    C1 2708   1.562   3.000   6.862  0.8924 -0.1713 -0.0379
   37CHL1   H1A 2709   1.653   3.027   6.920  1.4306 -3.0487  0.6312
   37CHL1   H1B 2710   1.565   2.891   6.882  0.5749  0.0206  1.1831
   37CHL1    C2 2711   1.575   3.016   6.716 -0.2516 -0.4668 -0.6377
   37CHL1   H2A 2712   1.671   2.980   6.674 -0.0706 -0.3289 -0.3484
   37CHL1   H2B 2713   1.563   3.124   6.689 -0.2038  0.1995  1.7706
   37CHL1   C20 2714   1.386   3.142   7.639  0.4087  0.3305 -0.6743
   37CHL1   H20 2715   1.318   3.230   7.644  0.8091  0.6403 -0.6739
   37CHL1   C21 2716   1.524   3.205   7.633 -0.1276  0.2898 -0.1685
   37CHL1  H21A 2717   1.603   3.128   7.622  0.7309  1.1824 -0.3916
   37CHL1  H21B 2718   1.542   3.246   7.735 -1.3739 -0.3850  0.3450
   37CHL1  H21C 2719   1.524   3.287   7.558 -0.9279  0.1844 -0.2935
   37CHL1   C22 2720   1.352   3.052   7.766  0.3204 -0.4173  0.5391
   37CHL1  H22A 2721   1.242   3.039   7.765  0.1373  0.6314  2.2621
   37CHL1  H22B 2722   1.408   2.956   7.767 -0.7887 -1.0792  0.6329
   37CHL1   C23 2723   1.391   3.123   7.900 -0.1414  0.2689  0.3208
   37CHL1  H23A 2724   1.501   3.142   7.900  0.5606 -2.6382 -3.7133
   37CHL1  H23B 2725   1.328   3.215   7.895 -1.9964 -0.9991 -0.9148
   37CHL1   C24 2726   1.361   3.032   8.024 -0.4733  0.5284  0.2086
   37CHL1  H24A 2727   1.255   3.055   8.051 -0.7515  2.7976 -2.3968
   37CHL1  H24B 2728   1.390   2.925   8.020 -2.0093  0.1015 -0.2672
   37CHL1   C25 2729   1.446   3.085   8.141 -0.4006 -0.0465 -0.2067
   37CHL1   H25 2730   1.552   3.077   8.110 -0.7086 -2.7538 -0.8435
   37CHL1   C26 2731   1.419   3.232   8.179 -0.2550 -0.5743  0.3511
   37CHL1  H26A 2732   1.501   3.275   8.240  0.3693  1.5307 -1.8139
   37CHL1  H26B 2733   1.415   3.300   8.091 -1.0950 -1.3208 -0.1995
   37CHL1  H26C 2734   1.323   3.257   8.229 -1.0350  1.1774 -1.8580
   37CHL1   C27 2735   1.437   3.003   8.267 -0.5914  0.9439  0.0200
   37CHL1  H27A 2736   1.329   2.981   8.279 -0.6127  0.0863 -1.4215
   37CHL1  H27B 2737   1.499   2.911   8.253  0.1759  1.3475  0.6719
   37CHL1  H27C 2738   1.477   3.071   8.345  0.9985  0.3922 -0.2648
   38CHL1    C3 2739   6.466   5.141   6.635  0.3744  0.2816  0.3627
   38CHL1    H3 2740   6.540   5.057   6.634  3.0553  2.3989 -3.1736
   38CHL1    O3 2741   6.471   5.180   6.498 -0.7915 -0.2374  0.1592
   38CHL1   H3' 2742   6.405   5.249   6.486 -1.2300 -0.6759  0.0486
   38CHL1    C4 2743   6.324   5.088   6.673 -0.3945 -0.0496 -0.1210
   38CHL1   H4A 2744   6.254   5.168   6.642 -0.8452 -1.5089 -3.2973
   38CHL1   H4B 2745   6.306   5.001   6.606  0.1538  0.8729 -1.5049
   38CHL1    C5 2746   6.304   5.054   6.820  0.4429  0.0352  0.0555
   38CHL1    C6 2747   6.251   4.933   6.856  0.4082 -0.1811 -0.3413
   38CHL1    H6 2748   6.244   4.853   6.782  0.6058 -0.7560  0.2525
   38CHL1    C7 2749   6.240   4.896   6.996 -0.1115  0.2640 -0.2563
   38CHL1   H7A 2750   6.143   4.845   7.014  0.0998  0.4817  1.7694
   38CHL1   H7B 2751   6.316   4.819   7.023 -0.0647  0.2772 -0.3538
   38CHL1    C8 2752   6.239   5.020   7.092 -0.2815 -0.4936 -0.2266
   38CHL1    H8 2753   6.139   5.069   7.089 -1.0439 -2.0558 -1.2289
   38CHL1   C14 2754   6.269   4.963   7.238 -0.1198 -0.4811  0.2189
   38CHL1   H14 2755   6.372   4.921   7.231 -0.2252 -0.9486  1.3241
   38CHL1   C15 2756   6.185   4.845   7.300 -0.0172 -0.7292 -0.1329
   38CHL1  H15A 2757   6.082   4.876   7.273  0.3861 -0.2463 -1.1913
   38CHL1  H15B 2758   6.205   4.745   7.256 -0.8207 -0.8771 -0.1761
   38CHL1   C16 2759   6.234   4.852   7.449  0.1854  0.5278 -0.5991
   38CHL1  H16A 2760   6.136   4.861   7.501  1.0324 -1.4717  1.5461
   38CHL1  H16B 2761   6.286   4.767   7.499  0.2401  2.8133  3.7898
   38CHL1   C17 2762   6.315   4.984   7.467 -0.4147  0.9602  0.0811
   38CHL1   H17 2763   6.424   4.960   7.463 -0.5623  0.4124 -2.3410
   38CHL1   C13 2764   6.288   5.069   7.347  0.5635  0.3416  0.8933
   38CHL1   C18 2765   6.155   5.146   7.371 -1.3187 -0.4031  0.7432
   38CHL1  H18A 2766   6.123   5.199   7.279 -1.1016 -1.3469  0.1083
   38CHL1  H18B 2767   6.066   5.089   7.406 -1.7042  0.4862  1.2547
   38CHL1  H18C 2768   6.182   5.222   7.448 -0.2505 -0.9469  0.9206
   38CHL1   C12 2769   6.400   5.168   7.302 -0.0208 -0.2294  0.6341
   38CHL1  H12A 2770   6.420   5.260   7.362 -1.0661  0.8098 -0.5473
   38CHL1  H12B 2771   6.484   5.096   7.300 -0.7923 -1.1379  0.6384
   38CHL1   C11 2772   6.374   5.222   7.165 -0.2882 -0.4031 -0.1828
   38CHL1  H11A 2773   6.288   5.292   7.161 -0.1319 -0.2231 -0.4142
   38CHL1  H11B 2774   6.468   5.276   7.140  0.0269 -0.4431  0.8661
   38CHL1    C9 2775   6.350   5.117   7.054 -0.6702  0.7168  0.3236
   38CHL1    H9 2776   6.443   5.057   7.058 -2.2248 -1.9863 -1.4025
   38CHL1   C10 2777   6.346   5.168   6.912 -0.1416 -0.4660 -0.3351
   38CHL1   C19 2778   6.234   5.281   6.902  0.0013 -0.0341  0.2129
   38CHL1  H19A 2779   6.245   5.324   6.800 -1.7897  0.3738  0.1476
   38CHL1  H19B 2780   6.133   5.240   6.925 -0.6707  1.8871  0.9236
   38CHL1  H19C 2781   6.257   5.361   6.976  1.2124  1.2273 -1.4499
   38CHL1    C1 2782   6.480   5.232   6.871 -0.6263  0.2423  0.0597
   38CHL1   H1A 2783   6.497   5.329   6.922  1.7456 -0.4080  0.6789
   38CHL1   H1B 2784   6.559   5.158   6.900 -0.6762  0.8681  1.9535
   38CHL1    C2 2785   6.501   5.262   6.726  0.2149  0.2083  0.1968
   38CHL1   H2A 2786   6.606   5.292   6.702  1.1328 -2.5777  0.3772
   38CHL1   H2B 2787   6.429   5.341   6.698  0.4210 -0.2557 -1.7840
   38CHL1   C20 2788   6.287   5.035   7.610  0.7320 -0.3859  0.4300
   38CHL1   H20 2789   6.185   5.079   7.615  0.5520 -0.9004  1.7731
   38CHL1   C21 2790   6.385   5.155   7.633 -0.1471 -0.4549 -1.0890
   38CHL1  H21A 2791   6.366   5.236   7.559 -1.2035 -0.3965 -0.7734
   38CHL1  H21B 2792   6.487   5.113   7.623  0.2786  0.5493 -1.0752
   38CHL1  H21C 2793   6.380   5.205   7.732 -0.2584  0.3594 -1.4939
   38CHL1   C22 2794   6.283   4.928   7.718  0.1373 -0.2424 -0.7143
   38CHL1  H22A 2795   6.181   4.886   7.732  0.9579 -1.6449  1.6646
   38CHL1  H22B 2796   6.362   4.850   7.711  1.8428  1.1385  1.5831
   38CHL1   C23 2797   6.278   4.997   7.858 -0.7495  0.1208  0.8470
   38CHL1  H23A 2798   6.383   5.027   7.880 -0.0828 -1.4566 -0.0139
   38CHL1  H23B 2799   6.212   5.086   7.857 -1.2513 -0.2398 -0.5522
   38CHL1   C24 2800   6.246   4.898   7.969  0.8518  0.6936 -0.2972
   38CHL1  H24A 2801   6.148   4.846   7.972  2.4325 -2.4758  2.9502
   38CHL1  H24B 2802   6.322   4.817   7.965  0.6706  0.3914  1.5471
   38CHL1   C25 2803   6.248   4.967   8.110  0.4236 -0.1541  0.1822
   38CHL1   H25 2804   6.332   5.040   8.106  0.5605 -0.2779  0.7388
   38CHL1   C26 2805   6.127   5.058   8.133 -0.2204  0.2646  0.0310
   38CHL1  H26A 2806   6.159   5.138   8.203  0.7044  0.7377 -0.8999
   38CHL1  H26B 2807   6.091   5.097   8.036  1.7761 -0.5826 -1.1117
   38CHL1  H26C 2808   6.048   5.000   8.185  0.1043 -1.1898 -1.0368
   38CHL1   C27 2809   6.255   4.870   8.225  0.6651 -1.0515  0.7316
   38CHL1  H27A 2810   6.354   4.819   8.232  1.5592  0.2186 -1.5213
   38CHL1  H27B 2811   6.230   4.915   8.324 -1.9832  1.1420 -0.7864
   38CHL1  H27C 2812   6.169   4.806   8.197  0.6693 -0.2757 -1.2405
   39CHL1    C3 2813   4.043   1.883   6.762 -0.5744  0.2854  0.1518
   39CHL1    H3 2814   4.038   1.986   6.804 -0.5312 -0.7911  3.0412
   39CHL1    O3 2815   3.997   1.883   6.625  0.1765  0.5698 -0.1013
   39CHL1   H3' 2816   3.951   1.802   6.604  3.6785 -0.9346 -3.0563
   39CHL1    C4 2817   4.187   1.828   6.766  0.2863  0.0033 -0.4326
   39CHL1   H4A 2818   4.191   1.720   6.739  0.0115 -0.6747  2.0104
   39CHL1   H4B 2819   4.247   1.888   6.694 -1.0527  1.1132 -0.6487
   39CHL1    C5 2820   4.246   1.845   6.901  0.1925 -0.2193  0.0453
   39CHL1    C6 2821   4.347   1.928   6.908  0.0700 -0.5779 -0.6644
   39CHL1    H6 2822   4.382   1.966   6.811 -0.9823  2.6915  0.1305
   39CHL1    C7 2823   4.410   1.963   7.037  0.6045  0.1451 -0.0768
   39CHL1   H7A 2824   4.521   1.967   7.042  0.6847 -0.6509 -1.0302
   39CHL1   H7B 2825   4.356   2.057   7.064 -1.4177 -1.5531  2.3305
   39CHL1    C8 2826   4.364   1.869   7.155 -0.7623 -0.4861 -0.4145
   39CHL1    H8 2827   4.423   1.775   7.151  1.7427  0.8427  1.7506
   39CHL1   C14 2828   4.396   1.932   7.292  0.3088  0.0070 -0.7046
   39CHL1   H14 2829   4.342   2.029   7.288  0.7539  0.2094 -2.1893
   39CHL1   C15 2830   4.547   1.966   7.332  0.8561 -0.1112 -0.8129
   39CHL1  H15A 2831   4.603   1.873   7.310 -0.3144 -0.9611 -0.3016
   39CHL1  H15B 2832   4.601   2.045   7.275 -0.3311  0.4570 -1.1778
   39CHL1   C16 2833   4.537   1.993   7.486 -0.0724  0.3051 -0.0812
   39CHL1  H16A 2834   4.606   1.929   7.545  0.0004  0.4571 -0.0035
   39CHL1  H16B 2835   4.549   2.102   7.502  2.1512  0.1542 -0.4451
   39CHL1   C17 2836   4.389   1.958   7.525 -0.7163 -0.1323 -0.2579
   39CHL1   H17 2837   4.330   2.052   7.519 -0.5500  0.1493  1.6995
   39CHL1   C13 2838   4.335   1.863   7.417 -0.1809 -0.1305 -0.1203
   39CHL1   C18 2839   4.409   1.722   7.442  0.0637 -0.4125  0.2272
   39CHL1  H18A 2840   4.520   1.732   7.443  0.0921 -0.6356 -0.3224
   39CHL1  H18B 2841   4.363   1.674   7.531  0.5910  0.0557  0.7620
   39CHL1  H18C 2842   4.381   1.653   7.360  0.5868 -2.4182  1.6589
   39CHL1   C12 2843   4.187   1.841   7.401  0.1414  0.6474  0.5332
   39CHL1  H12A 2844   4.159   1.766   7.479  0.5136  0.5377  0.5622
   39CHL1  H12B 2845   4.126   1.932   7.414 -2.4884 -0.6982 -1.4565
   39CHL1   C11 2846   4.149   1.766   7.274 -0.2811  0.3412 -0.1096
   39CHL1  H11A 2847   4.183   1.660   7.275  0.1285  0.3380  4.2390
   39CHL1  H11B 2848   4.038   1.770   7.266 -0.1852 -0.0292 -2.4377
   39CHL1    C9 2849   4.215   1.846   7.147  0.3195  0.6957 -0.8409
   39CHL1    H9 2850   4.175   1.949   7.155 -2.0534 -0.2224  0.0108
   39CHL1   C10 2851   4.166   1.782   7.017 -0.3018 -0.3231 -0.1215
   39CHL1   C19 2852   4.198   1.632   7.009  0.0946  0.4863  0.5279
   39CHL1  H19A 2853   4.149   1.582   7.096 -0.2373 -1.5333 -0.7394
   39CHL1  H19B 2854   4.161   1.589   6.913 -0.5068  1.5712  0.2584
   39CHL1  H19C 2855   4.309   1.631   7.017  0.1062  0.7785  0.4083
   39CHL1    C1 2856   4.007   1.811   7.003 -0.2443  0.2500  0.7507
   39CHL1   H1A 2857   3.957   1.747   7.078 -0.1516  0.4822  1.0130
   39CHL1   H1B 2858   3.987   1.917   7.029  1.2193  1.0993 -1.2350
   39CHL1    C2 2859   3.956   1.799   6.855 -0.0857 -0.3735 -0.3416
   39CHL1   H2A 2860   3.853   1.839   6.858  0.7669  1.9699 -0.0565
   39CHL1   H2B 2861   3.956   1.693   6.821 -0.2937 -0.1212 -1.1302
   39CHL1   C20 2862   4.395   1.925   7.677  0.2588 -0.3928 -0.4156
   39CHL1   H20 2863   4.457   1.835   7.692  1.0606 -0.2893 -2.7001
   39CHL1   C21 2864   4.257   1.876   7.730 -0.1609  0.2759  0.0643
   39CHL1  H21A 2865   4.232   1.779   7.683 -2.6722  0.2972  1.2027
   39CHL1  H21B 2866   4.179   1.948   7.696  1.3553  1.6394 -0.7052
   39CHL1  H21C 2867   4.251   1.850   7.838  0.4858 -0.5829 -0.0921
   39CHL1   C22 2868   4.439   2.048   7.763 -0.0385 -0.4869 -0.4952
   39CHL1  H22A 2869   4.545   2.077   7.744 -0.7117  0.6886 -2.8148
   39CHL1  H22B 2870   4.384   2.138   7.729 -0.2567 -0.4246  0.0136
   39CHL1   C23 2871   4.418   2.035   7.913  0.2392  0.0787 -0.3243
   39CHL1  H23A 2872   4.320   2.073   7.947 -0.7229 -2.5810  0.1583
   39CHL1  H23B 2873   4.420   1.927   7.941 -0.5198 -0.4319 -2.0988
   39CHL1   C24 2874   4.523   2.103   7.995 -0.5712 -0.5621 -0.3331
   39CHL1  H24A 2875   4.627   2.074   7.968 -0.4958  0.9681 -1.8938
   39CHL1  H24B 2876   4.514   2.210   7.965 -1.6409 -0.8067 -0.9274
   39CHL1   C25 2877   4.510   2.076   8.146 -0.0937  0.5071  0.7484
   39CHL1   H25 2878   4.517   1.967   8.165  0.3950  0.2048 -0.9868
   39CHL1   C26 2879   4.633   2.116   8.226  0.3128 -0.4856  0.0098
   39CHL1  H26A 2880   4.638   2.072   8.328 -0.2049  1.4907  0.9317
   39CHL1  H26B 2881   4.734   2.094   8.185  1.7384  0.7130  2.5970
   39CHL1  H26C 2882   4.644   2.226   8.237  0.5798 -0.2056 -2.5829
   39CHL1   C27 2883   4.374   2.123   8.214 -0.1298 -0.3327  0.5672
   39CHL1  H27A 2884   4.344   2.082   8.313 -0.3641  0.1686  0.7079
   39CHL1  H27B 2885   4.389   2.233   8.211 -0.1223 -0.3519 -0.9274
   39CHL1  H27C 2886   4.291   2.085   8.151 -1.2283 -0.7473  2.2018
   40CHL1    C3 2887   0.361   0.645   6.885  0.3423  0.4189 -0.1521
   40CHL1    H3 2888   0.251   0.636   6.876  0.2155  1.3192  0.4386
   40CHL1    O3 2889   0.422   0.572   6.779  0.4615  0.0684  0.2377
   40CHL1   H3' 2890   0.515   0.598   6.784  0.1723  1.0205  0.7951
   40CHL1    C4 2891   0.418   0.783   6.875  0.5864 -0.5282  0.0232
   40CHL1   H4A 2892   0.527   0.787   6.893  0.6017  0.7202 -0.2733
   40CHL1   H4B 2893   0.403   0.825   6.773  1.1993 -1.6281 -0.5328
   40CHL1    C5 2894   0.355   0.872   6.982 -0.1216 -0.7349 -0.5711
   40CHL1    C6 2895   0.271   0.973   6.953 -0.4369 -0.6611  0.1480
   40CHL1    H6 2896   0.255   1.003   6.849 -0.9575 -1.7629 -0.1065
   40CHL1    C7 2897   0.217   1.062   7.057 -0.8051  0.4333 -0.5936
   40CHL1   H7A 2898   0.216   1.166   7.018  0.0680  0.5895 -0.2204
   40CHL1   H7B 2899   0.115   1.018   7.061 -0.8847  0.6329 -0.4052
   40CHL1    C8 2900   0.276   1.052   7.201 -0.7475  0.2397  0.4574
   40CHL1    H8 2901   0.372   1.107   7.205 -0.9564  0.9344 -2.3971
   40CHL1   C14 2902   0.180   1.120   7.299  0.1637  0.5625 -0.4022
   40CHL1   H14 2903   0.098   1.046   7.289  0.4420  0.1756  0.1413
   40CHL1   C15 2904   0.145   1.263   7.266 -0.7362 -0.0604  0.0184
   40CHL1  H15A 2905   0.242   1.318   7.265 -0.4814 -0.3551  2.2388
   40CHL1  H15B 2906   0.081   1.267   7.176  0.1682 -2.2007 -0.7998
   40CHL1   C16 2907   0.079   1.315   7.402 -0.0380  0.2194 -0.3890
   40CHL1  H16A 2908   0.132   1.409   7.429 -0.2071  0.2657 -0.2149
   40CHL1  H16B 2909  -0.028   1.345   7.396  0.0138  0.5189  0.1285
   40CHL1   C17 2910   0.100   1.200   7.508 -0.0984 -0.3569  0.3422
   40CHL1   H17 2911   0.008   1.139   7.495 -0.0371 -0.2894 -0.4605
   40CHL1   C13 2912   0.223   1.115   7.448  0.6597  0.1340 -0.0435
   40CHL1   C18 2913   0.359   1.190   7.485  0.2978  0.1229 -0.3947
   40CHL1  H18A 2914   0.389   1.194   7.592  0.0805  0.3035 -0.3416
   40CHL1  H18B 2915   0.450   1.142   7.442  1.1203  1.3837 -0.1165
   40CHL1  H18C 2916   0.355   1.293   7.444  0.2176 -0.8188 -2.9083
   40CHL1   C12 2917   0.221   0.962   7.483 -0.0423  0.2957 -0.0567
   40CHL1  H12A 2918   0.261   0.951   7.586 -3.2692  1.2222  1.4156
   40CHL1  H12B 2919   0.118   0.921   7.474  0.7296 -1.4931 -1.3331
   40CHL1   C11 2920   0.325   0.886   7.388 -0.7395 -0.2759 -0.4070
   40CHL1  H11A 2921   0.423   0.937   7.408 -1.1762  0.5585 -0.3487
   40CHL1  H11B 2922   0.326   0.781   7.424  1.3034  0.0214  0.5878
   40CHL1    C9 2923   0.291   0.905   7.237  0.3540 -0.1985  0.2388
   40CHL1    H9 2924   0.191   0.860   7.222 -0.6521  2.2317 -0.7194
   40CHL1   C10 2925   0.371   0.824   7.132 -0.0908  0.5039 -0.1707
   40CHL1   C19 2926   0.518   0.851   7.166 -0.2976 -0.2664 -0.0135
   40CHL1  H19A 2927   0.538   0.959   7.181  1.6981 -0.2862 -1.9448
   40CHL1  H19B 2928   0.540   0.803   7.263  0.0386  0.2070  0.1510
   40CHL1  H19C 2929   0.591   0.813   7.091  1.6984  1.2847  1.0379
   40CHL1    C1 2930   0.343   0.671   7.142  0.7183 -0.0836  0.6095
   40CHL1   H1A 2931   0.367   0.629   7.242 -1.3388 -1.3636  0.6335
   40CHL1   H1B 2932   0.233   0.669   7.124  0.6842  0.9066  0.6641
   40CHL1    C2 2933   0.408   0.594   7.022  0.0486 -0.0669 -0.0414
   40CHL1   H2A 2934   0.388   0.485   7.029 -0.8942  0.1575  1.4585
   40CHL1   H2B 2935   0.517   0.603   7.041  0.2444 -0.1385 -1.0822
   40CHL1   C20 2936   0.112   1.241   7.657  0.7473 -0.0804  0.0841
   40CHL1   H20 2937   0.215   1.272   7.683  0.2023  0.9183  1.1969
   40CHL1   C21 2938   0.070   1.123   7.739 -0.1724  0.2613 -0.2686
   40CHL1  H21A 2939   0.145   1.041   7.740 -0.6870 -0.2131  0.1493
   40CHL1  H21B 2940  -0.030   1.081   7.713 -0.6803  1.0554  0.3122
   40CHL1  H21C 2941   0.066   1.151   7.847 -0.1783 -0.1035 -0.1714
   40CHL1   C22 2942   0.023   1.363   7.700 -0.0174 -0.2633  0.3173
   40CHL1  H22A 2943   0.044   1.448   7.631  1.4049 -1.1604 -0.4012
   40CHL1  H22B 2944  -0.083   1.330   7.706  0.3759 -2.1931 -1.9003
   40CHL1   C23 2945   0.068   1.423   7.835 -0.5988 -0.1430 -0.3310
   40CHL1  H23A 2946   0.059   1.356   7.923 -0.8820  1.0296  0.5646
   40CHL1  H23B 2947   0.174   1.454   7.830 -0.7965  0.7551  0.5493
   40CHL1   C24 2948  -0.009   1.551   7.879  0.1300  0.2335  0.2152
   40CHL1  H24A 2949   0.021   1.631   7.807  0.0821 -1.4606 -1.7961
   40CHL1  H24B 2950  -0.119   1.543   7.862  0.3322 -0.3171 -0.9304
   40CHL1   C25 2951   0.017   1.598   8.026 -0.5842 -1.1902  0.0455
   40CHL1   H25 2952  -0.036   1.538   8.102  0.5609 -0.2399  1.6498
   40CHL1   C26 2953   0.173   1.610   8.051  0.1425  0.6275 -0.1382
   40CHL1  H26A 2954   0.211   1.507   8.068  1.9397  1.1984 -0.4975
   40CHL1  H26B 2955   0.234   1.675   7.985 -1.9801  1.1546 -1.6678
   40CHL1  H26C 2956   0.175   1.661   8.150  0.0935 -0.5379  0.4779
   40CHL1   C27 2957  -0.038   1.737   8.049  0.3172 -0.0461  0.5565
   40CHL1  H27A 2958  -0.135   1.737   7.994  0.6004 -0.6708  0.0568
   40CHL1  H27B 2959  -0.045   1.763   8.157 -1.5194  1.3141  0.1720
   40CHL1  H27C 2960   0.033   1.808   7.999  0.7872 -0.0998  1.1436
   41CHL1    C3 2961   0.635   1.964   6.950 -0.4137  0.4853 -0.0394
   41CHL1    H3 2962   0.597   1.871   6.997 -2.2153  2.3490  2.4697
   41CHL1    O3 2963   0.616   1.973   6.811  0.1763  0.4150 -0.5064
   41CHL1   H3' 2964   0.692   2.018   6.774  1.5345  0.0858  1.6727
   41CHL1    C4 2965   0.561   2.077   7.019  0.0967 -0.6479  0.2954
   41CHL1   H4A 2966   0.599   2.174   6.983  1.3639 -0.5044  1.8892
   41CHL1   H4B 2967   0.456   2.085   6.985  0.2647  1.6024  0.1917
   41CHL1    C5 2968   0.573   2.061   7.172  0.6700  0.0084 -0.1795
   41CHL1    C6 2969   0.467   2.042   7.248  0.7879  0.8409  0.0183
   41CHL1    H6 2970   0.367   2.028   7.204  0.9000 -0.4194  0.1316
   41CHL1    C7 2971   0.475   2.030   7.399 -0.1107 -0.1453 -0.4393
   41CHL1   H7A 2972   0.383   2.081   7.435 -0.5242 -1.1979  0.0719
   41CHL1   H7B 2973   0.473   1.920   7.418  0.3670 -0.2623 -1.0371
   41CHL1    C8 2974   0.609   2.073   7.459 -0.8941 -1.0667 -0.3356
   41CHL1    H8 2975   0.609   2.183   7.454 -1.2935 -1.1408 -2.7373
   41CHL1   C14 2976   0.627   2.015   7.600  0.2082  0.1610 -0.0963
   41CHL1   H14 2977   0.626   1.908   7.572  0.2106  0.1362 -0.0012
   41CHL1   C15 2978   0.515   2.024   7.708  0.9480  0.2075 -1.3623
   41CHL1  H15A 2979   0.486   2.132   7.704  0.7237  0.3068  1.2924
   41CHL1  H15B 2980   0.427   1.957   7.695  0.7289  0.0172  0.8118
   41CHL1   C16 2981   0.581   2.004   7.842 -1.2262 -0.2939 -0.3499
   41CHL1  H16A 2982   0.569   2.099   7.898  0.6368 -1.6463  2.5930
   41CHL1  H16B 2983   0.539   1.926   7.909 -1.5853  0.8911  0.8457
   41CHL1   C17 2984   0.736   1.975   7.806  0.5340  0.7072  0.0379
   41CHL1   H17 2985   0.735   1.865   7.792 -0.5742  0.4624  1.6891
   41CHL1   C13 2986   0.762   2.039   7.670 -0.1529 -0.3432 -0.2802
   41CHL1   C18 2987   0.781   2.190   7.693  0.2916 -0.7626  0.0494
   41CHL1  H18A 2988   0.879   2.228   7.729  0.6165 -1.0735 -0.4980
   41CHL1  H18B 2989   0.770   2.253   7.603 -1.7313 -0.2870  0.5794
   41CHL1  H18C 2990   0.709   2.234   7.765  0.6967  0.2152 -0.1256
   41CHL1   C12 2991   0.871   1.985   7.576  0.2889  0.4112 -0.8632
   41CHL1  H12A 2992   0.966   2.025   7.619 -0.3088  0.3529  0.5624
   41CHL1  H12B 2993   0.878   1.875   7.592  3.1150  0.7100  0.7853
   41CHL1   C11 2994   0.865   2.032   7.429 -0.4842 -0.4632 -0.3544
   41CHL1  H11A 2995   0.893   2.140   7.424  0.8407 -0.8146 -1.4211
   41CHL1  H11B 2996   0.944   1.971   7.380  1.4628 -0.3383  2.4129
   41CHL1    C9 2997   0.721   2.013   7.374 -0.3664 -0.3582  0.2773
   41CHL1    H9 2998   0.707   1.903   7.373 -0.5757 -0.3318  0.1306
   41CHL1   C10 2999   0.718   2.061   7.227 -0.6008 -0.3650  0.2552
   41CHL1   C19 3000   0.773   2.205   7.216  0.1594  0.2959 -0.1567
   41CHL1  H19A 3001   0.882   2.219   7.228  0.2949 -1.1946  0.5900
   41CHL1  H19B 3002   0.767   2.229   7.107  1.7924  1.3007 -0.0556
   41CHL1  H19C 3003   0.711   2.283   7.265 -0.1644  0.3085 -0.5743
   41CHL1    C1 3004   0.806   1.961   7.135 -0.0574  0.1290 -0.1878
   41CHL1   H1A 3005   0.910   1.996   7.155  0.6507 -1.8626 -0.1743
   41CHL1   H1B 3006   0.795   1.856   7.168 -1.6373 -0.2914 -1.9149
   41CHL1    C2 3007   0.788   1.966   6.981  0.6703 -0.2924 -0.8380
   41CHL1   H2A 3008   0.835   1.882   6.925  1.1849  0.0163 -0.8775
   41CHL1   H2B 3009   0.821   2.068   6.952 -0.8860  0.4859  0.0333
   41CHL1   C20 3010   0.840   1.989   7.920  0.2351  0.8426  0.1786
   41CHL1   H20 3011   0.879   2.093   7.924  3.7022 -0.2298 -1.7216
   41CHL1   C21 3012   0.966   1.899   7.887  0.3327 -0.6258  0.1383
   41CHL1  H21A 3013   0.942   1.792   7.900  0.2539 -0.5118  0.9857
   41CHL1  H21B 3014   1.047   1.914   7.962  2.5749  1.7440 -2.5457
   41CHL1  H21C 3015   1.021   1.927   7.794  1.0690  1.7013  1.1801
   41CHL1   C22 3016   0.776   1.960   8.065 -0.1935  0.2781 -0.1980
   41CHL1  H22A 3017   0.696   2.032   8.090  0.1341  1.1266 -1.4718
   41CHL1  H22B 3018   0.730   1.859   8.066  1.0007 -0.2865  0.1262
   41CHL1   C23 3019   0.892   1.949   8.173  0.1408  0.0630 -0.1849
   41CHL1  H23A 3020   0.870   1.912   8.275  2.2676 -1.7802 -0.3174
   41CHL1  H23B 3021   0.962   1.871   8.137 -0.4407  0.1279 -1.5242
   41CHL1   C24 3022   0.968   2.079   8.199  0.3132 -0.0011  0.3018
   41CHL1  H24A 3023   1.073   2.066   8.234  0.1723  0.8750  1.0866
   41CHL1  H24B 3024   0.982   2.142   8.109  2.1615  0.0566  0.5966
   41CHL1   C25 3025   0.904   2.168   8.299 -0.6978  0.0752  0.8765
   41CHL1   H25 3026   0.947   2.271   8.294 -0.4413 -0.0800 -0.3113
   41CHL1   C26 3027   0.759   2.191   8.283 -0.3441 -0.1106 -0.8683
   41CHL1  H26A 3028   0.760   2.222   8.176 -0.9975  2.2673 -0.2259
   41CHL1  H26B 3029   0.690   2.104   8.289  1.0391 -1.3888 -2.3161
   41CHL1  H26C 3030   0.710   2.260   8.354 -2.2384 -2.1239 -0.0990
   41CHL1   C27 3031   0.944   2.116   8.440  0.1586 -0.5518 -0.2271
   41CHL1  H27A 3032   0.874   2.032   8.460  0.8658 -0.8676  0.9866
   41CHL1  H27B 3033   1.050   2.087   8.452 -0.3595 -3.0193 -1.0475
   41CHL1  H27C 3034   0.927   2.189   8.522 -1.1927  0.9303 -1.7429
   42CHL1    C3 3035   1.386   6.633   7.194 -0.3157  1.1065 -0.3277
   42CHL1    H3 3036   1.345   6.728   7.235  1.7694  1.3633  1.4077
   42CHL1    O3 3037   1.405   6.651   7.057 -0.3522  0.1451  0.5542
   42CHL1   H3' 3038   1.383   6.566   7.017  2.0474  0.4585 -1.7374
   42CHL1    C4 3039   1.523   6.608   7.267 -0.1307 -0.3989  0.3551
   42CHL1   H4A 3040   1.567   6.516   7.222  3.0436  0.0423  2.2725
   42CHL1   H4B 3041   1.589   6.692   7.237 -1.4312  0.9595  1.1340
   42CHL1    C5 3042   1.519   6.604   7.422  0.3741  0.1674 -0.2064
   42CHL1    C6 3043   1.583   6.694   7.508  0.4859 -0.0602 -0.0505
   42CHL1    H6 3044   1.653   6.768   7.465 -0.7680 -0.0731 -2.2447
   42CHL1    C7 3045   1.572   6.681   7.652  0.5879  0.1551  0.0314
   42CHL1   H7A 3046   1.672   6.695   7.698  0.9482  0.4895 -0.8142
   42CHL1   H7B 3047   1.507   6.761   7.694  1.5262  0.1578  1.5224
   42CHL1    C8 3048   1.502   6.555   7.712 -0.2005  0.3763 -0.3185
   42CHL1    H8 3049   1.580   6.476   7.716 -0.6135  0.0085  0.6326
   42CHL1   C14 3050   1.459   6.589   7.854  0.2202  0.0912 -0.4668
   42CHL1   H14 3051   1.389   6.675   7.844  1.4654  1.1912 -0.1765
   42CHL1   C15 3052   1.564   6.642   7.960  0.0791  0.1900 -0.4654
   42CHL1  H15A 3053   1.647   6.568   7.962  0.7284  0.7415 -2.9100
   42CHL1  H15B 3054   1.605   6.745   7.944 -2.0200  1.1098 -0.2558
   42CHL1   C16 3055   1.487   6.624   8.097 -0.0416 -0.4074 -0.2294
   42CHL1  H16A 3056   1.554   6.564   8.163  0.7938 -1.0535 -1.6006
   42CHL1  H16B 3057   1.454   6.722   8.136 -0.8411  0.0021 -1.8517
   42CHL1   C17 3058   1.356   6.543   8.066 -0.0229  0.3665 -0.1026
   42CHL1   H17 3059   1.274   6.615   8.044 -0.9428 -1.2366 -2.3383
   42CHL1   C13 3060   1.388   6.475   7.927 -0.0323  0.3205 -0.0802
   42CHL1   C18 3061   1.479   6.352   7.944  0.5144 -0.0572 -0.3406
   42CHL1  H18A 3062   1.515   6.304   7.851  0.8500 -0.4835  0.0037
   42CHL1  H18B 3063   1.558   6.379   8.017  1.3394  2.7419 -2.1331
   42CHL1  H18C 3064   1.415   6.272   7.988  0.8407  0.0556  0.3471
   42CHL1   C12 3065   1.268   6.434   7.841 -0.6212  0.5511 -0.4833
   42CHL1  H12A 3066   1.218   6.344   7.882  1.8594 -0.7191 -0.0935
   42CHL1  H12B 3067   1.206   6.527   7.840 -0.5050  0.6316 -0.2445
   42CHL1   C11 3068   1.303   6.399   7.696 -0.2821  0.3693  0.5866
   42CHL1  H11A 3069   1.368   6.309   7.701  0.0074  0.6168  1.3631
   42CHL1  H11B 3070   1.219   6.360   7.634 -0.2740  0.7115  0.3600
   42CHL1    C9 3071   1.382   6.519   7.626  0.4485  0.3551  0.0127
   42CHL1    H9 3072   1.318   6.609   7.621 -0.6187 -0.4008 -0.3720
   42CHL1   C10 3073   1.412   6.499   7.471 -0.1716  0.2819  0.3604
   42CHL1   C19 3074   1.473   6.353   7.458 -0.5849 -0.4848  0.3568
   42CHL1  H19A 3075   1.395   6.279   7.486 -1.5851  1.4370  3.0382
   42CHL1  H19B 3076   1.502   6.345   7.351 -2.1892  0.8276 -0.2293
   42CHL1  H19C 3077   1.565   6.345   7.520  0.0806 -0.9574 -0.6650
   42CHL1    C1 3078   1.281   6.514   7.390  0.4123 -0.0016  0.8362
   42CHL1   H1A 3079   1.220   6.423   7.409  0.9411  0.0894  3.4040
   42CHL1   H1B 3080   1.226   6.594   7.445  0.6488 -0.0442  1.1373
   42CHL1    C2 3081   1.289   6.520   7.235 -0.8321 -0.9002 -0.4327
   42CHL1   H2A 3082   1.188   6.554   7.202 -0.5876 -0.4637 -0.7521
   42CHL1   H2B 3083   1.302   6.419   7.190 -0.9479 -0.2769 -1.9558
   42CHL1   C20 3084   1.313   6.446   8.183  0.0930  0.1538  0.4618
   42CHL1   H20 3085   1.382   6.359   8.180  1.1233  0.9818 -1.4764
   42CHL1   C21 3086   1.174   6.390   8.160 -0.9353  0.1440  0.0330
   42CHL1  H21A 3087   1.174   6.313   8.080  1.6534  2.3101 -2.2498
   42CHL1  H21B 3088   1.107   6.475   8.134  2.0043  2.5980 -0.1140
   42CHL1  H21C 3089   1.137   6.348   8.256 -1.8611  2.1463  0.6119
   42CHL1   C22 3090   1.314   6.511   8.325  0.4127 -0.7156 -0.4553
   42CHL1  H22A 3091   1.403   6.576   8.336 -0.4168  0.2612  0.7850
   42CHL1  H22B 3092   1.216   6.558   8.347  1.4155  0.8250  1.0178
   42CHL1   C23 3093   1.352   6.426   8.443 -0.2352  0.2992 -0.3279
   42CHL1  H23A 3094   1.309   6.325   8.430  1.4965 -0.7527  1.5437
   42CHL1  H23B 3095   1.461   6.407   8.446 -0.1949  0.6955  1.5428
   42CHL1   C24 3096   1.312   6.497   8.576 -0.8975  0.0823 -0.2885
   42CHL1  H24A 3097   1.363   6.596   8.585 -0.8528 -0.0169  0.6621
   42CHL1  H24B 3098   1.202   6.507   8.585 -0.6037  1.8766  2.8527
   42CHL1   C25 3099   1.366   6.425   8.708 -0.1479  0.2315  0.0377
   42CHL1   H25 3100   1.337   6.319   8.690 -3.1344  1.1318 -0.9212
   42CHL1   C26 3101   1.520   6.428   8.722  0.4793 -0.0180  0.2198
   42CHL1  H26A 3102   1.567   6.528   8.719  0.7308 -0.1374  0.1261
   42CHL1  H26B 3103   1.547   6.389   8.822  0.3038 -0.2315  0.1836
   42CHL1  H26C 3104   1.570   6.363   8.646 -0.3334 -1.6495  1.0397
   42CHL1   C27 3105   1.273   6.466   8.828 -0.2899 -0.2386  0.8851
   42CHL1  H27A 3106   1.259   6.576   8.814  1.2305 -0.2983 -1.8499
   42CHL1  H27B 3107   1.320   6.450   8.927 -2.2003 -1.3918  1.6628
   42CHL1  H27C 3108   1.173   6.417   8.828 -0.4321  0.0474  0.7773
   43CHL1    C3 3109   3.083   1.951   6.842 -0.2194  0.3284  0.4839
   43CHL1    H3 3110   3.180   2.004   6.839  0.9305 -1.4080  3.1191
   43CHL1    O3 3111   3.023   1.926   6.715  0.1233 -0.8443 -0.1099
   43CHL1   H3' 3112   2.932   1.902   6.733 -0.0570  0.8110  1.4478
   43CHL1    C4 3113   3.097   1.813   6.907 -0.2206  0.4603  0.2601
   43CHL1   H4A 3114   2.999   1.762   6.905  0.5669 -1.0963 -0.3667
   43CHL1   H4B 3115   3.162   1.748   6.845  0.4264  1.3546 -0.0365
   43CHL1    C5 3116   3.136   1.828   7.054 -0.3839 -0.7888  1.1565
   43CHL1    C6 3117   3.243   1.759   7.092 -0.8075 -0.7437 -0.0280
   43CHL1    H6 3118   3.299   1.698   7.019 -0.9147  1.2821 -1.9241
   43CHL1    C7 3119   3.289   1.762   7.233  0.6545 -0.9461 -0.3802
   43CHL1   H7A 3120   3.305   1.654   7.254 -0.5031 -0.9057  0.8760
   43CHL1   H7B 3121   3.386   1.815   7.245 -0.2049  0.8597 -1.0348
   43CHL1    C8 3122   3.195   1.829   7.336  0.5621  0.6303  0.9636
   43CHL1    H8 3123   3.114   1.753   7.344 -2.2999  3.2414 -1.0281
   43CHL1   C14 3124   3.270   1.854   7.467 -0.1961 -0.0383 -1.2090
   43CHL1   H14 3125   3.351   1.925   7.439  1.0163 -0.6902  0.4668
   43CHL1   C15 3126   3.345   1.743   7.544 -0.3308 -0.3785  0.0192
   43CHL1  H15A 3127   3.272   1.660   7.548 -0.7305 -0.0069  3.3668
   43CHL1  H15B 3128   3.445   1.720   7.502  0.5792  0.2438  1.7087
   43CHL1   C16 3129   3.373   1.808   7.677  0.1841  0.3825 -0.4158
   43CHL1  H16A 3130   3.339   1.741   7.759  0.8552  1.3759  0.7121
   43CHL1  H16B 3131   3.483   1.808   7.683  0.1038 -0.2028  2.4572
   43CHL1   C17 3132   3.301   1.955   7.684  0.6733  0.1610  0.3032
   43CHL1   H17 3133   3.370   2.028   7.636  0.4521  0.5836  0.6243
   43CHL1   C13 3134   3.193   1.935   7.576 -0.4316 -0.5313 -0.0704
   43CHL1   C18 3135   3.081   1.842   7.629 -0.3038 -0.6952  0.0689
   43CHL1  H18A 3136   3.124   1.771   7.702  0.4422 -1.7432 -1.3404
   43CHL1  H18B 3137   3.009   1.909   7.680 -1.5475 -1.9116 -0.0610
   43CHL1  H18C 3138   3.032   1.799   7.539 -1.3477 -1.5804  1.0461
   43CHL1   C12 3139   3.125   2.055   7.508 -0.3196  0.3225  0.1459
   43CHL1  H12A 3140   3.054   2.114   7.570 -0.3128 -0.5205  0.9698
   43CHL1  H12B 3141   3.205   2.116   7.460  1.4547 -1.3971  0.8141
   43CHL1   C11 3142   3.040   2.019   7.381  0.7481  0.5350 -0.0924
   43CHL1  H11A 3143   2.954   1.958   7.417  0.4065  0.9599 -0.1821
   43CHL1  H11B 3144   2.993   2.117   7.361  1.4546  1.4537  2.3779
   43CHL1    C9 3145   3.121   1.946   7.275  0.1419  0.6113  0.3836
   43CHL1    H9 3146   3.203   2.014   7.243 -0.5491  0.8013 -1.0860
   43CHL1   C10 3147   3.052   1.923   7.141 -0.5273 -0.4307  0.3415
   43CHL1   C19 3148   2.915   1.861   7.162 -1.0026  0.0403 -0.8315
   43CHL1  H19A 3149   2.850   1.930   7.221  0.3566  0.1206  0.6200
   43CHL1  H19B 3150   2.874   1.856   7.059 -0.4052  0.4168 -1.0965
   43CHL1  H19C 3151   2.919   1.760   7.206  1.8060  1.7431  3.4511
   43CHL1    C1 3152   3.037   2.061   7.062 -0.1085 -0.0556  0.0748
   43CHL1   H1A 3153   2.959   2.122   7.112  0.1403  0.0008  0.4011
   43CHL1   H1B 3154   3.134   2.112   7.078  0.4316 -0.9026 -0.3735
   43CHL1    C2 3155   2.988   2.045   6.915 -1.1862  0.4770 -0.1624
   43CHL1   H2A 3156   2.993   2.148   6.873  0.0124  0.6518  0.3737
   43CHL1   H2B 3157   2.888   2.002   6.895 -0.2051 -0.6904 -3.1218
   43CHL1   C20 3158   3.268   2.014   7.822  1.0244  0.4346 -0.8657
   43CHL1   H20 3159   3.196   1.948   7.875 -1.7660  3.2202 -0.9329
   43CHL1   C21 3160   3.194   2.150   7.809  0.1456  0.2250  0.0467
   43CHL1  H21A 3161   3.253   2.221   7.748 -1.9439  1.3737 -0.7409
   43CHL1  H21B 3162   3.168   2.195   7.907  0.2648 -1.1673  0.7475
   43CHL1  H21C 3163   3.097   2.145   7.755 -0.9527  3.1422  1.5519
   43CHL1   C22 3164   3.383   2.022   7.914 -0.2039 -0.5827  0.7099
   43CHL1  H22A 3165   3.448   1.932   7.913  0.0221 -0.4412  1.7776
   43CHL1  H22B 3166   3.437   2.111   7.877 -0.4708 -0.1535  1.3346
   43CHL1   C23 3167   3.347   2.066   8.059  0.5058 -0.2811 -0.7364
   43CHL1  H23A 3168   3.294   2.161   8.077 -0.4738 -1.0355  0.5576
   43CHL1  H23B 3169   3.288   1.989   8.115  0.5449  0.8679  0.9752
   43CHL1   C24 3170   3.477   2.105   8.140  0.0757  0.4051  0.4437
   43CHL1  H24A 3171   3.552   2.026   8.118 -0.1622  0.1639  0.4745
   43CHL1  H24B 3172   3.521   2.199   8.102  1.4631  0.9776  3.1978
   43CHL1   C25 3173   3.467   2.119   8.295  0.0574  0.4173  0.0158
   43CHL1   H25 3174   3.421   2.023   8.327 -1.2572  0.6448 -1.1130
   43CHL1   C26 3175   3.608   2.124   8.347  0.1564 -0.3761 -0.3908
   43CHL1  H26A 3176   3.660   2.213   8.306  1.0890 -0.9956 -0.5846
   43CHL1  H26B 3177   3.616   2.133   8.458 -0.2262 -0.5882 -0.3411
   43CHL1  H26C 3178   3.649   2.029   8.308  0.1088 -1.0485  1.1152
   43CHL1   C27 3179   3.383   2.231   8.338  0.9802 -0.0522  0.1675
   43CHL1  H27A 3180   3.279   2.215   8.303  0.9545  0.1693  0.1381
   43CHL1  H27B 3181   3.380   2.237   8.449  2.4695 -0.9213  0.2724
   43CHL1  H27C 3182   3.431   2.325   8.303  1.6541  0.5645  2.5923
   44CHL1    C3 3183   2.720   0.869   6.703 -0.3675  0.2010 -0.3164
   44CHL1    H3 3184   2.695   0.975   6.729  0.9924  0.5490 -0.3673
   44CHL1    O3 3185   2.690   0.854   6.566  0.1319  0.0366  0.4475
   44CHL1   H3' 3186   2.721   0.766   6.545  1.5551  1.0409 -2.1851
   44CHL1    C4 3187   2.865   0.848   6.741 -0.5468  0.3910  0.3420
   44CHL1   H4A 3188   2.898   0.748   6.708 -0.2639 -0.3743  2.7945
   44CHL1   H4B 3189   2.929   0.921   6.687  0.6691 -0.9676 -0.1060
   44CHL1    C5 3190   2.884   0.860   6.892  0.0157 -0.4741 -0.1842
   44CHL1    C6 3191   2.970   0.954   6.945 -0.6407  0.3285 -0.1157
   44CHL1    H6 3192   3.027   1.017   6.876  1.0803 -0.8322  0.1827
   44CHL1    C7 3193   2.994   0.965   7.096 -0.6319  0.1549 -0.1073
   44CHL1   H7A 3194   3.103   0.982   7.105 -0.0175 -1.8914 -2.4759
   44CHL1   H7B 3195   2.942   1.059   7.126 -1.7727 -0.3844 -0.3391
   44CHL1    C8 3196   2.946   0.846   7.180 -0.9094 -0.8008 -0.3708
   44CHL1    H8 3197   3.015   0.761   7.163 -0.1805 -0.1284 -0.8004
   44CHL1   C14 3198   2.940   0.889   7.324  0.0540  0.4047 -0.3355
   44CHL1   H14 3199   2.872   0.978   7.322 -1.3278 -0.6030  0.4226
   44CHL1   C15 3200   3.067   0.935   7.395 -0.5515  0.8705  0.3073
   44CHL1  H15A 3201   3.152   0.867   7.376  0.6428  1.2298  3.6903
   44CHL1  H15B 3202   3.083   1.039   7.360  2.0537 -0.3819 -2.7780
   44CHL1   C16 3203   3.028   0.930   7.545 -1.3476 -0.5976  0.1812
   44CHL1  H16A 3204   3.111   0.870   7.587  1.0514  0.8849 -2.1187
   44CHL1  H16B 3205   3.028   1.034   7.584  1.6206 -0.7456  0.7812
   44CHL1   C17 3206   2.893   0.865   7.556 -0.0880  0.0162  0.2495
   44CHL1   H17 3207   2.819   0.948   7.563  1.6845  1.5844  1.0583
   44CHL1   C13 3208   2.877   0.790   7.423 -0.1082 -0.0607 -0.0811
   44CHL1   C18 3209   2.962   0.664   7.416 -1.1420 -0.5278 -0.1128
   44CHL1  H18A 3210   3.066   0.679   7.453 -1.3180  0.9999 -0.1754
   44CHL1  H18B 3211   2.919   0.582   7.477 -1.3351 -1.3428 -1.3087
   44CHL1  H18C 3212   2.963   0.626   7.312 -0.1584 -3.6200  0.9385
   44CHL1   C12 3213   2.735   0.756   7.378 -0.2465 -0.0171  0.2916
   44CHL1  H12A 3214   2.699   0.660   7.421  1.8359 -0.4618  1.1557
   44CHL1  H12B 3215   2.661   0.836   7.402  1.2011  1.7437 -0.8391
   44CHL1   C11 3216   2.727   0.718   7.227  0.6137 -0.2096 -0.5590
   44CHL1  H11A 3217   2.767   0.615   7.215 -2.9936 -1.4329 -4.1403
   44CHL1  H11B 3218   2.623   0.711   7.189  1.6573  1.7429 -4.2544
   44CHL1    C9 3219   2.809   0.807   7.129 -0.6399  0.2610 -0.1558
   44CHL1    H9 3220   2.743   0.896   7.137 -4.0181 -2.1444  1.3049
   44CHL1   C10 3221   2.799   0.770   6.980  0.8002  0.1590 -0.1252
   44CHL1   C19 3222   2.854   0.622   6.967 -0.6372 -0.0218  0.2096
   44CHL1  H19A 3223   2.777   0.544   6.987  0.8015 -1.1120  1.7079
   44CHL1  H19B 3224   2.883   0.600   6.862  0.3225 -0.5866  0.5890
   44CHL1  H19C 3225   2.938   0.618   7.039 -1.8907 -0.9127  1.6831
   44CHL1    C1 3226   2.647   0.771   6.935  0.5737 -0.1772 -0.0716
   44CHL1   H1A 3227   2.602   0.678   6.976  2.0908 -1.1963 -0.6187
   44CHL1   H1B 3228   2.586   0.848   6.987 -0.1201 -1.1598  0.5975
   44CHL1    C2 3229   2.629   0.777   6.780 -0.0114  0.4309 -0.2146
   44CHL1   H2A 3230   2.523   0.802   6.759  0.0724 -1.2508 -3.2715
   44CHL1   H2B 3231   2.650   0.670   6.757 -0.2984  0.5687 -1.1669
   44CHL1   C20 3232   2.882   0.776   7.679 -0.1295 -0.0091  0.3369
   44CHL1   H20 3233   2.953   0.691   7.678 -0.9313 -0.7183  1.0668
   44CHL1   C21 3234   2.743   0.712   7.690  0.5479 -0.3384 -0.1976
   44CHL1  H21A 3235   2.724   0.639   7.608 -0.6167  0.5038 -0.7141
   44CHL1  H21B 3236   2.657   0.781   7.673 -0.8390 -1.8660  0.3178
   44CHL1  H21C 3237   2.725   0.650   7.781 -0.4901 -1.5460 -1.1807
   44CHL1   C22 3238   2.909   0.854   7.806 -0.4771  0.7707 -0.2323
   44CHL1  H22A 3239   3.008   0.900   7.791  1.5301 -2.8070  0.7522
   44CHL1  H22B 3240   2.828   0.925   7.831 -1.2273 -0.6742  1.7607
   44CHL1   C23 3241   2.916   0.764   7.937 -0.2482 -0.3712  0.7528
   44CHL1  H23A 3242   2.811   0.734   7.956 -0.3953 -0.1199  0.3473
   44CHL1  H23B 3243   2.971   0.670   7.912 -0.4322  0.0563 -1.5065
   44CHL1   C24 3244   2.962   0.833   8.065 -0.5398 -0.8374  0.4061
   44CHL1  H24A 3245   2.948   0.765   8.151  2.2273 -3.4311 -1.0024
   44CHL1  H24B 3246   3.070   0.860   8.064 -1.0888  1.6327 -1.2357
   44CHL1   C25 3247   2.888   0.968   8.100 -0.1646 -0.1146 -0.2349
   44CHL1   H25 3248   2.899   1.035   8.012 -0.0364 -0.6068 -0.6023
   44CHL1   C26 3249   2.737   0.949   8.139  0.1439 -0.0252 -0.2897
   44CHL1  H26A 3250   2.678   0.895   8.062 -1.1502 -0.3145  0.8650
   44CHL1  H26B 3251   2.722   0.893   8.234 -0.3486 -0.3314 -0.5483
   44CHL1  H26C 3252   2.703   1.055   8.147  0.3645 -0.0515  1.2634
   44CHL1   C27 3253   2.960   1.050   8.216  0.1776 -0.7662 -0.4122
   44CHL1  H27A 3254   2.959   0.991   8.310  1.8685  0.5177  0.4637
   44CHL1  H27B 3255   3.063   1.088   8.198  1.0841 -2.2253  1.4441
   44CHL1  H27C 3256   2.898   1.142   8.226  0.3652 -0.1311 -3.8080
   45CHL1    C3 3257   3.429   4.196   6.652 -0.9397  1.1269  0.1892
   45CHL1    H3 3258   3.318   4.200   6.652 -1.0021 -0.1298 -0.1018
   45CHL1    O3 3259   3.471   4.209   6.521  0.4742  0.1209 -0.1988
   45CHL1   H3' 3260   3.432   4.290   6.487  1.2591  0.4127 -0.4448
   45CHL1    C4 3261   3.482   4.307   6.738 -0.1118 -0.0776 -0.3916
   45CHL1   H4A 3262   3.585   4.312   6.698  1.7290 -0.1106  3.7970
   45CHL1   H4B 3263   3.430   4.400   6.708  1.0202 -0.1781 -2.8812
   45CHL1    C5 3264   3.474   4.280   6.892 -0.1994  0.7544  0.1310
   45CHL1    C6 3265   3.421   4.376   6.967  0.3270 -0.4883  0.1629
   45CHL1    H6 3266   3.409   4.477   6.924  0.0102  0.3658  2.1618
   45CHL1    C7 3267   3.412   4.368   7.115  0.0884 -0.6871 -0.9694
   45CHL1   H7A 3268   3.436   4.463   7.168  2.0204 -1.5543 -0.1641
   45CHL1   H7B 3269   3.305   4.346   7.136 -0.0297 -0.3747 -1.2289
   45CHL1    C8 3270   3.501   4.253   7.177  0.0874 -0.0590 -0.1484
   45CHL1    H8 3271   3.608   4.283   7.174  0.2160 -0.4720  0.1986
   45CHL1   C14 3272   3.459   4.213   7.321 -0.0217 -0.0860 -0.1815
   45CHL1   H14 3273   3.358   4.167   7.317  0.0105 -0.3705  1.4250
   45CHL1   C15 3274   3.450   4.336   7.421  0.3900  0.9180  0.4565
   45CHL1  H15A 3275   3.546   4.389   7.404  0.1980  1.1531  0.0790
   45CHL1  H15B 3276   3.357   4.395   7.405 -0.7367 -0.6951  0.7492
   45CHL1   C16 3277   3.439   4.264   7.556 -0.5365  0.1854  0.5909
   45CHL1  H16A 3278   3.518   4.314   7.616  0.6782  0.0662 -0.8521
   45CHL1  H16B 3279   3.336   4.277   7.594 -0.3779  0.8520  0.7948
   45CHL1   C17 3280   3.483   4.114   7.528 -0.2652  0.1139  0.4772
   45CHL1   H17 3281   3.392   4.051   7.528 -0.3687  0.2375 -0.7001
   45CHL1   C13 3282   3.546   4.107   7.389 -0.2001  0.6958 -0.5750
   45CHL1   C18 3283   3.696   4.159   7.398  1.0217 -0.1505  0.5946
   45CHL1  H18A 3284   3.750   4.069   7.433  1.3592  0.0826  0.6766
   45CHL1  H18B 3285   3.738   4.201   7.303 -1.9783  1.5415 -0.1364
   45CHL1  H18C 3286   3.697   4.248   7.464 -2.9778  0.8303 -0.4199
   45CHL1   C12 3287   3.529   3.974   7.308 -0.5798 -0.1884  0.1236
   45CHL1  H12A 3288   3.601   3.899   7.347  0.6817  0.5244 -0.7645
   45CHL1  H12B 3289   3.425   3.935   7.319 -0.6103 -0.3962 -0.7750
   45CHL1   C11 3290   3.562   3.995   7.160 -0.5421 -0.2512 -0.5029
   45CHL1  H11A 3291   3.672   4.012   7.158 -1.0610  4.3442 -0.6326
   45CHL1  H11B 3292   3.537   3.905   7.100  1.2477 -0.4291 -1.0570
   45CHL1    C9 3293   3.488   4.120   7.096  0.9089  0.3822 -0.1618
   45CHL1    H9 3294   3.381   4.093   7.087  1.3430 -1.4761 -0.0123
   45CHL1   C10 3295   3.514   4.139   6.942  0.4054 -0.2679 -0.3701
   45CHL1   C19 3296   3.669   4.121   6.939 -0.0886  0.0081 -0.0852
   45CHL1  H19A 3297   3.714   4.163   7.032 -1.8280 -0.0255  0.7972
   45CHL1  H19B 3298   3.686   4.011   6.940  1.0351  0.1683 -0.0556
   45CHL1  H19C 3299   3.720   4.160   6.848  0.8612 -2.6592 -0.8128
   45CHL1    C1 3300   3.448   4.036   6.855  0.3547  0.0002 -0.3289
   45CHL1   H1A 3301   3.493   3.935   6.868  1.0625  0.4556  0.8408
   45CHL1   H1B 3302   3.340   4.038   6.881  0.6549  3.1745  1.1484
   45CHL1    C2 3303   3.472   4.055   6.701  0.6469 -0.5064 -0.1342
   45CHL1   H2A 3304   3.423   3.979   6.637 -0.1521 -1.5476  1.6615
   45CHL1   H2B 3305   3.582   4.053   6.686  0.5705  0.4370 -0.9218
   45CHL1   C20 3306   3.577   4.053   7.640  0.0670 -0.2706 -0.4182
   45CHL1   H20 3307   3.682   4.089   7.644 -0.6342  1.9746 -0.6089
   45CHL1   C21 3308   3.573   3.898   7.630 -0.5245 -0.1899  0.2756
   45CHL1  H21A 3309   3.611   3.844   7.540  0.2548 -0.7339  0.9239
   45CHL1  H21B 3310   3.463   3.880   7.637 -1.4114  3.2270 -2.1851
   45CHL1  H21C 3311   3.623   3.854   7.718  2.4684  0.2285 -1.0968
   45CHL1   C22 3312   3.528   4.089   7.784  0.4216 -0.0391  0.2845
   45CHL1  H22A 3313   3.501   4.196   7.797  0.5983 -0.0952  1.1409
   45CHL1  H22B 3314   3.439   4.026   7.807  0.3643 -0.6795 -1.5367
   45CHL1   C23 3315   3.633   4.066   7.895  0.4191 -0.3683  0.5969
   45CHL1  H23A 3316   3.654   3.957   7.898  2.6965  0.0288  0.5589
   45CHL1  H23B 3317   3.725   4.116   7.856 -1.1411  1.6467 -0.7628
   45CHL1   C24 3318   3.582   4.124   8.027 -0.8988  0.0957  0.0053
   45CHL1  H24A 3319   3.557   4.232   8.016  1.1163  0.7608  1.3772
   45CHL1  H24B 3320   3.480   4.085   8.048 -0.7971 -1.5094 -2.0956
   45CHL1   C25 3321   3.692   4.110   8.136 -0.1922 -1.4545 -0.1456
   45CHL1   H25 3322   3.741   4.010   8.132  2.9187 -0.0663 -0.2328
   45CHL1   C26 3323   3.821   4.202   8.115 -0.8888 -0.6095  0.7278
   45CHL1  H26A 3324   3.866   4.172   8.017 -0.2144 -0.2910  0.9329
   45CHL1  H26B 3325   3.802   4.311   8.115  1.5587 -0.0812 -1.3306
   45CHL1  H26C 3326   3.901   4.180   8.189  1.9332  0.5895 -1.7578
   45CHL1   C27 3327   3.629   4.126   8.275 -0.1010 -0.1372  0.0050
   45CHL1  H27A 3328   3.705   4.121   8.357 -1.8553 -0.1359  1.7030
   45CHL1  H27B 3329   3.564   4.216   8.283  0.5286  0.1623  3.0929
   45CHL1  H27C 3330   3.564   4.038   8.293  0.1307 -0.2537  0.2813
   46CHL1    C3 3331   2.971   6.130   7.207  0.0009  0.1407 -0.3306
   46CHL1    H3 3332   3.074   6.165   7.228  0.4462 -1.7855  0.9999
   46CHL1    O3 3333   2.952   6.114   7.062 -0.9441 -0.1502  0.3889
   46CHL1   H3' 3334   2.857   6.113   7.046 -0.6114 -0.4982 -2.0876
   46CHL1    C4 3335   2.940   5.993   7.269  0.5594  0.3610 -0.3685
   46CHL1   H4A 3336   2.843   5.965   7.224  0.4224  0.8076 -0.3567
   46CHL1   H4B 3337   3.022   5.928   7.232  0.4169  1.1031 -2.1040
   46CHL1    C5 3338   2.929   5.992   7.420 -0.3160 -0.4253  0.2442
   46CHL1    C6 3339   3.008   5.912   7.499 -0.3477 -0.0254 -0.5109
   46CHL1    H6 3340   3.080   5.846   7.448 -2.1442 -1.2893 -1.5177
   46CHL1    C7 3341   2.992   5.902   7.657 -0.4513  0.4026  0.6119
   46CHL1   H7A 3342   2.998   5.800   7.699  1.0961  0.5376  0.7824
   46CHL1   H7B 3343   3.072   5.961   7.708 -1.1191  0.5822  1.4811
   46CHL1    C8 3344   2.861   5.967   7.703  0.2096  0.0601  0.3480
   46CHL1    H8 3345   2.773   5.903   7.682  0.6597 -0.6192  0.4969
   46CHL1   C14 3346   2.872   6.003   7.850  1.3849  0.0491  0.0096
   46CHL1   H14 3347   2.958   6.074   7.855  2.0399 -0.7809  0.6739
   46CHL1   C15 3348   2.908   5.894   7.946  0.5426  0.1385 -0.7683
   46CHL1  H15A 3349   2.842   5.807   7.925  1.6228 -0.9026 -0.0477
   46CHL1  H15B 3350   3.016   5.869   7.949  0.3284 -0.7446  0.7248
   46CHL1   C16 3351   2.876   5.946   8.088  0.4559 -0.3090 -0.0860
   46CHL1  H16A 3352   2.812   5.875   8.144 -0.0751  0.4752  0.3173
   46CHL1  H16B 3353   2.965   5.968   8.150  0.8304 -1.5966 -0.1569
   46CHL1   C17 3354   2.809   6.088   8.066 -0.4126  0.1516 -0.2437
   46CHL1   H17 3355   2.895   6.157   8.053 -1.2040  1.2134  0.0749
   46CHL1   C13 3356   2.754   6.074   7.922 -0.1136  0.0082  0.6146
   46CHL1   C18 3357   2.628   5.987   7.916  0.3660  0.7346 -1.0819
   46CHL1  H18A 3358   2.612   5.973   7.807 -1.3208  1.0858 -0.9018
   46CHL1  H18B 3359   2.651   5.896   7.976  1.0073  1.4296 -0.2475
   46CHL1  H18C 3360   2.542   6.037   7.965  0.7004  1.2595 -1.0198
   46CHL1   C12 3361   2.738   6.208   7.842  0.2479  0.4785 -0.2676
   46CHL1  H12A 3362   2.646   6.264   7.868  0.9631  1.1605  0.9093
   46CHL1  H12B 3363   2.826   6.275   7.856 -1.5556  3.7513 -3.1420
   46CHL1   C11 3364   2.726   6.190   7.689  0.1995  0.1976 -0.3854
   46CHL1  H11A 3365   2.627   6.141   7.677  0.4182 -0.1753 -0.7037
   46CHL1  H11B 3366   2.716   6.293   7.650 -1.4333 -0.0110 -0.5719
   46CHL1    C9 3367   2.841   6.106   7.631  0.1534 -0.1648 -0.1955
   46CHL1    H9 3368   2.929   6.173   7.643 -0.3646  0.6000 -0.5934
   46CHL1   C10 3369   2.827   6.092   7.479 -0.4561  0.3400 -0.5216
   46CHL1   C19 3370   2.686   6.041   7.441  0.0405  0.0864 -0.0599
   46CHL1  H19A 3371   2.645   5.963   7.509  1.2115  0.6091  1.3156
   46CHL1  H19B 3372   2.615   6.126   7.444 -1.0784 -0.8440  1.3221
   46CHL1  H19C 3373   2.693   6.005   7.336  1.1628 -1.2091  0.4220
   46CHL1    C1 3374   2.850   6.226   7.409  0.5677 -0.3448  0.1749
   46CHL1   H1A 3375   2.773   6.304   7.428  1.7853  0.1420  3.7647
   46CHL1   H1B 3376   2.943   6.273   7.447  1.3357  1.3912 -3.4233
   46CHL1    C2 3377   2.866   6.227   7.252  0.5064  0.4470  0.0411
   46CHL1   H2A 3378   2.882   6.330   7.214 -1.6535  1.3158  1.3007
   46CHL1   H2B 3379   2.766   6.191   7.222 -0.6328  2.6123  1.0087
   46CHL1   C20 3380   2.727   6.139   8.186  0.3215  0.0721 -0.0909
   46CHL1   H20 3381   2.656   6.057   8.210  0.8183 -1.0169 -2.1033
   46CHL1   C21 3382   2.638   6.260   8.148 -0.2346  0.4601  0.3121
   46CHL1  H21A 3383   2.570   6.244   8.061  1.6077  0.6008 -1.2147
   46CHL1  H21B 3384   2.705   6.345   8.126  1.4462 -0.5124  1.4516
   46CHL1  H21C 3385   2.567   6.285   8.230  1.4558 -0.5834  2.1611
   46CHL1   C22 3386   2.819   6.163   8.312 -0.1861 -0.3153 -0.0590
   46CHL1  H22A 3387   2.843   6.068   8.365  2.3782  1.8810  3.1898
   46CHL1  H22B 3388   2.918   6.203   8.279 -0.6859  0.6827 -0.3848
   46CHL1   C23 3389   2.764   6.246   8.423  0.1723  0.1558  0.2789
   46CHL1  H23A 3390   2.734   6.351   8.399  0.5859  1.2269  3.8408
   46CHL1  H23B 3391   2.665   6.206   8.452 -0.8820  1.5024 -1.2496
   46CHL1   C24 3392   2.872   6.247   8.533 -0.3694  0.1989 -0.2515
   46CHL1  H24A 3393   2.832   6.305   8.619  1.4206  1.2027 -0.0546
   46CHL1  H24B 3394   2.891   6.142   8.562 -0.6202 -0.1183 -1.2144
   46CHL1   C25 3395   3.015   6.302   8.508  0.8200 -0.0753 -0.4246
   46CHL1   H25 3396   3.068   6.248   8.427  0.6295  0.4054 -0.8777
   46CHL1   C26 3397   2.994   6.451   8.474  0.7216  0.8732 -0.5526
   46CHL1  H26A 3398   3.084   6.512   8.498  0.5154  0.4146  1.6114
   46CHL1  H26B 3399   2.947   6.450   8.374  2.0505  0.8946 -1.1869
   46CHL1  H26C 3400   2.918   6.480   8.551 -1.0159 -2.3910 -0.8640
   46CHL1   C27 3401   3.109   6.281   8.628  0.2114  0.0942  0.9356
   46CHL1  H27A 3402   3.200   6.344   8.615 -0.0379  0.0188 -1.6592
   46CHL1  H27B 3403   3.062   6.309   8.724 -1.9712 -1.1851  0.2877
   46CHL1  H27C 3404   3.128   6.172   8.641  1.9548  0.1649 -0.5054
   47CHL1    C3 3405   2.588   0.115   6.583 -0.2335  0.0078  0.1298
   47CHL1    H3 3406   2.625   0.014   6.610  0.5578 -0.2459 -1.7474
   47CHL1    O3 3407   2.572   0.108   6.442  0.0082  0.4513  0.0880
   47CHL1   H3' 3408   2.515   0.183   6.421  1.4045  0.8637 -2.6271
   47CHL1    C4 3409   2.450   0.144   6.648 -0.1267  0.0839  0.1315
   47CHL1   H4A 3410   2.411   0.241   6.612 -0.3069  0.6511  1.7916
   47CHL1   H4B 3411   2.377   0.069   6.608 -1.4606  1.0035  0.7626
   47CHL1    C5 3412   2.466   0.134   6.799  0.0213  0.6168 -0.3896
   47CHL1    C6 3413   2.399   0.039   6.875  0.1753  0.9648  0.2117
   47CHL1    H6 3414   2.328  -0.035   6.834  1.2211  0.1657 -0.1774
   47CHL1    C7 3415   2.401   0.039   7.024 -0.1714 -0.3196  0.0143
   47CHL1   H7A 3416   2.302   0.035   7.074  0.0501  0.7587  0.5829
   47CHL1   H7B 3417   2.458  -0.052   7.053  1.7684  0.9556  0.4153
   47CHL1    C8 3418   2.474   0.165   7.086  0.6846  0.1797 -0.7619
   47CHL1    H8 3419   2.407   0.254   7.079  3.3949  2.2535 -2.2688
   47CHL1   C14 3420   2.499   0.141   7.231  0.1733 -0.4212 -0.6706
   47CHL1   H14 3421   2.564   0.051   7.230  2.9783  1.4444 -2.9272
   47CHL1   C15 3422   2.379   0.106   7.322 -0.7734 -0.1282 -0.3811
   47CHL1  H15A 3423   2.300   0.181   7.298 -0.7326  0.1847  0.4323
   47CHL1  H15B 3424   2.340   0.003   7.307  1.9197 -0.9323 -2.8328
   47CHL1   C16 3425   2.422   0.139   7.461 -1.0271 -0.0753 -0.2597
   47CHL1  H16A 3426   2.368   0.225   7.504  1.5485  0.4786  2.1965
   47CHL1  H16B 3427   2.423   0.052   7.530 -0.7403 -0.4645 -0.7490
   47CHL1   C17 3428   2.572   0.189   7.452  0.0345  0.4001  0.7249
   47CHL1   H17 3429   2.629   0.095   7.438  0.4727  0.7399  0.1966
   47CHL1   C13 3430   2.573   0.251   7.302  0.3259 -0.0299 -0.8803
   47CHL1   C18 3431   2.496   0.386   7.301  0.5011  0.1349  0.3571
   47CHL1  H18A 3432   2.561   0.462   7.347  4.1480 -2.1040 -0.6514
   47CHL1  H18B 3433   2.460   0.426   7.204  0.1916  2.1615  1.2677
   47CHL1  H18C 3434   2.400   0.380   7.357  0.6876  1.8910  0.8952
   47CHL1   C12 3435   2.704   0.265   7.234  0.0871  0.1916  0.6007
   47CHL1  H12A 3436   2.776   0.335   7.281  0.1436  0.4622  0.1192
   47CHL1  H12B 3437   2.758   0.169   7.238  2.0572  1.2573  1.0348
   47CHL1   C11 3438   2.689   0.302   7.085  0.4329 -0.4871 -0.0128
   47CHL1  H11A 3439   2.652   0.407   7.082  0.6594 -0.4175 -0.6577
   47CHL1  H11B 3440   2.782   0.306   7.025  0.7397  0.7127  0.5126
   47CHL1    C9 3441   2.597   0.202   7.003 -0.7577  0.0615  0.0927
   47CHL1    H9 3442   2.650   0.105   7.004  0.8299  0.8844  1.3291
   47CHL1   C10 3443   2.570   0.234   6.857  0.7946 -0.2661 -0.1737
   47CHL1   C19 3444   2.504   0.375   6.850  0.8338 -0.1752  0.3920
   47CHL1  H19A 3445   2.578   0.457   6.864 -2.1569  2.7909  0.4055
   47CHL1  H19B 3446   2.455   0.386   6.750 -1.5561  0.6533  1.5721
   47CHL1  H19C 3447   2.427   0.391   6.928  0.6552  1.6081 -0.1011
   47CHL1    C1 3448   2.702   0.224   6.776 -0.1982  0.1939 -0.4432
   47CHL1   H1A 3449   2.770   0.308   6.801 -0.5011  0.7177 -1.3680
   47CHL1   H1B 3450   2.748   0.126   6.802 -0.0406 -0.1150 -1.8327
   47CHL1    C2 3451   2.693   0.224   6.622 -0.1804 -1.5194  0.5797
   47CHL1   H2A 3452   2.789   0.192   6.576  0.5180  0.8155  0.3046
   47CHL1   H2B 3453   2.670   0.320   6.572 -1.9078 -0.8994  2.4405
   47CHL1   C20 3454   2.619   0.271   7.567  0.1761  0.0331  0.3748
   47CHL1   H20 3455   2.593   0.377   7.548  0.1146  0.3158  1.9030
   47CHL1   C21 3456   2.770   0.258   7.571 -0.1631  0.1125  0.1286
   47CHL1  H21A 3457   2.813   0.344   7.627  4.8890 -0.9531 -1.6022
   47CHL1  H21B 3458   2.823   0.268   7.474 -1.0421  0.8543 -0.2922
   47CHL1  H21C 3459   2.788   0.155   7.607 -1.9990  0.2486  1.5899
   47CHL1   C22 3460   2.563   0.233   7.708 -0.5074 -0.3509  0.3507
   47CHL1  H22A 3461   2.452   0.225   7.706 -0.5193 -0.1332  0.0668
   47CHL1  H22B 3462   2.599   0.129   7.721  1.0068 -0.1901 -1.9893
   47CHL1   C23 3463   2.595   0.328   7.822 -0.2932  0.3248  0.7903
   47CHL1  H23A 3464   2.704   0.326   7.843 -0.2807 -0.5996  0.7127
   47CHL1  H23B 3465   2.561   0.428   7.788  1.3255  0.1759 -1.5423
   47CHL1   C24 3466   2.525   0.278   7.952  0.0964 -0.9994  0.4066
   47CHL1  H24A 3467   2.420   0.304   7.929  0.6459  0.7775 -0.2674
   47CHL1  H24B 3468   2.534   0.168   7.957 -0.0982 -1.0442 -0.1380
   47CHL1   C25 3469   2.570   0.357   8.077  0.0908  0.2984  0.4062
   47CHL1   H25 3470   2.530   0.460   8.068 -1.0009 -0.0677  0.8989
   47CHL1   C26 3471   2.501   0.295   8.200 -0.3843 -0.1818  0.3751
   47CHL1  H26A 3472   2.522   0.359   8.288 -1.7915 -1.1403  1.4520
   47CHL1  H26B 3473   2.393   0.294   8.173  0.0252 -0.1295 -1.4338
   47CHL1  H26C 3474   2.543   0.193   8.206 -3.1755 -1.4369  0.1881
   47CHL1   C27 3475   2.722   0.374   8.109 -0.5085  0.8123 -0.5088
   47CHL1  H27A 3476   2.782   0.435   8.039  0.6639  2.9109  2.1183
   47CHL1  H27B 3477   2.727   0.431   8.205  3.5342  0.2278 -0.1808
   47CHL1  H27C 3478   2.767   0.275   8.132 -0.6631  0.9307  0.3351
   48CHL1    C3 3479   5.967   3.961   6.355  0.5594  0.0917  0.0115
   48CHL1    H3 3480   5.859   3.960   6.379  0.7076  0.2531  0.7247
   48CHL1    O3 3481   6.000   3.997   6.220  0.0630 -0.0001  0.0629
   48CHL1   H3' 3482   6.096   3.992   6.216 -0.0217 -1.5848 -0.7889
   48CHL1    C4 3483   6.031   4.068   6.448  0.0610 -0.4434 -0.1360
   48CHL1   H4A 3484   6.138   4.077   6.421 -0.3319 -0.8001 -2.0122
   48CHL1   H4B 3485   5.977   4.162   6.423  0.7028  0.3962  1.5486
   48CHL1    C5 3486   6.026   4.029   6.591  0.6705 -0.0963 -0.2722
   48CHL1    C6 3487   5.965   4.107   6.673  0.5317  0.7169 -0.4947
   48CHL1    H6 3488   5.919   4.201   6.639 -0.3944  0.8598  1.0580
   48CHL1    C7 3489   5.952   4.083   6.822 -0.3236  0.1930  0.0200
   48CHL1   H7A 3490   5.977   4.180   6.870  0.2245  0.4909 -0.8468
   48CHL1   H7B 3491   5.852   4.042   6.848 -0.7702 -0.3204 -2.2690
   48CHL1    C8 3492   6.061   3.985   6.870 -0.0373 -0.2490  0.0327
   48CHL1    H8 3493   6.154   4.045   6.856 -0.5578  0.3785 -0.8792
   48CHL1   C14 3494   6.043   3.939   7.018 -0.7142  0.0364  0.3283
   48CHL1   H14 3495   5.942   3.893   7.018 -0.8061  0.2196 -0.2623
   48CHL1   C15 3496   6.026   4.046   7.125 -0.1920 -0.7352 -0.7035
   48CHL1  H15A 3497   6.104   4.126   7.124  1.6022 -2.4139 -1.2740
   48CHL1  H15B 3498   5.928   4.096   7.117  0.0870 -0.1040 -0.2431
   48CHL1   C16 3499   6.038   3.972   7.259 -0.1959 -0.8506  0.4962
   48CHL1  H16A 3500   6.113   4.030   7.317  0.9520 -0.6688 -1.0799
   48CHL1  H16B 3501   5.935   3.957   7.297  0.0472 -3.6795  0.2549
   48CHL1   C17 3502   6.083   3.829   7.218 -0.2188  0.4694 -0.2910
   48CHL1   H17 3503   5.986   3.777   7.204  0.8445 -1.9779  0.8991
   48CHL1   C13 3504   6.142   3.839   7.077 -0.7320  0.6761  0.5089
   48CHL1   C18 3505   6.286   3.891   7.090  0.0121  0.6543  0.6019
   48CHL1  H18A 3506   6.346   3.836   7.165  0.2865  1.5777  1.0672
   48CHL1  H18B 3507   6.338   3.907   6.994 -0.9327 -0.2730 -0.0926
   48CHL1  H18C 3508   6.268   3.992   7.132 -2.8786  0.4589  0.0691
   48CHL1   C12 3509   6.135   3.713   6.990  0.2544  0.1317 -0.3492
   48CHL1  H12A 3510   6.207   3.631   7.010 -0.7233 -1.1038 -1.7046
   48CHL1  H12B 3511   6.034   3.669   7.006 -0.0644  0.6601 -0.8971
   48CHL1   C11 3512   6.157   3.739   6.842  0.0455  0.0885  0.2403
   48CHL1  H11A 3513   6.260   3.779   6.834 -0.9901  3.4587  1.9354
   48CHL1  H11B 3514   6.139   3.643   6.788  0.5136 -0.2566  0.6847
   48CHL1    C9 3515   6.064   3.855   6.784  0.8151 -0.0238 -0.0355
   48CHL1    H9 3516   5.957   3.828   6.787  0.3029  1.9429  1.8313
   48CHL1   C10 3517   6.087   3.887   6.634  0.4092  0.6229  0.2559
   48CHL1   C19 3518   6.234   3.883   6.604  0.4224 -0.1165 -0.2269
   48CHL1  H19A 3519   6.256   3.878   6.495  3.0793 -0.1795  0.2237
   48CHL1  H19B 3520   6.281   3.977   6.641 -0.7490  0.2246  0.4415
   48CHL1  H19C 3521   6.285   3.793   6.644  0.0885  0.2832  1.1525
   48CHL1    C1 3522   6.009   3.789   6.535 -0.0856  0.0548 -0.3639
   48CHL1   H1A 3523   6.041   3.685   6.557 -2.3131 -0.3730  1.1300
   48CHL1   H1B 3524   5.902   3.789   6.565 -0.0320 -0.7114 -0.1601
   48CHL1    C2 3525   6.019   3.819   6.388 -0.1186 -0.0291 -0.2446
   48CHL1   H2A 3526   5.947   3.754   6.333 -0.0092  0.4064 -0.9214
   48CHL1   H2B 3527   6.125   3.814   6.354  0.6552  2.1536  1.6065
   48CHL1   C20 3528   6.150   3.752   7.338  0.1835  0.9177  0.5679
   48CHL1   H20 3529   6.217   3.684   7.281 -1.7477  2.4879 -4.0668
   48CHL1   C21 3530   6.049   3.667   7.406 -0.3824 -0.5711 -0.3439
   48CHL1  H21A 3531   5.998   3.596   7.337  0.0078  0.8526 -2.1903
   48CHL1  H21B 3532   5.966   3.734   7.436 -0.3243 -1.4508  1.9790
   48CHL1  H21C 3533   6.088   3.611   7.494 -1.6902  1.1994  1.4569
   48CHL1   C22 3534   6.228   3.837   7.438 -0.0262 -0.4196  0.3873
   48CHL1  H22A 3535   6.274   3.924   7.387 -0.0582  0.1604  1.3217
   48CHL1  H22B 3536   6.152   3.885   7.504 -0.0472  1.3973 -0.8885
   48CHL1   C23 3537   6.331   3.767   7.524 -0.1793 -0.5035 -0.1694
   48CHL1  H23A 3538   6.290   3.684   7.585  0.6711 -2.3724 -2.0002
   48CHL1  H23B 3539   6.404   3.717   7.458 -0.7616 -1.7189  0.0840
   48CHL1   C24 3540   6.408   3.874   7.602 -0.2484 -0.7979 -0.1920
   48CHL1  H24A 3541   6.454   3.941   7.526 -0.7534  0.3995  0.5209
   48CHL1  H24B 3542   6.335   3.932   7.664  0.2871 -1.6451  1.2821
   48CHL1   C25 3543   6.510   3.830   7.711  0.0994  0.3724 -0.5397
   48CHL1   H25 3544   6.464   3.762   7.787  3.3289 -1.0655  0.3001
   48CHL1   C26 3545   6.636   3.760   7.665 -0.5928  0.0573 -0.0421
   48CHL1  H26A 3546   6.612   3.684   7.587  1.7668  1.5425 -2.3801
   48CHL1  H26B 3547   6.708   3.824   7.611  1.7143 -0.6227  2.0462
   48CHL1  H26C 3548   6.689   3.714   7.751 -2.4007 -0.0306  1.0900
   48CHL1   C27 3549   6.548   3.957   7.793  0.0597 -0.6325  0.1621
   48CHL1  H27A 3550   6.607   4.027   7.729 -0.4939 -0.3327 -0.0244
   48CHL1  H27B 3551   6.467   4.027   7.821 -0.4505 -1.3952  0.6513
   48CHL1  H27C 3552   6.603   3.925   7.884 -0.5176 -0.1303  0.7011
   49CHL1    C3 3553   3.316   2.559   6.763  0.0581 -0.2879  0.4738
   49CHL1    H3 3554   3.384   2.489   6.817  2.2172  0.6423 -0.9224
   49CHL1    O3 3555   3.341   2.537   6.628 -0.2093 -0.0907  0.2722
   49CHL1   H3' 3556   3.275   2.588   6.581 -0.4476 -1.1120 -0.5401
   49CHL1    C4 3557   3.171   2.525   6.789  0.0972 -0.1104 -0.3605
   49CHL1   H4A 3558   3.101   2.590   6.732 -0.6474 -0.6414 -0.0674
   49CHL1   H4B 3559   3.159   2.422   6.750 -1.4430  0.3416 -1.1536
   49CHL1    C5 3560   3.140   2.529   6.941  0.3767 -0.2969  0.1834
   49CHL1    C6 3561   3.082   2.428   6.999  0.5409  0.2032  0.5377
   49CHL1    H6 3562   3.038   2.350   6.936 -1.8584  0.1612  2.1489
   49CHL1    C7 3563   3.054   2.424   7.146 -0.0221  0.1521 -0.1980
   49CHL1   H7A 3564   2.958   2.372   7.168  2.3697 -4.4867  0.3702
   49CHL1   H7B 3565   3.116   2.346   7.195 -0.3845 -0.7931 -1.2031
   49CHL1    C8 3566   3.075   2.558   7.223 -0.0324  0.1963  0.4579
   49CHL1    H8 3567   2.981   2.615   7.209  0.3536  0.5965 -0.6954
   49CHL1   C14 3568   3.086   2.534   7.373  0.2155  0.6935 -0.5041
   49CHL1   H14 3569   3.171   2.467   7.399  0.5220  1.0858 -0.4966
   49CHL1   C15 3570   2.958   2.459   7.437  0.1385  0.4819  0.4905
   49CHL1  H15A 3571   2.859   2.486   7.393 -0.5762  1.3643  2.4813
   49CHL1  H15B 3572   2.969   2.349   7.430 -0.7055  0.4147  0.0703
   49CHL1   C16 3573   2.961   2.505   7.580 -0.2750 -0.4898 -0.5055
   49CHL1  H16A 3574   2.863   2.543   7.616  0.0538  0.9953 -1.0961
   49CHL1  H16B 3575   2.972   2.421   7.652  1.1145 -0.0028 -0.1107
   49CHL1   C17 3576   3.081   2.599   7.606  0.2528 -0.1700 -0.2321
   49CHL1   H17 3577   3.171   2.534   7.620 -0.2171 -0.4678  1.7579
   49CHL1   C13 3578   3.104   2.663   7.461 -0.5300  0.1396 -0.1901
   49CHL1   C18 3579   2.993   2.767   7.442 -0.3699 -0.2541 -0.6698
   49CHL1  H18A 3580   2.898   2.728   7.484 -1.3766  1.2608 -1.4308
   49CHL1  H18B 3581   3.004   2.864   7.496  0.4149 -0.0595 -1.1600
   49CHL1  H18C 3582   2.980   2.803   7.337 -1.4426  1.7398  0.0817
   49CHL1   C12 3583   3.235   2.727   7.415 -0.2692  0.1539 -0.1725
   49CHL1  H12A 3584   3.247   2.828   7.461  3.7610  0.5298 -1.6456
   49CHL1  H12B 3585   3.323   2.668   7.449  0.6471  0.0152 -2.6079
   49CHL1   C11 3586   3.223   2.755   7.263 -0.0754 -0.5816 -0.0426
   49CHL1  H11A 3587   3.150   2.834   7.238 -0.2391 -1.5571 -3.0570
   49CHL1  H11B 3588   3.320   2.800   7.231  0.0640  0.2652  1.4975
   49CHL1    C9 3589   3.198   2.629   7.176 -0.7007  0.4233  0.4828
   49CHL1    H9 3590   3.280   2.558   7.204  1.1283  1.9536 -0.7769
   49CHL1   C10 3591   3.194   2.653   7.020  0.0321  0.5883  0.3042
   49CHL1   C19 3592   3.093   2.763   6.976 -0.2115 -0.6083 -0.0539
   49CHL1  H19A 3593   3.094   2.767   6.865 -1.1560 -1.0257 -0.0819
   49CHL1  H19B 3594   2.991   2.761   7.019  0.2448 -0.1108  1.0753
   49CHL1  H19C 3595   3.136   2.859   7.012 -0.3005  0.0726 -1.6828
   49CHL1    C1 3596   3.336   2.687   6.974  0.3434  0.6250  0.1972
   49CHL1   H1A 3597   3.368   2.778   7.029 -1.9523  1.0168  0.9864
   49CHL1   H1B 3598   3.402   2.603   7.004 -1.2930 -0.3255  1.3093
   49CHL1    C2 3599   3.350   2.700   6.814  0.6371  0.2816 -1.4412
   49CHL1   H2A 3600   3.454   2.720   6.782  0.6265  1.3538 -0.8658
   49CHL1   H2B 3601   3.289   2.785   6.777 -0.1168  0.9317  1.0875
   49CHL1   C20 3602   3.058   2.692   7.726 -0.0264  0.1864  0.0551
   49CHL1   H20 3603   2.966   2.752   7.705  0.7059  1.0450 -0.7824
   49CHL1   C21 3604   3.177   2.785   7.749 -0.4775  0.4043  0.6977
   49CHL1  H21A 3605   3.184   2.843   7.654  0.1895 -0.6167  0.1032
   49CHL1  H21B 3606   3.269   2.725   7.761  1.0020  2.2248 -0.8937
   49CHL1  H21C 3607   3.176   2.864   7.827  2.5792  1.5490 -0.2540
   49CHL1   C22 3608   3.020   2.617   7.859 -0.0181  0.2856 -0.3482
   49CHL1  H22A 3609   2.946   2.540   7.828 -1.7655  2.4389 -1.7194
   49CHL1  H22B 3610   3.109   2.559   7.893 -2.0651 -1.0520  3.2789
   49CHL1   C23 3611   2.958   2.702   7.971 -0.2267 -0.2394 -0.3572
   49CHL1  H23A 3612   3.039   2.775   7.992  1.4173 -2.5571  2.0004
   49CHL1  H23B 3613   2.874   2.758   7.925  0.4835  0.3819 -0.9319
   49CHL1   C24 3614   2.917   2.611   8.091  0.1440 -0.1136  0.2377
   49CHL1  H24A 3615   2.860   2.524   8.055 -0.9853  0.4615  0.5837
   49CHL1  H24B 3616   3.010   2.570   8.136  0.4834 -0.6074 -0.8908
   49CHL1   C25 3617   2.829   2.675   8.206 -0.1043  0.4039  0.3614
   49CHL1   H25 3618   2.738   2.710   8.153 -0.0673 -0.2232 -0.1143
   49CHL1   C26 3619   2.788   2.575   8.313 -0.2460  0.3243  0.2053
   49CHL1  H26A 3620   2.724   2.626   8.388  1.3909  1.1972  1.0325
   49CHL1  H26B 3621   2.730   2.495   8.261 -0.3900  0.9454 -0.6232
   49CHL1  H26C 3622   2.878   2.525   8.355 -0.1636 -1.3378 -1.7769
   49CHL1   C27 3623   2.906   2.801   8.264 -0.5118  0.6866 -0.2234
   49CHL1  H27A 3624   2.845   2.861   8.336  0.3771 -0.0740  1.2115
   49CHL1  H27B 3625   2.998   2.772   8.318 -0.5913  0.0409 -0.4354
   49CHL1  H27C 3626   2.940   2.867   8.181 -0.7381 -0.7860 -1.5329
   50CHL1    C3 3627   4.131   3.904   6.845  0.3354 -0.2893  0.5583
   50CHL1    H3 3628   4.140   3.794   6.839  4.3457 -0.0800 -0.2619
   50CHL1    O3 3629   4.118   3.965   6.715  0.2453  0.4973  0.2176
   50CHL1   H3' 3630   4.155   3.900   6.654  0.5034  0.8232  0.0277
   50CHL1    C4 3631   4.000   3.943   6.920 -0.2597  0.4397 -0.6874
   50CHL1   H4A 3632   3.968   4.046   6.892 -0.3092  0.3421 -0.9930
   50CHL1   H4B 3633   3.913   3.894   6.872 -1.4355 -1.0210  2.6609
   50CHL1    C5 3634   4.017   3.933   7.068  0.4090  0.7971 -0.3300
   50CHL1    C6 3635   3.923   3.868   7.144  0.5396 -0.4603  0.3286
   50CHL1    H6 3636   3.841   3.838   7.077  0.3063  4.6468 -2.1152
   50CHL1    C7 3637   3.918   3.842   7.293 -0.2180 -0.8172 -1.0074
   50CHL1   H7A 3638   3.816   3.845   7.337 -0.4649 -2.0992 -1.4330
   50CHL1   H7B 3639   3.939   3.733   7.307 -1.0932 -0.8317  0.3647
   50CHL1    C8 3640   4.032   3.918   7.369  0.0134  0.0496 -0.5300
   50CHL1    H8 3641   3.993   4.022   7.375 -2.4366 -0.8629  3.3751
   50CHL1   C14 3642   4.056   3.864   7.510 -0.6676  0.2853  0.0095
   50CHL1   H14 3643   4.092   3.760   7.494  0.7245  0.9530 -1.5241
   50CHL1   C15 3644   3.939   3.844   7.603  0.3374 -0.3873  0.4650
   50CHL1  H15A 3645   3.879   3.937   7.595 -0.7900 -0.9567  2.0010
   50CHL1  H15B 3646   3.880   3.754   7.574  1.1120 -0.6492 -0.3793
   50CHL1   C16 3647   4.007   3.831   7.744  0.1632  0.0547  1.1168
   50CHL1  H16A 3648   3.953   3.911   7.801 -1.5693 -1.5494  1.8333
   50CHL1  H16B 3649   3.989   3.738   7.802  1.3550  0.9112  2.9863
   50CHL1   C17 3650   4.156   3.871   7.727 -0.2630 -0.8063  0.4725
   50CHL1   H17 3651   4.220   3.780   7.722  0.6270 -0.2840  1.8008
   50CHL1   C13 3652   4.170   3.937   7.589  0.1674  0.2628 -0.0105
   50CHL1   C18 3653   4.121   4.081   7.607 -0.0581  0.2344 -0.0165
   50CHL1  H18A 3654   4.109   4.127   7.506  0.7705  1.2321  0.3258
   50CHL1  H18B 3655   4.022   4.087   7.657  0.2858 -1.7403  0.9709
   50CHL1  H18C 3656   4.196   4.144   7.659  1.2951 -1.8674  0.7007
   50CHL1   C12 3657   4.298   3.916   7.516  0.1692 -0.4005  0.0880
   50CHL1  H12A 3658   4.384   3.974   7.555 -0.7149  0.8708  0.2139
   50CHL1  H12B 3659   4.325   3.809   7.504  2.5930  0.2681 -1.0881
   50CHL1   C11 3660   4.289   3.964   7.370  0.2288  0.3190 -0.4485
   50CHL1  H11A 3661   4.296   4.074   7.383 -0.1548  0.1284  1.7178
   50CHL1  H11B 3662   4.379   3.929   7.315  2.1000  0.7784  2.1490
   50CHL1    C9 3663   4.164   3.914   7.289 -0.2303  0.5023  0.0302
   50CHL1    H9 3664   4.189   3.808   7.269 -0.7898  0.4003 -0.1555
   50CHL1   C10 3665   4.148   3.975   7.147 -0.2229 -0.6204 -0.0857
   50CHL1   C19 3666   4.148   4.128   7.145  0.7442 -0.2622 -0.2129
   50CHL1  H19A 3667   4.245   4.167   7.183  1.3636  0.6242 -2.5376
   50CHL1  H19B 3668   4.141   4.170   7.043 -1.0106 -0.7419 -0.3194
   50CHL1  H19C 3669   4.064   4.165   7.208  1.0225  2.2334 -1.2293
   50CHL1    C1 3670   4.272   3.925   7.063  0.6046  0.4974  0.2256
   50CHL1   H1A 3671   4.358   3.974   7.114  0.2767  0.9718  0.3281
   50CHL1   H1B 3672   4.276   3.815   7.077 -1.2852  0.4994  1.0943
   50CHL1    C2 3673   4.264   3.959   6.911  0.2882 -0.0201  0.3773
   50CHL1   H2A 3674   4.345   3.909   6.853 -0.8546 -1.0182 -0.4086
   50CHL1   H2B 3675   4.269   4.069   6.897 -0.7396  0.2873  2.1236
   50CHL1   C20 3676   4.208   3.953   7.853 -0.1113  0.4367 -0.1236
   50CHL1   H20 3677   4.151   4.047   7.866  1.8288  1.9780 -1.9836
   50CHL1   C21 3678   4.353   3.999   7.838  0.1056 -1.3461 -0.0480
   50CHL1  H21A 3679   4.367   4.055   7.743 -0.5031  0.0453  0.6611
   50CHL1  H21B 3680   4.427   3.915   7.835  1.1819 -0.4244 -0.2039
   50CHL1  H21C 3681   4.389   4.063   7.921 -0.3370 -0.0936 -0.7917
   50CHL1   C22 3682   4.188   3.854   7.975 -0.3344 -0.2288  0.2325
   50CHL1  H22A 3683   4.083   3.824   7.993 -0.2663 -0.0427  0.9614
   50CHL1  H22B 3684   4.246   3.761   7.958 -0.4018 -0.0903 -0.8623
   50CHL1   C23 3685   4.248   3.905   8.108  0.6914  0.1979  0.2046
   50CHL1  H23A 3686   4.358   3.921   8.097  0.7961 -0.7056 -0.1046
   50CHL1  H23B 3687   4.211   4.010   8.116  2.4360  0.7276  3.5261
   50CHL1   C24 3688   4.228   3.809   8.225  0.1850  0.0633  0.2227
   50CHL1  H24A 3689   4.258   3.855   8.322 -0.2276 -0.0656  0.4109
   50CHL1  H24B 3690   4.122   3.780   8.219  0.7255 -1.9040 -0.5403
   50CHL1   C25 3691   4.308   3.676   8.225  0.8755 -0.1106 -0.0479
   50CHL1   H25 3692   4.273   3.617   8.138  0.8893  0.8294 -0.7044
   50CHL1   C26 3693   4.457   3.700   8.207 -0.1702  0.4738 -0.1682
   50CHL1  H26A 3694   4.475   3.765   8.296 -1.8297  0.2184  0.4022
   50CHL1  H26B 3695   4.518   3.609   8.225 -1.5113 -0.4062  0.0908
   50CHL1  H26C 3696   4.492   3.743   8.111  0.2093 -2.8496 -1.6506
   50CHL1   C27 3697   4.291   3.603   8.360 -0.3757 -0.1154 -0.0430
   50CHL1  H27A 3698   4.348   3.508   8.372  1.6743  1.1067  0.3758
   50CHL1  H27B 3699   4.321   3.660   8.450  0.9774 -1.5067  0.4357
   50CHL1  H27C 3700   4.186   3.575   8.381  0.6876 -2.6702  2.5256
   51CHL1    C3 3701   4.697   2.241   6.693  0.3998 -0.2576  0.1954
   51CHL1    H3 3702   4.802   2.213   6.711  1.0370  0.5068 -1.9624
   51CHL1    O3 3703   4.657   2.172   6.574  0.0217 -0.3468  0.3739
   51CHL1   H3' 3704   4.587   2.228   6.540 -0.3190  1.2400  3.2940
   51CHL1    C4 3705   4.586   2.216   6.801 -0.5150 -0.1133 -0.6743
   51CHL1   H4A 3706   4.480   2.229   6.769 -0.3310  2.2114 -0.5741
   51CHL1   H4B 3707   4.591   2.108   6.826 -0.6386 -0.4709 -2.1061
   51CHL1    C5 3708   4.615   2.301   6.929 -0.3801  0.4290  0.5031
   51CHL1    C6 3709   4.627   2.244   7.054  0.5205  0.7162 -0.0346
   51CHL1    H6 3710   4.625   2.134   7.066  0.0756  0.3580 -2.7986
   51CHL1    C7 3711   4.647   2.326   7.180  0.4670 -0.3008  0.7409
   51CHL1   H7A 3712   4.599   2.278   7.268 -0.9503 -1.4710 -0.5827
   51CHL1   H7B 3713   4.754   2.321   7.208 -0.0198  0.2002  2.8725
   51CHL1    C8 3714   4.619   2.478   7.152  0.3267  0.0489 -0.2365
   51CHL1    H8 3715   4.512   2.499   7.135  0.5015  0.5667 -0.7571
   51CHL1   C14 3716   4.676   2.555   7.272 -0.4510  0.4651  0.5508
   51CHL1   H14 3717   4.785   2.533   7.273 -0.6019 -0.3241  1.5097
   51CHL1   C15 3718   4.617   2.534   7.413 -0.0906  0.4007 -1.0497
   51CHL1  H15A 3719   4.506   2.541   7.412 -0.4458 -2.8152  1.0681
   51CHL1  H15B 3720   4.648   2.434   7.450  1.6302  0.8277 -1.2404
   51CHL1   C16 3721   4.683   2.646   7.502  0.2158 -0.0510  0.1806
   51CHL1  H16A 3722   4.600   2.688   7.563  0.0071  0.1401 -0.2299
   51CHL1  H16B 3723   4.760   2.603   7.569  0.4130  1.4418  0.9657
   51CHL1   C17 3724   4.738   2.755   7.404  0.4775  0.1898 -0.3253
   51CHL1   H17 3725   4.847   2.739   7.398  0.4297 -0.7967  1.0818
   51CHL1   C13 3726   4.678   2.705   7.263 -0.1473  0.8045  0.1171
   51CHL1   C18 3727   4.533   2.762   7.258  0.4004 -0.1449 -0.2329
   51CHL1  H18A 3728   4.471   2.760   7.350  1.1210  0.3810  0.2799
   51CHL1  H18B 3729   4.539   2.866   7.219  4.1147 -0.5627 -1.1233
   51CHL1  H18C 3730   4.464   2.708   7.189  0.3783 -0.6608  0.1827
   51CHL1   C12 3731   4.754   2.748   7.134 -0.7035  0.2219 -0.2476
   51CHL1  H12A 3732   4.764   2.857   7.115  1.8820 -0.2501 -2.0679
   51CHL1  H12B 3733   4.856   2.706   7.145 -1.2365 -0.8513  0.8984
   51CHL1   C11 3734   4.690   2.682   7.009  0.5422  0.3914  0.1617
   51CHL1  H11A 3735   4.594   2.735   6.990  0.1961 -0.5616 -0.8500
   51CHL1  H11B 3736   4.755   2.702   6.922 -1.7772 -0.2127 -1.8097
   51CHL1    C9 3737   4.687   2.528   7.026 -0.0267  0.6535  0.2300
   51CHL1    H9 3738   4.795   2.499   7.030  0.3981  2.2151  0.8590
   51CHL1   C10 3739   4.627   2.456   6.904  0.6415  0.1564  0.1711
   51CHL1   C19 3740   4.485   2.512   6.868  0.3353  0.3140  0.2008
   51CHL1  H19A 3741   4.418   2.512   6.957  3.0063  1.6498  2.3591
   51CHL1  H19B 3742   4.486   2.619   6.839 -0.6005  0.7177  1.5640
   51CHL1  H19C 3743   4.445   2.448   6.787  1.0456 -0.7302  0.6477
   51CHL1    C1 3744   4.721   2.476   6.785  0.3449 -0.6264  0.1007
   51CHL1   H1A 3745   4.702   2.581   6.753  3.8466  0.1109  0.0344
   51CHL1   H1B 3746   4.827   2.461   6.815 -0.0577  0.0157  1.9909
   51CHL1    C2 3747   4.698   2.388   6.660 -0.1746 -0.1107 -0.0126
   51CHL1   H2A 3748   4.774   2.417   6.584  0.9665 -0.6665  0.8861
   51CHL1   H2B 3749   4.597   2.422   6.628 -0.8956 -0.9387  1.2760
   51CHL1   C20 3750   4.704   2.895   7.451  0.7230 -0.2348  0.3783
   51CHL1   H20 3751   4.594   2.909   7.459  0.8123  0.8257 -0.1019
   51CHL1   C21 3752   4.760   3.005   7.355  0.5998  0.3238  0.6239
   51CHL1  H21A 3753   4.755   3.107   7.398  1.5693  0.1197  1.2401
   51CHL1  H21B 3754   4.694   2.997   7.265  0.0644  0.3841  1.0020
   51CHL1  H21C 3755   4.864   2.987   7.321  1.0805  0.7480  1.8066
   51CHL1   C22 3756   4.758   2.924   7.592  0.4377 -0.2274  0.5174
   51CHL1  H22A 3757   4.724   3.026   7.619 -1.0693  0.0798 -2.1999
   51CHL1  H22B 3758   4.710   2.848   7.657  0.8887 -1.3018 -0.3823
   51CHL1   C23 3759   4.911   2.899   7.597 -0.5984 -0.1250 -0.1132
   51CHL1  H23A 3760   4.942   2.793   7.585  2.5889  0.7334 -0.3396
   51CHL1  H23B 3761   4.967   2.959   7.522  1.8040 -2.4539 -0.3398
   51CHL1   C24 3762   4.979   2.937   7.733  0.1722  0.3885  0.2710
   51CHL1  H24A 3763   4.928   3.031   7.764  1.8936  1.0026  1.3664
   51CHL1  H24B 3764   4.954   2.854   7.802  2.6366 -1.3534 -0.7980
   51CHL1   C25 3765   5.126   2.973   7.720 -0.3001  0.6695  0.0628
   51CHL1   H25 3766   5.129   3.071   7.668  0.4367 -0.1116 -1.4546
   51CHL1   C26 3767   5.195   2.993   7.860  0.6992  0.3159  0.0613
   51CHL1  H26A 3768   5.299   3.029   7.848  0.6929  0.8716  1.4297
   51CHL1  H26B 3769   5.146   3.061   7.933 -0.0311 -2.5412  2.4527
   51CHL1  H26C 3770   5.205   2.893   7.908  0.7313 -0.9055 -2.3393
   51CHL1   C27 3771   5.208   2.873   7.628 -0.6046 -0.4711 -0.5165
   51CHL1  H27A 3772   5.188   2.903   7.523 -0.6577 -0.8246 -0.6092
   51CHL1  H27B 3773   5.313   2.895   7.653 -1.0235 -0.7653  1.6534
   51CHL1  H27C 3774   5.188   2.767   7.655  1.4684 -0.9278 -0.6640
   52CHL1    C3 3775   5.407   0.439   7.212  0.1780  0.5543  0.2612
   52CHL1    H3 3776   5.507   0.487   7.204 -0.0163  0.8301 -0.5844
   52CHL1    O3 3777   5.370   0.378   7.086 -0.0198  0.1130 -0.5136
   52CHL1   H3' 3778   5.313   0.305   7.110  0.6141 -0.8267 -1.7495
   52CHL1    C4 3779   5.417   0.322   7.320 -0.6253  0.6462 -0.4782
   52CHL1   H4A 3780   5.336   0.247   7.312  2.2565 -2.7551  0.0577
   52CHL1   H4B 3781   5.513   0.273   7.293 -0.6880  1.8427 -3.2372
   52CHL1    C5 3782   5.424   0.371   7.468 -0.0602 -0.6710 -0.8566
   52CHL1    C6 3783   5.523   0.330   7.548  0.2144 -0.1174  0.3176
   52CHL1    H6 3784   5.589   0.250   7.512  0.9494  0.4646  0.3571
   52CHL1    C7 3785   5.548   0.379   7.684  0.3760  0.8894 -0.0660
   52CHL1   H7A 3786   5.560   0.289   7.748  2.5693 -1.2011 -3.1429
   52CHL1   H7B 3787   5.640   0.440   7.696  1.7277 -1.3030  1.3723
   52CHL1    C8 3788   5.427   0.462   7.737  0.3657  0.4728  0.0921
   52CHL1    H8 3789   5.340   0.400   7.770  0.4396  0.8145  0.9741
   52CHL1   C14 3790   5.471   0.540   7.857 -0.5325 -0.4017  0.0775
   52CHL1   H14 3791   5.542   0.617   7.820  2.5570 -3.4814 -0.9421
   52CHL1   C15 3792   5.547   0.458   7.963  1.0135 -0.3303 -0.0481
   52CHL1  H15A 3793   5.490   0.366   7.990 -0.3552  0.9735  1.7443
   52CHL1  H15B 3794   5.649   0.434   7.925  0.1883  2.0829 -4.3041
   52CHL1   C16 3795   5.546   0.551   8.079 -0.2760 -0.1263 -0.2023
   52CHL1  H16A 3796   5.503   0.496   8.165 -0.7935 -0.2549 -0.5341
   52CHL1  H16B 3797   5.648   0.578   8.113 -0.2226 -1.4261  0.7441
   52CHL1   C17 3798   5.448   0.671   8.049 -0.1158  0.2860  0.1084
   52CHL1   H17 3799   5.505   0.759   8.012 -2.9606  2.5542  0.7976
   52CHL1   C13 3800   5.360   0.620   7.930 -0.2659  0.2874 -0.1681
   52CHL1   C18 3801   5.250   0.531   7.983 -0.1161  0.5197  0.4494
   52CHL1  H18A 3802   5.303   0.457   8.046  2.6298  2.3036  0.4270
   52CHL1  H18B 3803   5.178   0.583   8.050  0.1557 -0.2154  1.3282
   52CHL1  H18C 3804   5.190   0.485   7.902  1.0322  0.2404 -0.2637
   52CHL1   C12 3805   5.303   0.727   7.832 -0.0456 -0.5533 -0.2416
   52CHL1  H12A 3806   5.212   0.768   7.882 -0.4985  2.7781 -3.3833
   52CHL1  H12B 3807   5.379   0.806   7.813 -0.7180  0.1288 -0.1767
   52CHL1   C11 3808   5.257   0.657   7.698 -0.5077  0.0139  0.6588
   52CHL1  H11A 3809   5.168   0.593   7.713  0.7504 -2.9364 -2.9755
   52CHL1  H11B 3810   5.227   0.746   7.639 -1.1647 -0.3416  0.4451
   52CHL1    C9 3811   5.367   0.559   7.631  0.2151 -0.0786 -0.8785
   52CHL1    H9 3812   5.448   0.631   7.603  0.6072  0.3054  1.0568
   52CHL1   C10 3813   5.327   0.481   7.500  0.9000 -0.3965 -0.0464
   52CHL1   C19 3814   5.184   0.414   7.515  0.6450  0.2804 -0.0882
   52CHL1  H19A 3815   5.153   0.356   7.425  0.3497 -1.2724  0.9652
   52CHL1  H19B 3816   5.193   0.329   7.586  0.9152 -1.1984 -1.8264
   52CHL1  H19C 3817   5.103   0.483   7.548 -1.2909 -0.3545 -3.1137
   52CHL1    C1 3818   5.315   0.592   7.392 -0.2580  0.0188  0.6271
   52CHL1   H1A 3819   5.229   0.658   7.416  0.0681  0.8788 -0.4997
   52CHL1   H1B 3820   5.412   0.644   7.384 -0.2150  0.1502  1.8386
   52CHL1    C2 3821   5.296   0.535   7.251 -0.7456  0.9174 -0.5189
   52CHL1   H2A 3822   5.288   0.610   7.168  1.7769  1.9187  0.0435
   52CHL1   H2B 3823   5.204   0.474   7.247 -0.1358 -0.0237 -0.4298
   52CHL1   C20 3824   5.374   0.717   8.179 -0.0604 -0.0869 -0.4759
   52CHL1   H20 3825   5.313   0.629   8.208 -0.1959 -0.4092 -1.6901
   52CHL1   C21 3826   5.277   0.843   8.155 -0.3831 -0.0895  0.2010
   52CHL1  H21A 3827   5.193   0.824   8.085  0.2165 -1.7922 -0.1072
   52CHL1  H21B 3828   5.342   0.929   8.129  2.7970 -1.8531  1.6799
   52CHL1  H21C 3829   5.230   0.885   8.247  1.1861 -2.2048  2.0971
   52CHL1   C22 3830   5.478   0.758   8.298 -0.2169  0.4419  0.1792
   52CHL1  H22A 3831   5.558   0.683   8.318 -1.9107 -0.6248  3.8393
   52CHL1  H22B 3832   5.538   0.843   8.259  2.3696 -2.9380 -4.3364
   52CHL1   C23 3833   5.422   0.801   8.432  0.2129 -0.5246 -0.2301
   52CHL1  H23A 3834   5.388   0.906   8.418 -0.8962 -0.8670 -0.1745
   52CHL1  H23B 3835   5.331   0.745   8.463  0.6870 -0.4676  1.3993
   52CHL1   C24 3836   5.521   0.774   8.549  0.0984  0.8840 -0.0138
   52CHL1  H24A 3837   5.534   0.664   8.544  1.8676  1.1227 -2.3801
   52CHL1  H24B 3838   5.620   0.825   8.548 -0.3113  1.7181  0.6428
   52CHL1   C25 3839   5.456   0.811   8.686 -0.2163  0.0260 -0.0439
   52CHL1   H25 3840   5.457   0.922   8.694  2.3887  0.0397  0.3201
   52CHL1   C26 3841   5.317   0.761   8.706 -1.5193  0.2213  0.2932
   52CHL1  H26A 3842   5.323   0.650   8.704  0.3557  0.2668  0.8353
   52CHL1  H26B 3843   5.280   0.784   8.809  0.1563  1.3059  0.7013
   52CHL1  H26C 3844   5.246   0.797   8.629  0.2021  0.2710 -1.3489
   52CHL1   C27 3845   5.551   0.767   8.795  0.0585  0.5518 -1.2835
   52CHL1  H27A 3846   5.499   0.795   8.889  0.2074  0.0235 -1.0383
   52CHL1  H27B 3847   5.568   0.658   8.808 -1.5776  0.4542  0.5217
   52CHL1  H27C 3848   5.646   0.824   8.807 -0.8445  1.8630  0.0979
   53CHL1    C3 3849   3.643   2.113   6.898 -0.1978  0.1969  0.1302
   53CHL1    H3 3850   3.751   2.091   6.912  0.2019  1.1516 -1.1945
   53CHL1    O3 3851   3.593   2.055   6.777  0.3083 -0.1871 -0.1258
   53CHL1   H3' 3852   3.586   1.960   6.791  0.8267 -0.0697  1.0167
   53CHL1    C4 3853   3.575   2.036   7.011  0.2438 -0.4013 -0.3656
   53CHL1   H4A 3854   3.470   2.050   6.975  0.5483  0.4715 -0.9481
   53CHL1   H4B 3855   3.602   1.929   7.003  2.3575  0.0123  0.6597
   53CHL1    C5 3856   3.588   2.095   7.143 -0.7697  0.2568 -0.2610
   53CHL1    C6 3857   3.638   2.015   7.244  0.2252 -0.2366 -0.3085
   53CHL1    H6 3858   3.650   1.908   7.220  0.1593 -0.1416 -0.7792
   53CHL1    C7 3859   3.657   2.072   7.380 -0.2720  0.0597 -0.3272
   53CHL1   H7A 3860   3.622   2.000   7.456  0.3693 -1.6635 -1.5812
   53CHL1   H7B 3861   3.766   2.077   7.401 -0.0017 -0.2727 -1.5676
   53CHL1    C8 3862   3.603   2.212   7.407 -0.4248 -0.6219  0.0216
   53CHL1    H8 3863   3.496   2.192   7.429  0.0008 -0.2088  2.8107
   53CHL1   C14 3864   3.664   2.275   7.529 -0.8231  0.3309 -0.1585
   53CHL1   H14 3865   3.771   2.287   7.503 -0.3107 -1.2262  1.0677
   53CHL1   C15 3866   3.651   2.191   7.658  0.2253  0.4101 -0.2158
   53CHL1  H15A 3867   3.551   2.145   7.667  0.3543  0.3794  1.3671
   53CHL1  H15B 3868   3.727   2.109   7.654 -1.1861 -0.9806  0.3352
   53CHL1   C16 3869   3.683   2.299   7.764  0.1138 -0.0924 -0.5384
   53CHL1  H16A 3870   3.607   2.291   7.845  0.0418  0.4069 -0.5533
   53CHL1  H16B 3871   3.781   2.262   7.802  0.5807  0.6509 -1.0071
   53CHL1   C17 3872   3.680   2.441   7.694  0.1640  0.2518  0.3279
   53CHL1   H17 3873   3.783   2.463   7.659 -0.2618  0.6237 -0.7398
   53CHL1   C13 3874   3.603   2.415   7.562  0.1403  0.6085  0.2830
   53CHL1   C18 3875   3.447   2.406   7.594 -0.2468  0.0692 -0.8102
   53CHL1  H18A 3876   3.422   2.508   7.630  0.2781 -0.0632 -0.0205
   53CHL1  H18B 3877   3.388   2.368   7.508 -1.8883 -1.7133  0.9988
   53CHL1  H18C 3878   3.432   2.336   7.679 -0.1400 -0.8078 -1.5025
   53CHL1   C12 3879   3.624   2.512   7.441  0.3164  0.0386 -0.4558
   53CHL1  H12A 3880   3.575   2.607   7.472 -3.1103 -1.4363 -0.8785
   53CHL1  H12B 3881   3.733   2.517   7.419 -0.1277 -0.6304 -3.0822
   53CHL1   C11 3882   3.556   2.447   7.319 -0.7663 -0.4284  0.6975
   53CHL1  H11A 3883   3.446   2.461   7.320 -0.6954  0.1750  1.0109
   53CHL1  H11B 3884   3.590   2.501   7.228 -1.1241 -2.2527 -0.5757
   53CHL1    C9 3885   3.612   2.305   7.287 -0.3431 -0.2572  0.7059
   53CHL1    H9 3886   3.720   2.322   7.269 -0.3232 -0.8107  0.2662
   53CHL1   C10 3887   3.565   2.247   7.152 -0.0919 -0.0478 -0.3938
   53CHL1   C19 3888   3.417   2.270   7.147 -0.4651 -0.2805  0.4908
   53CHL1  H19A 3889   3.362   2.223   7.063  0.8355  0.4592 -0.8151
   53CHL1  H19B 3890   3.354   2.249   7.237 -1.8226  0.9055 -0.1388
   53CHL1  H19C 3891   3.407   2.376   7.114  0.3413 -1.0995 -2.6871
   53CHL1    C1 3892   3.645   2.311   7.032 -0.1971 -0.1051  0.3876
   53CHL1   H1A 3893   3.626   2.421   7.035 -1.7114 -0.3639  2.3593
   53CHL1   H1B 3894   3.751   2.286   7.053 -0.9495 -1.7068  2.6175
   53CHL1    C2 3895   3.601   2.253   6.901 -0.5407 -0.0113  0.2007
   53CHL1   H2A 3896   3.652   2.304   6.816 -0.9279 -0.3310 -0.2256
   53CHL1   H2B 3897   3.491   2.261   6.887 -0.4481 -0.3443 -0.7552
   53CHL1   C20 3898   3.640   2.552   7.793  0.1088 -0.0033  0.2454
   53CHL1   H20 3899   3.533   2.533   7.812  0.2689 -0.0421  1.1160
   53CHL1   C21 3900   3.665   2.694   7.734 -0.7234  0.2433  0.1077
   53CHL1  H21A 3901   3.771   2.698   7.703 -1.1627 -0.7416 -1.6546
   53CHL1  H21B 3902   3.639   2.767   7.814  0.7259  0.5099  0.3578
   53CHL1  H21C 3903   3.598   2.711   7.647  0.6931 -2.4024 -1.6323
   53CHL1   C22 3904   3.716   2.547   7.936  0.1264 -0.0194 -0.2783
   53CHL1  H22A 3905   3.709   2.443   7.976  1.3853  0.3114  0.8590
   53CHL1  H22B 3906   3.821   2.580   7.924  0.0329  0.6996  0.7869
   53CHL1   C23 3907   3.663   2.639   8.052  0.0719  0.5784 -0.4506
   53CHL1  H23A 3908   3.728   2.623   8.140  0.8363  3.2453 -0.4423
   53CHL1  H23B 3909   3.674   2.746   8.022 -0.0961  0.6928 -0.1148
   53CHL1   C24 3910   3.517   2.588   8.086 -0.1513  0.0145  0.4242
   53CHL1  H24A 3911   3.458   2.601   7.993  3.2609  0.1992 -1.8584
   53CHL1  H24B 3912   3.537   2.480   8.103 -0.6723  0.1842  2.4417
   53CHL1   C25 3913   3.450   2.653   8.205  0.4460  0.6263 -0.6618
   53CHL1   H25 3914   3.453   2.764   8.196 -0.1238  1.1203  3.4084
   53CHL1   C26 3915   3.295   2.625   8.201  0.5119 -0.3901  0.3987
   53CHL1  H26A 3916   3.249   2.653   8.103  0.1584 -0.6528  0.4863
   53CHL1  H26B 3917   3.274   2.522   8.236  1.7873 -0.1831  1.8637
   53CHL1  H26C 3918   3.262   2.697   8.279  0.2723  1.0542 -0.9711
   53CHL1   C27 3919   3.517   2.612   8.331  0.3755 -0.5098 -0.6891
   53CHL1  H27A 3920   3.512   2.502   8.344  3.2507 -0.5776  0.9231
   53CHL1  H27B 3921   3.626   2.634   8.320  0.5386 -1.4175 -0.9221
   53CHL1  H27C 3922   3.478   2.669   8.418 -0.1773  0.9166 -1.8247
   54CHL1    C3 3923   2.564   3.023   7.161 -0.1880 -0.6050  0.1774
   54CHL1    H3 3924   2.534   3.123   7.199  1.9448  0.3211 -0.4348
   54CHL1    O3 3925   2.595   3.028   7.023 -0.5799  0.3349 -0.6496
   54CHL1   H3' 3926   2.591   2.938   6.991  0.7774 -0.5958  1.6065
   54CHL1    C4 3927   2.689   2.980   7.227 -0.0420 -0.6395  0.5389
   54CHL1   H4A 3928   2.709   2.875   7.195 -1.6483 -1.3068  1.6018
   54CHL1   H4B 3929   2.774   3.045   7.197  0.5050 -0.3436  2.5476
   54CHL1    C5 3930   2.668   2.979   7.375  0.0855 -0.3772 -0.1559
   54CHL1    C6 3931   2.743   3.064   7.460  0.1552  0.4824  0.6638
   54CHL1    H6 3932   2.823   3.127   7.418  0.5369  0.7372  1.7440
   54CHL1    C7 3933   2.730   3.073   7.608  0.3666 -0.1388  0.2000
   54CHL1   H7A 3934   2.833   3.061   7.649  0.9505 -0.0063 -1.1702
   54CHL1   H7B 3935   2.685   3.171   7.635 -2.1001 -1.5788  1.7127
   54CHL1    C8 3936   2.645   2.959   7.668  0.9172  0.3959 -0.1076
   54CHL1    H8 3937   2.708   2.868   7.666  0.0789 -0.1990  0.1051
   54CHL1   C14 3938   2.605   3.001   7.809  0.0174  0.3138 -0.1630
   54CHL1   H14 3939   2.548   3.097   7.803 -2.5412 -0.9999  1.3810
   54CHL1   C15 3940   2.722   3.020   7.914  0.5242 -0.0846  0.0704
   54CHL1  H15A 3941   2.782   2.930   7.887 -3.4559 -3.1782  0.6383
   54CHL1  H15B 3942   2.781   3.112   7.893 -0.5826  1.0032  1.5233
   54CHL1   C16 3943   2.643   2.999   8.044  0.3849  0.3491 -0.3484
   54CHL1  H16A 3944   2.697   2.921   8.101  0.5431  1.0779  0.5260
   54CHL1  H16B 3945   2.632   3.091   8.105 -1.6869  0.4265 -0.7483
   54CHL1   C17 3946   2.494   2.944   8.015 -0.3197 -0.1550 -0.0743
   54CHL1   H17 3947   2.434   3.037   8.007  0.3815  0.3462  0.3602
   54CHL1   C13 3948   2.509   2.891   7.869 -0.1097 -0.2563 -0.2133
   54CHL1   C18 3949   2.564   2.751   7.876  0.4933 -0.0074  0.5319
   54CHL1  H18A 3950   2.612   2.717   7.782 -2.0284 -0.3899 -0.7086
   54CHL1  H18B 3951   2.646   2.750   7.951  0.1776 -0.1776  0.8778
   54CHL1  H18C 3952   2.487   2.680   7.911  0.0991 -0.2192 -0.7086
   54CHL1   C12 3953   2.379   2.890   7.791  0.2601  0.0601 -0.0430
   54CHL1  H12A 3954   2.302   2.819   7.830  0.6416 -1.3524 -1.7065
   54CHL1  H12B 3955   2.345   2.995   7.780 -0.3619 -0.0925  0.3683
   54CHL1   C11 3956   2.415   2.843   7.646  0.3911 -0.0978 -0.0479
   54CHL1  H11A 3957   2.453   2.740   7.661 -0.6443 -0.2723  1.6178
   54CHL1  H11B 3958   2.325   2.855   7.581 -0.0496  2.3539  0.9130
   54CHL1    C9 3959   2.520   2.939   7.579  0.4715  0.5374  0.3384
   54CHL1    H9 3960   2.472   3.039   7.571  1.2746  0.8132 -1.3832
   54CHL1   C10 3961   2.555   2.892   7.434 -0.0110 -0.1705  0.8380
   54CHL1   C19 3962   2.601   2.748   7.428  0.0725 -0.1072 -0.0954
   54CHL1  H19A 3963   2.531   2.682   7.483  0.1075  1.0438  1.3878
   54CHL1  H19B 3964   2.606   2.720   7.321  0.7930  0.5900 -0.2574
   54CHL1  H19C 3965   2.701   2.722   7.469 -0.2073 -3.6778 -1.3388
   54CHL1    C1 3966   2.425   2.911   7.346 -0.4944 -0.2325  0.8662
   54CHL1   H1A 3967   2.356   2.827   7.368 -1.1062  0.1939  0.6306
   54CHL1   H1B 3968   2.385   3.010   7.380 -1.7041 -0.8693  1.3855
   54CHL1    C2 3969   2.451   2.918   7.194  0.0911 -0.2025  0.3061
   54CHL1   H2A 3970   2.364   2.951   7.134  1.5320  0.7496 -1.3615
   54CHL1   H2B 3971   2.491   2.821   7.159 -3.0673 -1.5027  0.0486
   54CHL1   C20 3972   2.432   2.854   8.119 -0.3950 -0.4762  0.3753
   54CHL1   H20 3973   2.476   2.752   8.122  2.3940  0.6336  0.6060
   54CHL1   C21 3974   2.285   2.843   8.096 -0.1155 -0.4773 -0.0958
   54CHL1  H21A 3975   2.233   2.932   8.054 -1.0282 -0.4244  1.0781
   54CHL1  H21B 3976   2.229   2.819   8.189  0.0418  1.8968  0.6646
   54CHL1  H21C 3977   2.260   2.755   8.033 -3.4259 -0.5902  1.1932
   54CHL1   C22 3978   2.460   2.914   8.262  0.0353  0.3643  0.3309
   54CHL1  H22A 3979   2.423   2.843   8.339 -1.2621 -0.7241 -1.2481
   54CHL1  H22B 3980   2.569   2.926   8.283 -0.3442  1.8243  1.7701
   54CHL1   C23 3981   2.396   3.056   8.291 -0.9868 -0.0653  0.0726
   54CHL1  H23A 3982   2.439   3.132   8.222 -2.0520 -1.4411 -2.2300
   54CHL1  H23B 3983   2.288   3.070   8.270 -0.7877  2.8969  0.4964
   54CHL1   C24 3984   2.400   3.106   8.436  0.0336  0.6319  0.5157
   54CHL1  H24A 3985   2.349   3.028   8.498 -1.1815 -0.0278 -1.2460
   54CHL1  H24B 3986   2.505   3.100   8.471 -0.1449  0.0421  0.9849
   54CHL1   C25 3987   2.355   3.251   8.471 -0.8254  0.0777  0.9370
   54CHL1   H25 3988   2.244   3.256   8.460 -0.6152  0.5211 -1.4473
   54CHL1   C26 3989   2.403   3.294   8.608 -0.0602 -0.1362 -0.1567
   54CHL1  H26A 3990   2.513   3.296   8.620 -0.1139 -0.5908  0.4316
   54CHL1  H26B 3991   2.347   3.389   8.622 -1.3166 -1.0140  0.9718
   54CHL1  H26C 3992   2.366   3.223   8.685  1.2731  0.9956  1.5956
   54CHL1   C27 3993   2.410   3.336   8.365  0.0523 -0.3090  1.1122
   54CHL1  H27A 3994   2.384   3.441   8.392  1.4162  0.3396  0.0166
   54CHL1  H27B 3995   2.520   3.320   8.368 -0.3105 -3.0865  2.6285
   54CHL1  H27C 3996   2.362   3.333   8.265  0.3448  0.9277  0.9167
   55CHL1    C3 3997   5.387   4.296   6.819  0.7315 -0.0548  0.2117
   55CHL1    H3 3998   5.291   4.348   6.842  1.2791  0.7026  0.8426
   55CHL1    O3 3999   5.416   4.288   6.674  0.3512  0.3217  0.4719
   55CHL1   H3' 4000   5.336   4.277   6.623  1.3800  0.9127 -1.3495
   55CHL1    C4 4001   5.510   4.371   6.883 -0.6003  0.4154 -0.1890
   55CHL1   H4A 4002   5.604   4.324   6.847 -1.2945 -0.9359 -0.3221
   55CHL1   H4B 4003   5.518   4.474   6.844  0.2631  0.9650  1.3658
   55CHL1    C5 4004   5.504   4.371   7.035 -0.2135 -0.1845  0.0412
   55CHL1    C6 4005   5.495   4.485   7.106 -0.3380  0.1782 -0.1854
   55CHL1    H6 4006   5.504   4.582   7.056 -1.6446 -0.5627 -1.9677
   55CHL1    C7 4007   5.517   4.505   7.256 -0.2225  0.3752 -0.0264
   55CHL1   H7A 4008   5.600   4.575   7.281  0.1248 -0.0237 -0.0636
   55CHL1   H7B 4009   5.416   4.529   7.295 -0.7214  1.7671 -2.0431
   55CHL1    C8 4010   5.557   4.367   7.312 -0.0401  0.3150  0.2139
   55CHL1    H8 4011   5.667   4.353   7.302  0.2022  1.7245  0.6668
   55CHL1   C14 4012   5.526   4.375   7.463  0.2932 -0.5248  0.0312
   55CHL1   H14 4013   5.415   4.385   7.461  0.4104  0.8267 -0.2405
   55CHL1   C15 4014   5.585   4.489   7.548 -0.0792  0.5181 -0.0830
   55CHL1  H15A 4015   5.695   4.491   7.536 -0.3504  0.4909 -3.7215
   55CHL1  H15B 4016   5.539   4.587   7.524  0.2294  0.5206 -0.6731
   55CHL1   C16 4017   5.573   4.435   7.693  1.0510  0.1060 -0.7610
   55CHL1  H16A 4018   5.672   4.425   7.742  0.2070 -0.4383  0.9166
   55CHL1  H16B 4019   5.508   4.508   7.747 -1.0884 -0.8979 -1.8598
   55CHL1   C17 4020   5.507   4.295   7.690 -1.0357  0.0119  0.5455
   55CHL1   H17 4021   5.400   4.323   7.685 -0.8202  0.7902  0.1767
   55CHL1   C13 4022   5.551   4.250   7.540 -0.3076  0.4288 -0.2899
   55CHL1   C18 4023   5.702   4.225   7.553  0.4530 -0.0473 -0.4556
   55CHL1  H18A 4024   5.745   4.234   7.451  0.9101 -1.0598 -0.3591
   55CHL1  H18B 4025   5.764   4.286   7.622  3.2191 -1.4220 -1.5848
   55CHL1  H18C 4026   5.720   4.121   7.587  1.0386  0.2540  0.1628
   55CHL1   C12 4027   5.477   4.128   7.487  0.5302 -0.0376  0.6336
   55CHL1  H12A 4028   5.502   4.030   7.533  0.9823 -0.7423 -1.0080
   55CHL1  H12B 4029   5.371   4.157   7.502  1.3925  2.9821  1.6145
   55CHL1   C11 4030   5.510   4.115   7.332  0.0360 -0.4144 -1.0808
   55CHL1  H11A 4031   5.619   4.094   7.327  0.5386  1.3791  0.8837
   55CHL1  H11B 4032   5.448   4.028   7.302 -1.7994 -0.2856  2.0070
   55CHL1    C9 4033   5.476   4.245   7.253  0.0954  0.1156 -0.8395
   55CHL1    H9 4034   5.366   4.265   7.259 -1.1176 -4.8082 -1.9234
   55CHL1   C10 4035   5.502   4.227   7.098 -0.4758  0.0186  0.2929
   55CHL1   C19 4036   5.637   4.150   7.077  0.3936  0.1744 -0.1450
   55CHL1  H19A 4037   5.710   4.177   7.156 -1.3049  0.0732  1.5308
   55CHL1  H19B 4038   5.620   4.041   7.090 -0.9523  0.0732 -2.2021
   55CHL1  H19C 4039   5.675   4.173   6.976  0.6080  1.4326  0.2031
   55CHL1    C1 4040   5.380   4.160   7.025 -0.5158 -0.4997 -0.3079
   55CHL1   H1A 4041   5.364   4.063   7.076 -1.2514 -0.3634 -0.2626
   55CHL1   H1B 4042   5.293   4.222   7.057 -0.0744 -0.1586  0.2517
   55CHL1    C2 4043   5.381   4.157   6.872 -0.1720  0.0864  0.3467
   55CHL1   H2A 4044   5.289   4.112   6.830 -0.3030  1.1123 -0.4901
   55CHL1   H2B 4045   5.476   4.102   6.851 -0.5204  0.3554 -2.1665
   55CHL1   C20 4046   5.527   4.202   7.811  0.1049  0.2575 -0.2208
   55CHL1   H20 4047   5.628   4.154   7.807 -0.7223 -1.7256  1.1451
   55CHL1   C21 4048   5.408   4.091   7.799 -0.3219  0.0248  0.7012
   55CHL1  H21A 4049   5.407   4.034   7.895  0.6312 -0.1338  0.6309
   55CHL1  H21B 4050   5.426   4.018   7.717  0.8699 -0.5673  1.4445
   55CHL1  H21C 4051   5.312   4.147   7.798  0.6153  1.8209  2.5437
   55CHL1   C22 4052   5.515   4.273   7.947  0.7923 -0.2750  0.0797
   55CHL1  H22A 4053   5.563   4.373   7.935 -0.9008  0.4808 -0.7523
   55CHL1  H22B 4054   5.406   4.291   7.956  0.7134  0.8493 -2.2881
   55CHL1   C23 4055   5.562   4.188   8.066 -0.4053 -0.3722 -0.8059
   55CHL1  H23A 4056   5.484   4.115   8.097  0.8508 -1.2611  0.4271
   55CHL1  H23B 4057   5.658   4.143   8.033  0.5680  2.1092 -1.6383
   55CHL1   C24 4058   5.597   4.275   8.191  0.3284 -0.2020 -0.0304
   55CHL1  H24A 4059   5.662   4.356   8.151  0.1741 -0.4417 -0.7890
   55CHL1  H24B 4060   5.497   4.320   8.204 -0.0607 -1.3961  1.2348
   55CHL1   C25 4061   5.652   4.188   8.309 -0.1246 -0.9459  0.6214
   55CHL1   H25 4062   5.594   4.093   8.305 -0.2068 -0.8600 -0.7350
   55CHL1   C26 4063   5.802   4.153   8.280 -0.9077  0.1218 -0.0964
   55CHL1  H26A 4064   5.820   4.112   8.179  2.9960  0.3809  0.3477
   55CHL1  H26B 4065   5.867   4.242   8.293  0.4515 -0.3123 -3.0870
   55CHL1  H26C 4066   5.831   4.080   8.359  0.3631  0.9674  0.2447
   55CHL1   C27 4067   5.627   4.273   8.434 -0.1262 -0.6155 -0.3904
   55CHL1  H27A 4068   5.527   4.318   8.419  0.6668  1.8405  1.0544
   55CHL1  H27B 4069   5.650   4.220   8.529  1.8055  1.5768  0.4716
   55CHL1  H27C 4070   5.703   4.354   8.438 -0.1116 -0.6693  1.7522
   56CHL1    C3 4071   1.833   3.490   6.853  0.3425  0.1684  0.1194
   56CHL1    H3 4072   1.724   3.500   6.834 -0.5227 -3.8081  2.0512
   56CHL1    O3 4073   1.880   3.460   6.723  0.1233  0.6546 -0.6326
   56CHL1   H3' 4074   1.967   3.425   6.745  0.2122 -0.0159 -1.9631
   56CHL1    C4 4075   1.899   3.611   6.930 -0.1283  0.0707 -0.0907
   56CHL1   H4A 4076   2.006   3.580   6.929 -0.4183 -1.1120 -2.5615
   56CHL1   H4B 4077   1.890   3.693   6.855  0.4243  0.6440  0.4657
   56CHL1    C5 4078   1.851   3.635   7.073  0.0082  0.0597  0.0745
   56CHL1    C6 4079   1.805   3.757   7.106  0.4351  0.2062 -0.4773
   56CHL1    H6 4080   1.815   3.834   7.027 -0.4610 -0.6965 -1.5060
   56CHL1    C7 4081   1.770   3.798   7.251 -0.4390 -0.0180  0.7490
   56CHL1   H7A 4082   1.815   3.897   7.272 -0.9782  0.3769  0.0938
   56CHL1   H7B 4083   1.659   3.798   7.261 -0.4781 -2.3013  0.8202
   56CHL1    C8 4084   1.821   3.687   7.351 -0.2840 -0.1045  0.0119
   56CHL1    H8 4085   1.931   3.694   7.365 -0.3223  0.9904 -0.1520
   56CHL1   C14 4086   1.762   3.716   7.489 -0.7317 -0.1336 -0.3346
   56CHL1   H14 4087   1.652   3.703   7.482 -1.0303  1.3488  0.9143
   56CHL1   C15 4088   1.766   3.863   7.551 -0.3586 -0.2860 -0.0217
   56CHL1  H15A 4089   1.857   3.923   7.528  0.2649 -1.4438 -0.6455
   56CHL1  H15B 4090   1.674   3.919   7.525 -0.1065 -0.4651 -1.3708
   56CHL1   C16 4091   1.758   3.830   7.699  0.0195  0.2007 -0.3498
   56CHL1  H16A 4092   1.858   3.856   7.740 -0.7013  1.2748  0.8172
   56CHL1  H16B 4093   1.682   3.887   7.756 -0.5098 -1.1461  0.3297
   56CHL1   C17 4094   1.727   3.682   7.722  0.3740  0.5024 -0.2364
   56CHL1   H17 4095   1.617   3.674   7.710  0.4091 -0.5570  0.0709
   56CHL1   C13 4096   1.790   3.611   7.601 -0.4586 -0.1834  0.7201
   56CHL1   C18 4097   1.944   3.597   7.626 -0.1010 -0.8550  0.8332
   56CHL1  H18A 4098   1.963   3.504   7.682 -0.3038 -0.6644  1.2259
   56CHL1  H18B 4099   1.993   3.584   7.527  0.4996  0.4834  0.9354
   56CHL1  H18C 4100   1.986   3.688   7.674  0.9364 -0.7951 -0.1477
   56CHL1   C12 4101   1.721   3.481   7.552 -0.2149 -0.0647 -0.8238
   56CHL1  H12A 4102   1.732   3.389   7.613  2.6985 -0.6536 -2.0662
   56CHL1  H12B 4103   1.613   3.493   7.525 -0.5168 -2.2346 -0.8104
   56CHL1   C11 4104   1.786   3.445   7.410  0.0436  0.1500  0.5698
   56CHL1  H11A 4105   1.888   3.412   7.438 -0.2152 -2.7792 -1.4244
   56CHL1  H11B 4106   1.747   3.345   7.382  1.6382 -0.4817  0.4762
   56CHL1    C9 4107   1.779   3.555   7.302  0.4960  0.7818  0.0594
   56CHL1    H9 4108   1.671   3.564   7.280  0.0991 -3.4584 -0.4704
   56CHL1   C10 4109   1.849   3.512   7.168 -0.8274 -0.5707  0.0646
   56CHL1   C19 4110   1.984   3.457   7.208 -0.6412 -0.2858  0.0779
   56CHL1  H19A 4111   2.044   3.452   7.115 -0.6841 -0.6041  0.0657
   56CHL1  H19B 4112   2.039   3.524   7.277 -0.2398 -0.5637  0.0303
   56CHL1  H19C 4113   1.975   3.354   7.249 -1.8753 -0.0071  0.5558
   56CHL1    C1 4114   1.781   3.395   7.088  0.0276  0.3084 -1.0738
   56CHL1   H1A 4115   1.796   3.304   7.150  0.1507 -0.0958 -1.6929
   56CHL1   H1B 4116   1.670   3.405   7.089 -0.2215 -1.4638  1.7423
   56CHL1    C2 4117   1.839   3.363   6.951  0.2707  0.0260 -0.7630
   56CHL1   H2A 4118   1.785   3.279   6.902  0.2912  0.4846 -1.5769
   56CHL1   H2B 4119   1.947   3.335   6.959 -0.1729 -1.7976 -0.6867
   56CHL1   C20 4120   1.761   3.634   7.865  0.6856  0.8238 -0.1405
   56CHL1   H20 4121   1.870   3.651   7.875  0.5961  2.3978 -1.4244
   56CHL1   C21 4122   1.723   3.483   7.874  0.3100 -0.1343 -0.1647
   56CHL1  H21A 4123   1.726   3.452   7.980  0.9450 -0.0505 -0.1550
   56CHL1  H21B 4124   1.803   3.434   7.814  2.1900  1.9876  0.4437
   56CHL1  H21C 4125   1.621   3.468   7.833  0.5185  1.1028 -1.1896
   56CHL1   C22 4126   1.692   3.721   7.970  0.3117 -1.2266 -0.0158
   56CHL1  H22A 4127   1.756   3.808   7.996 -0.7584  0.1338 -1.6936
   56CHL1  H22B 4128   1.592   3.762   7.941  0.0554 -0.1539  2.1815
   56CHL1   C23 4129   1.656   3.653   8.105 -0.0156  0.0604  0.3605
   56CHL1  H23A 4130   1.584   3.570   8.093  3.1068 -2.8934  0.5067
   56CHL1  H23B 4131   1.752   3.611   8.142 -0.2923 -1.0021 -0.1105
   56CHL1   C24 4132   1.621   3.763   8.200 -0.0514 -0.3505 -0.2652
   56CHL1  H24A 4133   1.693   3.846   8.217 -1.2739  1.2802 -2.4974
   56CHL1  H24B 4134   1.528   3.817   8.173 -0.4951  0.0314  1.8191
   56CHL1   C25 4135   1.608   3.694   8.341  0.7979  1.0667 -0.5256
   56CHL1   H25 4136   1.683   3.612   8.339 -0.0273  0.3153 -1.2055
   56CHL1   C26 4137   1.628   3.793   8.458  0.0772  0.3068  0.1988
   56CHL1  H26A 4138   1.539   3.859   8.449 -1.1244 -1.2903 -0.0451
   56CHL1  H26B 4139   1.719   3.856   8.444  0.9090 -1.0809 -0.8081
   56CHL1  H26C 4140   1.624   3.753   8.562  1.2905 -1.1971 -0.2926
   56CHL1   C27 4141   1.459   3.627   8.358 -0.0614  0.1408  0.6360
   56CHL1  H27A 4142   1.428   3.574   8.266  1.8801 -0.4031  0.2387
   56CHL1  H27B 4143   1.465   3.551   8.438 -0.7761 -1.0368 -0.4068
   56CHL1  H27C 4144   1.380   3.698   8.390 -1.1457  0.2590 -2.0339
   57SAPC     N 4145   3.667   3.627  10.940 -0.3248  0.6298  0.5193
   57SAPC   C12 4146   3.736   3.505  10.882 -0.2152 -0.2046 -0.0028
   57SAPC  H12A 4147   3.721   3.414  10.937 -0.6962 -1.7852 -2.5863
   57SAPC  H12B 4148   3.842   3.519  10.894 -0.5528  1.3660  1.4907
   57SAPC   C13 4149   3.683   3.757  10.866 -0.5116  0.9238 -0.6274
   57SAPC  H13A 4150   3.641   3.744  10.767 -1.6099 -0.7173  0.0160
   57SAPC  H13B 4151   3.643   3.834  10.930 -0.1546  0.2731  0.4008
   57SAPC  H13C 4152   3.786   3.787  10.850 -0.8747  3.0236  0.6066
   57SAPC   C14 4153   3.515   3.610  10.942 -0.0661  0.4326  0.3405
   57SAPC  H14A 4154   3.490   3.509  10.970  2.2144 -0.8213 -1.8072
   57SAPC  H14B 4155   3.473   3.686  11.006  1.4952  0.5613  1.2621
   57SAPC  H14C 4156   3.483   3.614  10.839  2.1373  1.9458 -0.3642
   57SAPC   C15 4157   3.714   3.653  11.079  0.2366  0.2025 -0.0280
   57SAPC  H15A 4158   3.666   3.734  11.132 -0.5295 -0.3960  0.2178
   57SAPC  H15B 4159   3.689   3.565  11.137  0.1179 -0.1370 -0.5950
   57SAPC  H15C 4160   3.821   3.668  11.079 -0.0184  2.3650  0.1861
   57SAPC   C11 4161   3.716   3.481  10.734 -0.0401 -0.4605  0.5352
   57SAPC  H11A 4162   3.608   3.474  10.708 -0.0905  2.6642 -0.6016
   57SAPC  H11B 4163   3.755   3.379  10.715 -1.2023 -0.7249 -0.6295
   57SAPC     P 4164   3.945   3.575  10.643 -0.1536  0.6284  0.0378
   57SAPC   O13 4165   3.991   3.711  10.654  0.0443  0.3006 -0.4076
   57SAPC   O14 4166   3.999   3.476  10.733  0.0284  0.3454 -0.1920
   57SAPC   O12 4167   3.784   3.577  10.650 -0.5538  0.0209 -0.4313
   57SAPC   O11 4168   3.974   3.544  10.489  0.4572 -0.2303 -0.3467
   57SAPC    C1 4169   3.943   3.416  10.430 -0.4088 -0.0211  0.1907
   57SAPC    HA 4170   4.037   3.358  10.422 -0.1413  0.3698  0.4798
   57SAPC    HB 4171   3.867   3.360  10.490 -1.3573  1.2980  0.2580
   57SAPC    C2 4172   3.861   3.429  10.301 -0.6779 -0.6665  0.1077
   57SAPC    HS 4173   3.864   3.332  10.247  1.0526 -1.7897  2.0541
   57SAPC   O21 4174   3.921   3.533  10.225 -0.0066 -0.1603  0.4933
   57SAPC   C21 4175   3.900   3.525  10.094  0.2449  0.1363  0.5664
   57SAPC   O22 4176   3.862   3.429  10.026 -0.2133  0.3223  0.0688
   57SAPC   C22 4177   3.929   3.664  10.043 -1.2055 -0.0063 -0.2826
   57SAPC   H2R 4178   3.911   3.750  10.111  0.7734  2.3224 -2.5126
   57SAPC   H2S 4179   4.038   3.664  10.025 -0.9023 -2.4067  1.1901
   57SAPC    C3 4180   3.715   3.471  10.336 -0.3343  0.6117 -0.2662
   57SAPC    HX 4181   3.686   3.569  10.292 -2.7979  0.5484  1.0290
   57SAPC    HY 4182   3.711   3.495  10.445  0.3395 -1.1285  0.1728
   57SAPC   O31 4183   3.624   3.368  10.306  0.2429 -0.1769  0.2056
   57SAPC   C31 4184   3.503   3.400  10.356 -0.0600  0.1623 -0.4089
   57SAPC   O32 4185   3.481   3.491  10.436 -0.2828 -0.2665 -0.1686
   57SAPC   C32 4186   3.394   3.300  10.308 -0.3416  0.1562 -0.7362
   57SAPC   H2X 4187   3.314   3.306  10.386 -1.4956  0.0278 -1.8749
   57SAPC   H2Y 4188   3.439   3.199  10.301  1.3545  0.4234  3.4936
   57SAPC   C23 4189   3.848   3.711   9.920  0.0371  0.5890 -0.1089
   57SAPC   H3R 4190   3.840   3.820   9.903  0.7535  0.6136 -0.3168
   57SAPC   H3S 4191   3.744   3.673   9.937  0.3961 -1.0816 -1.3347
   57SAPC   C24 4192   3.906   3.648   9.790  0.4792 -0.1382  0.3227
   57SAPC   H4R 4193   3.827   3.644   9.712  1.1945 -1.0671 -0.3867
   57SAPC   H4S 4194   3.935   3.541   9.798  0.3499 -0.2863 -0.9157
   57SAPC   C25 4195   4.025   3.723   9.739  0.2006 -0.1215  0.4179
   57SAPC   H5R 4196   4.104   3.742   9.814 -0.5214  0.6531  1.0048
   57SAPC   C26 4197   4.034   3.767   9.612  0.3203 -0.2030 -0.2833
   57SAPC   H6R 4198   4.126   3.822   9.587  1.5602 -0.0239  3.9026
   57SAPC   C27 4199   3.929   3.747   9.506 -0.0791 -0.3941 -0.6521
   57SAPC   H7R 4200   3.829   3.772   9.547 -0.2075  0.2259 -1.3151
   57SAPC   H7S 4201   3.944   3.644   9.468  0.4906 -1.5117  2.3428
   57SAPC   C28 4202   3.960   3.854   9.402 -1.2334  0.1602  0.3529
   57SAPC   H8R 4203   3.924   3.954   9.429 -1.0239 -0.2054  2.0719
   57SAPC   C29 4204   4.028   3.842   9.280  0.0759 -0.2171  0.0462
   57SAPC   H9R 4205   4.039   3.933   9.220 -0.1849  0.0719  0.4340
   57SAPC  C210 4206   4.083   3.717   9.219 -0.4933  0.0388  0.4489
   57SAPC  H10R 4207   4.011   3.678   9.144 -0.0844 -0.9161  0.5367
   57SAPC  H10S 4208   4.077   3.637   9.296 -2.1943 -1.8045 -1.4579
   57SAPC  C211 4209   4.222   3.745   9.158  0.8366  0.2770  0.8869
   57SAPC  H11R 4210   4.303   3.775   9.226  2.2699  1.1069 -1.0993
   57SAPC  C212 4211   4.242   3.748   9.023  0.1253  0.8430 -0.0138
   57SAPC  H12R 4212   4.346   3.773   8.996  0.8466 -0.5591  1.2821
   57SAPC  C213 4213   4.140   3.705   8.921  0.8338  0.3127  0.1883
   57SAPC  H13R 4214   4.065   3.787   8.929 -0.7673 -1.1231  0.4118
   57SAPC  H13S 4215   4.091   3.607   8.940  1.4715 -0.0405  0.0166
   57SAPC  C214 4216   4.193   3.710   8.780  0.1239 -0.0269 -0.2614
   57SAPC  H14R 4217   4.299   3.740   8.777 -0.1838  1.3381  1.1745
   57SAPC  C215 4218   4.123   3.678   8.670 -0.0964  0.2285  0.2746
   57SAPC  H15R 4219   4.179   3.698   8.578  0.8565 -0.3213  0.7213
   57SAPC  C216 4220   3.983   3.626   8.659 -0.3712  0.2227 -0.0949
   57SAPC  H16R 4221   3.939   3.703   8.591  2.1266  1.6337 -0.2454
   57SAPC  H16S 4222   3.923   3.632   8.752  1.8820 -1.2171  1.5421
   57SAPC  C217 4223   3.968   3.484   8.591 -0.4612  0.3491 -0.0878
   57SAPC  H17R 4224   4.034   3.462   8.504  0.6266  0.4306  0.6965
   57SAPC  H17S 4225   3.864   3.462   8.557 -0.6834 -0.3443  0.9718
   57SAPC  C218 4226   4.013   3.379   8.694  0.5918 -0.1470  0.1111
   57SAPC  H18R 4227   3.929   3.360   8.764 -1.6954 -0.5183 -2.5924
   57SAPC  H18S 4228   4.101   3.423   8.746  0.2987  1.2907 -0.5654
   57SAPC  C219 4229   4.059   3.257   8.623 -0.1578  0.1014  0.5988
   57SAPC  H19R 4230   4.146   3.292   8.565 -0.3522  0.8593  0.7452
   57SAPC  H19S 4231   3.983   3.213   8.556 -2.1742  3.0374  0.7556
   57SAPC  C220 4232   4.114   3.167   8.727  0.1577  0.3391  0.0905
   57SAPC  H20R 4233   4.195   3.210   8.790 -0.5737  0.9076  0.6485
   57SAPC  H20S 4234   4.154   3.074   8.680 -0.1879 -0.6286  1.6396
   57SAPC  H20T 4235   4.032   3.133   8.794 -1.7213  1.9556 -1.2846
   57SAPC   C33 4236   3.338   3.353  10.173 -0.2829 -0.4730  0.1794
   57SAPC   H3X 4237   3.303   3.458  10.177 -0.0813 -0.3311 -1.3496
   57SAPC   H3Y 4238   3.250   3.288  10.154  0.0737 -1.7174  2.4155
   57SAPC   C34 4239   3.439   3.352  10.058 -0.1172  0.6844 -0.0861
   57SAPC   H4X 4240   3.485   3.255  10.027 -1.2149  0.1752 -0.1424
   57SAPC   H4Y 4241   3.519   3.426  10.083  1.6861 -1.4296  0.7618
   57SAPC   C35 4242   3.386   3.399   9.926 -0.0355 -0.2169  0.1654
   57SAPC   H5X 4243   3.316   3.484   9.936  0.2158 -0.2215  2.3262
   57SAPC   H5Y 4244   3.337   3.319   9.866  0.6602 -0.7024  0.2268
   57SAPC   C36 4245   3.505   3.451   9.841 -0.2270 -0.7316  0.0849
   57SAPC   H6X 4246   3.576   3.366   9.855 -2.8518 -2.8887  1.2353
   57SAPC   H6Y 4247   3.540   3.549   9.880 -1.3276 -0.4265  0.3311
   57SAPC   C37 4248   3.465   3.474   9.693 -0.7013 -0.3436 -0.3933
   57SAPC   H7X 4249   3.373   3.536   9.694 -0.3787  0.3247  3.6996
   57SAPC   H7Y 4250   3.437   3.374   9.653 -0.1879 -0.9659  0.7386
   57SAPC   C38 4251   3.572   3.544   9.606  0.2370  0.0530 -0.6482
   57SAPC   H8X 4252   3.663   3.480   9.605  0.4731  0.3008  1.2237
   57SAPC   H8Y 4253   3.597   3.636   9.664  0.1156 -2.0056  2.9816
   57SAPC   C39 4254   3.523   3.564   9.470  0.1334 -0.5051 -0.4027
   57SAPC   H9X 4255   3.419   3.602   9.458 -0.3484 -1.5273  0.3705
   57SAPC   H9Y 4256   3.516   3.457   9.441  1.4227 -1.7449  3.3031
   57SAPC  C310 4257   3.620   3.647   9.382  0.1796 -0.6003  0.1665
   57SAPC  H10X 4258   3.721   3.633   9.426  0.4282  3.5216  1.2634
   57SAPC  H10Y 4259   3.589   3.752   9.401 -1.8599 -1.3951  1.6860
   57SAPC  C311 4260   3.602   3.605   9.242  0.2187 -0.2050 -0.0528
   57SAPC  H11X 4261   3.526   3.661   9.183 -0.0962 -1.2589 -0.6710
   57SAPC  H11Y 4262   3.568   3.499   9.239  1.1315 -0.4932 -0.7313
   57SAPC  C312 4263   3.735   3.604   9.166  1.1720  0.0787  0.2485
   57SAPC  H12X 4264   3.794   3.521   9.212  0.9342 -0.9153 -1.1777
   57SAPC  H12Y 4265   3.789   3.700   9.182  0.4478  0.6212 -0.5379
   57SAPC  C313 4266   3.716   3.564   9.021  0.1430  0.3760 -0.1250
   57SAPC  H13X 4267   3.637   3.486   9.026 -0.5944  1.0347 -1.1511
   57SAPC  H13Y 4268   3.802   3.509   8.977 -0.3872 -0.0955 -0.5983
   57SAPC  C314 4269   3.669   3.680   8.929  0.1101  0.9368  0.6736
   57SAPC  H14X 4270   3.756   3.743   8.901  0.0381  1.0770  0.7623
   57SAPC  H14Y 4271   3.582   3.738   8.966 -0.6696 -0.2643  0.7677
   57SAPC  C315 4272   3.618   3.624   8.785 -0.7984 -0.2277  0.0256
   57SAPC  H15X 4273   3.549   3.538   8.796  0.2130 -1.5249 -2.9190
   57SAPC  H15Y 4274   3.705   3.571   8.741 -0.4517  1.3493 -1.2942
   57SAPC  C316 4275   3.591   3.737   8.686 -0.1508 -0.3726 -0.5695
   57SAPC  H16X 4276   3.591   3.698   8.582  0.0997  2.8032 -1.8694
   57SAPC  H16Y 4277   3.664   3.819   8.675 -0.3726  0.0885  1.1558
   57SAPC  C317 4278   3.453   3.792   8.705 -0.3066  0.5829  0.4131
   57SAPC  H17X 4279   3.446   3.858   8.793 -1.9514  1.3095 -0.2125
   57SAPC  H17Y 4280   3.388   3.705   8.729 -1.2973  0.9772 -0.7091
   57SAPC  C318 4281   3.392   3.859   8.589 -0.3526  0.0922 -0.2082
   57SAPC  H18X 4282   3.294   3.910   8.603 -1.5177 -2.4574  1.8129
   57SAPC  H18Y 4283   3.371   3.787   8.506 -0.4863  0.2696 -0.3296
   57SAPC  H18Z 4284   3.465   3.931   8.548  0.9367 -1.7878 -1.4081
   58SAPC     N 4285   4.299   3.141  10.693  0.2055  0.6593 -0.1335
   58SAPC   C12 4286   4.386   3.217  10.587  0.0454 -0.4895  0.3640
   58SAPC  H12A 4287   4.352   3.318  10.569  2.2503 -0.3401 -4.2587
   58SAPC  H12B 4288   4.374   3.173  10.490 -1.5283 -0.5019  0.5256
   58SAPC   C13 4289   4.310   3.207  10.831  0.4495 -0.2770  0.3696
   58SAPC  H13A 4290   4.243   3.289  10.851 -0.0208 -0.7194  0.6275
   58SAPC  H13B 4291   4.285   3.138  10.911  0.1475  1.4368  1.8044
   58SAPC  H13C 4292   4.415   3.234  10.837  0.1405  0.9405  0.4036
   58SAPC   C14 4293   4.160   3.166  10.648  0.6166 -0.3749  0.5053
   58SAPC  H14A 4294   4.103   3.103  10.715  1.9048  0.9379  2.9851
   58SAPC  H14B 4295   4.128   3.267  10.672  2.2168 -0.0073  1.2377
   58SAPC  H14C 4296   4.156   3.142  10.543 -0.1602 -2.9381  1.0550
   58SAPC   C15 4297   4.341   2.998  10.704 -0.2615  0.1342 -0.7464
   58SAPC  H15A 4298   4.447   2.980  10.697 -0.3897 -0.0125 -3.0415
   58SAPC  H15B 4299   4.306   2.956  10.797 -0.4462  1.0351 -0.3960
   58SAPC  H15C 4300   4.291   2.948  10.622 -0.5001  2.1294 -1.8812
   58SAPC   C11 4301   4.535   3.221  10.605 -0.2933 -0.4075 -0.7537
   58SAPC  H11A 4302   4.581   3.271  10.517  0.7296  0.1486  0.0640
   58SAPC  H11B 4303   4.568   3.115  10.610 -2.0497 -0.9451  3.1012
   58SAPC     P 4304   4.590   3.438  10.737 -0.0246  0.3204 -0.3957
   58SAPC   O13 4305   4.453   3.490  10.734  0.2975 -0.7781 -0.0449
   58SAPC   O14 4306   4.678   3.485  10.846 -0.3815  0.2006  0.3227
   58SAPC   O12 4307   4.582   3.273  10.728  0.2024  0.6735 -0.3358
   58SAPC   O11 4308   4.652   3.486  10.598 -0.2950  0.0710 -0.4116
   58SAPC    C1 4309   4.784   3.445  10.572 -0.8211  0.5230  0.9226
   58SAPC    HA 4310   4.841   3.395  10.653 -0.1509 -1.1679 -0.5261
   58SAPC    HB 4311   4.781   3.371  10.489  0.6818  0.8988  0.4962
   58SAPC    C2 4312   4.877   3.556  10.516 -0.2738 -0.9749 -0.6047
   58SAPC    HS 4313   4.883   3.633  10.596  0.9492 -0.0538 -1.5555
   58SAPC   O21 4314   4.832   3.615  10.392 -0.1494 -0.0026  0.2798
   58SAPC   C21 4315   4.738   3.708  10.404 -0.6708 -0.2411  0.5361
   58SAPC   O22 4316   4.688   3.745  10.506  0.1545  0.1014  0.2375
   58SAPC   C22 4317   4.712   3.779  10.274  0.5136  0.1944  0.4259
   58SAPC   H2R 4318   4.761   3.721  10.193 -0.0405  2.6462 -1.7982
   58SAPC   H2S 4319   4.602   3.781  10.258 -0.1992 -0.5955  4.3478
   58SAPC    C3 4320   5.023   3.502  10.503  0.2596  0.4168 -0.6332
   58SAPC    HX 4321   5.046   3.453  10.600  1.8779  3.5738  0.7380
   58SAPC    HY 4322   5.098   3.583  10.489  0.7102  0.5456  2.0329
   58SAPC   O31 4323   5.028   3.409  10.394  0.3549 -0.1398  0.9438
   58SAPC   C31 4324   5.138   3.357  10.364  0.3421 -0.0528  0.1656
   58SAPC   O32 4325   5.245   3.381  10.416 -0.0580  0.0464 -0.1257
   58SAPC   C32 4326   5.117   3.239  10.272 -0.0967  0.1509  0.4846
   58SAPC   H2X 4327   5.023   3.184  10.293 -0.0271 -0.0957  0.1516
   58SAPC   H2Y 4328   5.195   3.160  10.277  1.4139  1.5777  0.2681
   58SAPC   C23 4329   4.774   3.920  10.281 -0.2587  0.3730 -1.1630
   58SAPC   H3R 4330   4.729   3.966  10.372 -0.5844 -1.2569 -0.4585
   58SAPC   H3S 4331   4.742   3.968  10.186 -1.1939 -0.2204 -1.1564
   58SAPC   C24 4332   4.934   3.926  10.294  0.6540 -0.2462  0.5405
   58SAPC   H4R 4333   4.965   3.889  10.194 -1.3321 -1.3592  0.2833
   58SAPC   H4S 4334   4.981   3.857  10.368 -0.4096 -1.7362 -0.1214
   58SAPC   C25 4335   4.974   4.071  10.307  0.0516  0.5006 -0.1690
   58SAPC   H5R 4336   4.964   4.096  10.414 -0.3036 -2.1574  0.5044
   58SAPC   C26 4337   5.007   4.161  10.212  0.4705 -0.2753  0.3857
   58SAPC   H6R 4338   5.021   4.264  10.247 -1.2999 -0.3654  1.4283
   58SAPC   C27 4339   5.025   4.138  10.065 -0.3644 -0.6978  0.8039
   58SAPC   H7R 4340   5.025   4.031  10.034 -1.2791  0.0520 -2.0685
   58SAPC   H7S 4341   5.111   4.183  10.011 -0.5519 -1.1351  0.1241
   58SAPC   C28 4342   4.900   4.185   9.997 -0.0432 -0.4225  1.1915
   58SAPC   H8R 4343   4.810   4.198  10.060 -0.7733  0.6431 -0.0195
   58SAPC   C29 4344   4.881   4.222   9.870 -1.2324 -0.7198 -0.2576
   58SAPC   H9R 4345   4.783   4.265   9.847 -0.3184  1.9458  0.4568
   58SAPC  C210 4346   4.982   4.223   9.756  0.1112 -0.9867 -0.5669
   58SAPC  H10R 4347   5.087   4.208   9.789 -0.2621  2.3306  2.8065
   58SAPC  H10S 4348   4.973   4.328   9.720 -1.5882 -0.5258  1.0419
   58SAPC  C211 4349   4.946   4.122   9.653 -0.3710  0.8184 -0.5711
   58SAPC  H11R 4350   4.953   4.019   9.691 -1.1742  0.0855 -2.2977
   58SAPC  C212 4351   4.914   4.150   9.524 -0.3715 -1.1739 -0.4102
   58SAPC  H12R 4352   4.898   4.064   9.457  1.2403 -0.6489 -1.5547
   58SAPC  C213 4353   4.894   4.287   9.453  0.5868 -0.1591 -0.2943
   58SAPC  H13R 4354   4.896   4.376   9.519 -1.2783 -0.3321  0.0511
   58SAPC  H13S 4355   4.792   4.293   9.409  1.3291  0.2104 -2.0494
   58SAPC  C214 4356   5.000   4.321   9.351 -0.4025 -0.2008  0.3578
   58SAPC  H14R 4357   5.079   4.387   9.388 -0.7217  0.3211  0.1229
   58SAPC  C215 4358   5.009   4.295   9.217  0.1660 -0.5316  0.3048
   58SAPC  H15R 4359   5.102   4.328   9.167 -0.3502 -0.6543 -0.7671
   58SAPC  C216 4360   4.911   4.220   9.132  0.8240 -0.0469 -0.7260
   58SAPC  H16R 4361   4.850   4.158   9.200 -0.1895  1.8554  0.1819
   58SAPC  H16S 4362   4.962   4.147   9.066  2.2502  0.1522  0.1111
   58SAPC  C217 4363   4.831   4.314   9.052 -0.0989  0.0931 -0.5470
   58SAPC  H17R 4364   4.790   4.399   9.110  2.4552  0.4606  0.8533
   58SAPC  H17S 4365   4.746   4.261   9.003  0.0786 -0.7055 -0.0226
   58SAPC  C218 4366   4.925   4.369   8.939 -0.0464 -0.3473 -0.0546
   58SAPC  H18R 4367   4.937   4.291   8.861  1.3321 -0.0927 -0.1222
   58SAPC  H18S 4368   5.027   4.400   8.970  0.1727 -2.6225  1.7860
   58SAPC  C219 4369   4.860   4.482   8.860  0.0582 -0.8348 -0.7065
   58SAPC  H19R 4370   4.830   4.579   8.904  0.7975  0.2499 -2.4792
   58SAPC  H19S 4371   4.769   4.431   8.821  1.3089 -4.9466  1.1171
   58SAPC  C220 4372   4.944   4.537   8.752  0.0079  0.5211 -0.2303
   58SAPC  H20R 4373   4.983   4.451   8.693 -1.1254  2.1760 -3.7231
   58SAPC  H20S 4374   5.031   4.584   8.801  0.1841 -0.6188  0.5972
   58SAPC  H20T 4375   4.896   4.608   8.681 -2.2066  0.1620  0.8273
   58SAPC   C33 4376   5.120   3.297  10.124  0.8500  0.6033 -0.4217
   58SAPC   H3X 4377   5.145   3.216  10.052  0.7617 -0.0976  0.3194
   58SAPC   H3Y 4378   5.212   3.360  10.119  1.5294 -0.2706  0.7448
   58SAPC   C34 4379   4.995   3.367  10.086  0.4251 -0.7638 -0.0365
   58SAPC   H4X 4380   4.981   3.461  10.143 -0.1644 -1.2757  0.6931
   58SAPC   H4Y 4381   4.912   3.297  10.107  0.2696 -0.4640  0.3563
   58SAPC   C35 4382   4.978   3.393   9.936  0.5150  0.0690 -0.2041
   58SAPC   H5X 4383   4.923   3.312   9.884 -0.5753  1.7797 -1.8487
   58SAPC   H5Y 4384   5.074   3.413   9.883  1.9109  0.2713  2.2438
   58SAPC   C36 4385   4.882   3.515   9.921  0.8364  0.5774  0.0869
   58SAPC   H6X 4386   4.924   3.611   9.957 -0.9190  1.7996 -0.9510
   58SAPC   H6Y 4387   4.785   3.500   9.973  0.8720  0.2620  0.0689
   58SAPC   C37 4388   4.864   3.528   9.772 -0.7186  0.0357  0.2810
   58SAPC   H7X 4389   4.821   3.435   9.729  1.5823 -0.2174 -1.7027
   58SAPC   H7Y 4390   4.964   3.524   9.725 -0.0766  0.5315  1.5451
   58SAPC   C38 4391   4.793   3.662   9.730  0.8314  0.3517 -0.2636
   58SAPC   H8X 4392   4.863   3.742   9.763 -1.1045  1.2853  1.8708
   58SAPC   H8Y 4393   4.707   3.671   9.801  0.6355  2.2631 -0.7114
   58SAPC   C39 4394   4.736   3.659   9.584  0.2173 -0.2853 -0.6053
   58SAPC   H9X 4395   4.708   3.766   9.572  0.8686  0.1757  1.5246
   58SAPC   H9Y 4396   4.658   3.580   9.581  1.6798 -1.9596  1.6339
   58SAPC  C310 4397   4.841   3.633   9.474  0.2575  0.0173 -0.3980
   58SAPC  H10X 4398   4.839   3.527   9.441 -1.5215  0.5960 -2.3964
   58SAPC  H10Y 4399   4.940   3.675   9.501  0.8808 -1.0091 -1.0202
   58SAPC  C311 4400   4.804   3.720   9.352  0.3016 -0.4828 -0.3341
   58SAPC  H11X 4401   4.795   3.828   9.375 -0.4451 -0.0676 -2.3788
   58SAPC  H11Y 4402   4.707   3.676   9.321 -1.3259  3.3822 -1.2950
   58SAPC  C312 4403   4.904   3.716   9.233  0.3590  0.2619  0.3655
   58SAPC  H12X 4404   4.917   3.608   9.210 -3.1276 -0.3004  0.4627
   58SAPC  H12Y 4405   5.003   3.764   9.248  0.8348  0.4120 -2.5976
   58SAPC  C313 4406   4.851   3.802   9.115  0.7735 -0.4114 -0.4620
   58SAPC  H13X 4407   4.854   3.901   9.166  4.5918 -1.0987  0.9900
   58SAPC  H13Y 4408   4.745   3.777   9.090  0.7673 -0.9926  0.1347
   58SAPC  C314 4409   4.949   3.808   8.993  0.2177 -0.3024  0.1446
   58SAPC  H14X 4410   4.972   3.707   8.952 -0.9060 -0.8898  0.8857
   58SAPC  H14Y 4411   5.045   3.850   9.030 -0.2845  2.7504 -1.7014
   58SAPC  C315 4412   4.909   3.915   8.888 -0.1611  0.0349 -0.2397
   58SAPC  H15X 4413   4.999   3.941   8.829 -1.0359 -2.2518 -2.7717
   58SAPC  H15Y 4414   4.857   3.993   8.948 -0.8004  0.4619 -1.3194
   58SAPC  C316 4415   4.806   3.850   8.792  0.0285  0.5091  0.2498
   58SAPC  H16X 4416   4.705   3.848   8.839  0.3012  1.4250  0.9102
   58SAPC  H16Y 4417   4.844   3.749   8.768  0.4681  0.2997  1.7026
   58SAPC  C317 4418   4.801   3.929   8.663  0.2646  0.7899  0.2829
   58SAPC  H17X 4419   4.736   3.883   8.585 -1.7216 -0.4324  2.5406
   58SAPC  H17Y 4420   4.905   3.940   8.623  0.1575  0.8227  0.0088
   58SAPC  C318 4421   4.744   4.068   8.680  0.4071  0.3331  0.1308
   58SAPC  H18X 4422   4.658   4.060   8.749  1.1154  2.8308  1.4102
   58SAPC  H18Y 4423   4.714   4.118   8.586  0.9687 -1.3503 -0.9943
   58SAPC  H18Z 4424   4.818   4.135   8.728  2.1675  0.1069 -2.1095
   59SAPC     N 4425   1.021   6.003  11.206  0.0760  0.7608 -0.4684
   59SAPC   C12 4426   1.021   5.873  11.139  0.4809  0.0002 -0.1210
   59SAPC  H12A 4427   0.948   5.805  11.179 -1.4782  0.0141 -3.3205
   59SAPC  H12B 4428   1.114   5.819  11.147 -0.2162 -1.1758  0.2725
   59SAPC   C13 4429   1.063   5.998  11.346  0.3726 -0.3807 -0.3356
   59SAPC  H13A 4430   1.161   5.965  11.375 -0.0226 -2.6049 -1.3342
   59SAPC  H13B 4431   1.054   6.099  11.385  0.3411 -0.3964 -0.3029
   59SAPC  H13C 4432   0.988   5.941  11.398  0.2908 -0.0328 -0.0686
   59SAPC   C14 4433   1.106   6.096  11.126 -0.3153 -0.4116 -0.0168
   59SAPC  H14A 4434   1.055   6.128  11.036  0.4849 -1.7022 -0.9594
   59SAPC  H14B 4435   1.121   6.187  11.183  0.3110 -0.3525 -0.2768
   59SAPC  H14C 4436   1.195   6.050  11.087 -1.4579 -0.5409 -2.6470
   59SAPC   C15 4437   0.877   6.051  11.205 -0.2167  0.1711 -0.0614
   59SAPC  H15A 4438   0.831   6.062  11.108 -0.7219 -2.0052 -0.1024
   59SAPC  H15B 4439   0.814   5.990  11.268 -1.7573  0.4972 -1.2385
   59SAPC  H15C 4440   0.889   6.151  11.246  2.3249 -0.3790  0.7431
   59SAPC   C11 4441   0.964   5.860  10.995  0.1810 -0.9720  0.4381
   59SAPC  H11A 4442   0.991   5.756  10.966  1.2001 -1.0518  1.5524
   59SAPC  H11B 4443   1.004   5.921  10.911 -0.6698 -0.2565  0.5385
   59SAPC     P 4444   0.728   5.767  11.051 -0.1509 -0.1885 -0.1547
   59SAPC   O13 4445   0.782   5.707  11.176  0.0731  0.4738  0.7497
   59SAPC   O14 4446   0.594   5.826  11.069 -0.2483  0.2903  0.6651
   59SAPC   O12 4447   0.822   5.878  10.994 -0.5843 -0.2352 -0.3065
   59SAPC   O11 4448   0.720   5.655  10.947  0.0131  0.3150 -0.3054
   59SAPC    C1 4449   0.753   5.684  10.809 -0.0069  0.7854  0.6214
   59SAPC    HA 4450   0.768   5.789  10.774 -1.4455  0.0824 -2.4563
   59SAPC    HB 4451   0.847   5.630  10.787 -1.0192 -1.1814  0.9506
   59SAPC    C2 4452   0.635   5.641  10.712 -1.2014 -0.3217 -0.0671
   59SAPC    HS 4453   0.544   5.703  10.729 -1.9733 -1.0895 -1.2459
   59SAPC   O21 4454   0.614   5.502  10.737  0.2458 -0.2015  0.1238
   59SAPC   C21 4455   0.486   5.471  10.757 -0.2364 -0.1599 -0.3648
   59SAPC   O22 4456   0.397   5.548  10.774 -0.1127  0.1198 -0.2407
   59SAPC   C22 4457   0.476   5.323  10.800  0.0017  0.0425 -0.2853
   59SAPC   H2R 4458   0.559   5.261  10.758 -1.1242 -2.1257  0.5541
   59SAPC   H2S 4459   0.492   5.332  10.909  2.3351 -0.5188 -0.5237
   59SAPC    C3 4460   0.675   5.652  10.562  0.0885 -0.0680  0.3861
   59SAPC    HX 4461   0.760   5.585  10.536  0.0350  0.8192 -2.3922
   59SAPC    HY 4462   0.718   5.755  10.555  2.3251 -0.9759 -0.2346
   59SAPC   O31 4463   0.567   5.643  10.465 -0.4230 -0.3618  0.5686
   59SAPC   C31 4464   0.575   5.548  10.365  0.3288  0.0949  0.5306
   59SAPC   O32 4465   0.662   5.469  10.350  0.2306  0.8067  0.0582
   59SAPC   C32 4466   0.461   5.561  10.269  0.0459 -0.3025 -0.2690
   59SAPC   H2X 4467   0.492   5.632  10.188 -0.3830 -0.7042 -0.7977
   59SAPC   H2Y 4468   0.375   5.597  10.329  1.1982 -1.5500  2.2650
   59SAPC   C23 4469   0.329   5.276  10.770 -0.7399  0.0705 -0.1290
   59SAPC   H3R 4470   0.266   5.361  10.805  1.9140  1.7584  0.8183
   59SAPC   H3S 4471   0.307   5.189  10.836  0.7295 -0.2752 -0.0649
   59SAPC   C24 4472   0.325   5.253  10.622 -0.0160 -0.0345  0.7136
   59SAPC   H4R 4473   0.401   5.312  10.568 -1.1702  0.6370 -0.2175
   59SAPC   H4S 4474   0.224   5.284  10.588  0.2092  1.5743  1.3960
   59SAPC   C25 4475   0.351   5.115  10.575 -0.6833  0.2760 -0.1377
   59SAPC   H5R 4476   0.447   5.082  10.617 -1.5607 -0.8002  1.0763
   59SAPC   C26 4477   0.291   5.040  10.484 -0.4851  0.3612 -0.4557
   59SAPC   H6R 4478   0.333   4.939  10.473 -0.5753  0.0645  1.5212
   59SAPC   C27 4479   0.162   5.061  10.408  0.8535  0.0864  0.2684
   59SAPC   H7R 4480   0.184   5.056  10.299 -1.8772 -2.2790 -0.3105
   59SAPC   H7S 4481   0.140   5.169  10.421 -1.6997 -0.3456  0.2044
   59SAPC   C28 4482   0.049   4.970  10.441  0.3096 -0.0432 -0.5306
   59SAPC   H8R 4483  -0.020   5.004  10.520 -0.3729  2.3790 -2.0487
   59SAPC   C29 4484   0.021   4.852  10.378 -0.8673  0.1357  0.0819
   59SAPC   H9R 4485  -0.064   4.794  10.418 -0.6089 -0.2872  0.0228
   59SAPC  C210 4486   0.111   4.790  10.268 -0.5632  1.2301 -0.5050
   59SAPC  H10R 4487   0.210   4.838  10.250  0.4065 -0.3220  0.4677
   59SAPC  H10S 4488   0.057   4.798  10.172  0.3448 -0.8490 -1.2355
   59SAPC  C211 4489   0.127   4.638  10.302 -0.9868  0.4321  0.6323
   59SAPC  H11R 4490   0.140   4.614  10.409  0.3374 -1.8595  0.0441
   59SAPC  C212 4491   0.114   4.533  10.221  0.2435 -0.1147  0.6830
   59SAPC  H12R 4492   0.122   4.430  10.260 -1.5947 -1.2312 -1.5895
   59SAPC  C213 4493   0.099   4.533  10.073  0.1108 -0.5165 -0.0622
   59SAPC  H13R 4494   0.128   4.436  10.029 -0.9478 -0.5163 -0.7836
   59SAPC  H13S 4495   0.166   4.609  10.028 -1.1379  1.7853  1.7239
   59SAPC  C214 4496  -0.046   4.577  10.046 -0.4416  0.0125  0.1537
   59SAPC  H14R 4497  -0.114   4.580  10.132  1.1782 -0.3310  1.4971
   59SAPC  C215 4498  -0.090   4.616   9.927  0.1883  0.7121 -0.2711
   59SAPC  H15R 4499  -0.195   4.648   9.918 -0.3722 -1.0700 -0.5201
   59SAPC  C216 4500  -0.013   4.621   9.799  0.0176 -0.1180 -0.7122
   59SAPC  H16R 4501   0.092   4.587   9.804  0.4627  1.1960 -0.6707
   59SAPC  H16S 4502   0.001   4.728   9.771  0.0186  0.2931  0.7559
   59SAPC  C217 4503  -0.075   4.548   9.677 -0.0183  0.3459 -0.3150
   59SAPC  H17R 4504  -0.179   4.582   9.660  0.3269  0.5112 -2.3878
   59SAPC  H17S 4505  -0.076   4.439   9.701  0.1723  0.3879 -0.1142
   59SAPC  C218 4506   0.012   4.555   9.554 -0.4151  0.3256 -0.0253
   59SAPC  H18R 4507   0.118   4.532   9.577 -0.4900 -1.4860 -1.1981
   59SAPC  H18S 4508   0.009   4.659   9.516 -1.7695 -0.1861 -1.4245
   59SAPC  C219 4509  -0.038   4.471   9.445 -0.1765 -0.3760  0.2244
   59SAPC  H19R 4510  -0.148   4.481   9.431 -0.0634 -0.5705 -0.9223
   59SAPC  H19S 4511  -0.021   4.364   9.472 -0.2081  0.1246  2.4489
   59SAPC  C220 4512   0.038   4.502   9.318 -0.0460  0.1427  0.5552
   59SAPC  H20R 4513   0.147   4.507   9.339 -0.0010  1.4432  0.1074
   59SAPC  H20S 4514   0.021   4.606   9.284  2.4057  0.6005  0.5172
   59SAPC  H20T 4515   0.015   4.418   9.248 -1.0426 -1.7736  3.0415
   59SAPC   C33 4516   0.413   5.423  10.221 -0.0493  0.3099 -0.2045
   59SAPC   H3X 4517   0.366   5.366  10.303  0.7118  0.4010  0.3032
   59SAPC   H3Y 4518   0.497   5.356  10.191 -1.3485 -3.3995  3.6369
   59SAPC   C34 4519   0.301   5.444  10.121  0.8587 -0.5785  1.1148
   59SAPC   H4X 4520   0.333   5.464  10.017 -1.6965  0.8037  0.5109
   59SAPC   H4Y 4521   0.241   5.532  10.153 -0.0525 -0.7392 -0.0690
   59SAPC   C35 4522   0.186   5.338  10.133 -0.1074 -0.2839  0.0535
   59SAPC   H5X 4523   0.114   5.401  10.077  0.6354  1.2362  0.7780
   59SAPC   H5Y 4524   0.152   5.311  10.235  2.0898 -2.4795  0.3122
   59SAPC   C36 4525   0.214   5.215  10.038  0.5004  0.0814  0.7512
   59SAPC   H6X 4526   0.277   5.145  10.098  0.5637  0.2921  0.9319
   59SAPC   H6Y 4527   0.280   5.244   9.953 -1.4498 -2.6292 -1.8979
   59SAPC   C37 4528   0.081   5.154   9.996  0.1655  0.2468  0.9403
   59SAPC   H7X 4529   0.031   5.244   9.955 -0.4390 -0.0735  0.9524
   59SAPC   H7Y 4530   0.018   5.113  10.078 -0.9767  0.7905  0.3612
   59SAPC   C38 4531   0.109   5.051   9.883  0.6646  0.0317  0.2886
   59SAPC   H8X 4532   0.017   5.014   9.834  0.5365 -0.0836  0.6147
   59SAPC   H8Y 4533   0.148   4.956   9.926 -0.1384 -0.6134 -0.3807
   59SAPC   C39 4534   0.194   5.095   9.762 -0.6224  0.2538 -0.2519
   59SAPC   H9X 4535   0.204   5.001   9.704 -0.6343  1.6507 -2.6324
   59SAPC   H9Y 4536   0.295   5.124   9.800 -0.6112  0.8279 -0.7138
   59SAPC  C310 4537   0.132   5.206   9.671  0.1157 -0.2615  0.1553
   59SAPC  H10X 4538   0.093   5.287   9.736 -0.7585 -1.3777  1.0654
   59SAPC  H10Y 4539   0.045   5.157   9.624  0.3167 -1.5040  1.0427
   59SAPC  C311 4540   0.227   5.263   9.569 -0.1418  0.6438  0.5048
   59SAPC  H11X 4541   0.261   5.181   9.502 -0.4424  1.7756 -1.0898
   59SAPC  H11Y 4542   0.319   5.293   9.624  0.1483 -1.0726  1.0399
   59SAPC  C312 4543   0.148   5.368   9.491  1.0332  0.3582  0.5833
   59SAPC  H12X 4544   0.204   5.445   9.434 -0.4093  2.3812  1.7489
   59SAPC  H12Y 4545   0.096   5.430   9.567 -0.1120  1.4998 -1.0445
   59SAPC  C313 4546   0.044   5.307   9.385  0.6056 -0.1043  0.8123
   59SAPC  H13X 4547  -0.034   5.386   9.371 -0.8434 -1.3484  1.5591
   59SAPC  H13Y 4548  -0.013   5.221   9.427  0.6426 -0.7915 -0.5031
   59SAPC  C314 4549   0.096   5.260   9.246 -0.8146  0.4371 -0.4495
   59SAPC  H14X 4550   0.164   5.177   9.276  0.4139  1.7621  0.5948
   59SAPC  H14Y 4551   0.167   5.337   9.210  1.1140  0.5592  3.1499
   59SAPC  C315 4552  -0.015   5.206   9.160  0.3516 -0.8674  0.7719
   59SAPC  H15X 4553  -0.083   5.137   9.215 -2.8718  0.5502 -1.1264
   59SAPC  H15Y 4554   0.029   5.147   9.077 -1.8199 -0.4210 -0.8059
   59SAPC  C316 4555  -0.095   5.313   9.095  0.4252 -0.3870 -0.2078
   59SAPC  H16X 4556  -0.029   5.363   9.020  0.4086  0.8476  0.5674
   59SAPC  H16Y 4557  -0.136   5.388   9.166  1.2796 -1.9590  2.0626
   59SAPC  C317 4558  -0.219   5.267   9.020 -0.7042  0.0735 -0.2194
   59SAPC  H17X 4559  -0.274   5.344   8.962 -0.9523 -0.1390 -0.2715
   59SAPC  H17Y 4560  -0.284   5.215   9.094  0.4333 -1.0107  0.0462
   59SAPC  C318 4561  -0.179   5.159   8.921 -0.2308  0.5354  0.7137
   59SAPC  H18X 4562  -0.141   5.065   8.967 -2.4515 -0.2804  1.0267
   59SAPC  H18Y 4563  -0.104   5.191   8.846  0.9310 -1.6073  0.8762
   59SAPC  H18Z 4564  -0.271   5.145   8.861 -0.1534  2.9031 -0.0502
   60SAPC     N 4565   1.522   3.918  10.761  0.4553 -0.1073 -0.4433
   60SAPC   C12 4566   1.576   3.948  10.631 -0.0637 -0.0138  0.5666
   60SAPC  H12A 4567   1.508   3.920  10.551 -0.7352 -1.3720  1.5803
   60SAPC  H12B 4568   1.671   3.904  10.604  1.3189  2.3773  1.2356
   60SAPC   C13 4569   1.403   4.007  10.792 -0.2474 -0.1138 -0.4601
   60SAPC  H13A 4570   1.372   3.997  10.895  1.6989 -1.6884  0.0279
   60SAPC  H13B 4571   1.436   4.109  10.779 -1.2042  0.2323 -0.2271
   60SAPC  H13C 4572   1.323   3.988  10.723  0.2411  1.8410 -1.6642
   60SAPC   C14 4573   1.465   3.774  10.762 -0.1347  0.4529  0.7873
   60SAPC  H14A 4574   1.545   3.703  10.748 -0.7427 -0.0682 -0.1687
   60SAPC  H14B 4575   1.417   3.733  10.849 -1.2192 -1.5815 -0.6993
   60SAPC  H14C 4576   1.400   3.766  10.676  0.8306  0.2673  0.0631
   60SAPC   C15 4577   1.627   3.920  10.865 -0.3501  0.3123 -0.2446
   60SAPC  H15A 4578   1.712   3.860  10.836 -0.6122 -0.1036 -0.1463
   60SAPC  H15B 4579   1.659   4.022  10.884 -2.1122  1.3880 -2.6129
   60SAPC  H15C 4580   1.607   3.872  10.960 -0.5447 -1.4835 -1.1650
   60SAPC   C11 4581   1.607   4.094  10.604 -0.3450 -0.8006  0.3468
   60SAPC  H11A 4582   1.508   4.143  10.600 -0.2942 -0.7162  0.0842
   60SAPC  H11B 4583   1.644   4.098  10.499 -3.1843 -1.1963 -0.7450
   60SAPC     P 4584   1.693   4.293  10.738  0.5426 -0.1213  0.2666
   60SAPC   O13 4585   1.580   4.334  10.822 -0.2210 -0.4615  0.4134
   60SAPC   O14 4586   1.822   4.316  10.799 -0.2958  0.0184 -0.3173
   60SAPC   O12 4587   1.695   4.152  10.694  0.5995  0.0666  0.0722
   60SAPC   O11 4588   1.690   4.373  10.603 -0.5738 -0.3601  0.4576
   60SAPC    C1 4589   1.580   4.457  10.574 -0.1859 -0.4673  0.0586
   60SAPC    HA 4590   1.481   4.411  10.596 -2.3434  3.4679 -0.4804
   60SAPC    HB 4591   1.595   4.554  10.627 -0.7097 -0.0582 -0.5247
   60SAPC    C2 4592   1.556   4.482  10.419 -0.4556 -0.5596 -0.1689
   60SAPC    HS 4593   1.448   4.505  10.407 -0.3338 -0.5255 -1.2696
   60SAPC   O21 4594   1.581   4.366  10.336  0.4976  0.3050 -0.3491
   60SAPC   C21 4595   1.514   4.363  10.225 -0.8759 -0.5349  0.4949
   60SAPC   O22 4596   1.426   4.443  10.198 -0.1977  0.1072  0.2374
   60SAPC   C22 4597   1.580   4.271  10.123 -0.1169 -0.9439 -0.2597
   60SAPC   H2R 4598   1.570   4.307  10.019  3.0801 -0.0585 -0.3751
   60SAPC   H2S 4599   1.687   4.257  10.150  0.8937  2.4630 -1.9677
   60SAPC    C3 4600   1.639   4.609  10.367  0.8281 -0.1262  0.1002
   60SAPC    HX 4601   1.747   4.590  10.387  0.6344 -1.2325  0.1215
   60SAPC    HY 4602   1.603   4.703  10.415  2.9077  0.8221 -0.0500
   60SAPC   O31 4603   1.632   4.617  10.225 -0.0933 -0.5301  0.0870
   60SAPC   C31 4604   1.536   4.700  10.178 -0.6296  0.0910 -0.4955
   60SAPC   O32 4605   1.455   4.766  10.242 -0.5957  0.1976  0.3699
   60SAPC   C32 4606   1.541   4.705  10.022 -1.0544  0.3925 -1.0629
   60SAPC   H2X 4607   1.523   4.604   9.980 -0.9897 -0.0277 -0.0925
   60SAPC   H2Y 4608   1.647   4.729  10.001 -0.5376 -1.2886 -0.4963
   60SAPC   C23 4609   1.527   4.121  10.133 -0.7169 -0.2319  0.2432
   60SAPC   H3R 4610   1.418   4.139  10.137 -0.4702  1.5281 -0.1726
   60SAPC   H3S 4611   1.566   4.084  10.230 -0.2799 -0.6168 -0.0727
   60SAPC   C24 4612   1.568   4.028  10.023  0.0572 -0.3019  0.3942
   60SAPC   H4R 4613   1.498   3.942  10.017  0.3002 -0.4312 -1.1966
   60SAPC   H4S 4614   1.673   3.992  10.031  0.2928 -0.0816 -1.2320
   60SAPC   C25 4615   1.557   4.087   9.885  0.2108 -0.3494  0.2533
   60SAPC   H5R 4616   1.455   4.127   9.872  0.3931  0.7387  1.9276
   60SAPC   C26 4617   1.653   4.091   9.790  0.0845 -0.2952 -0.3583
   60SAPC   H6R 4618   1.621   4.134   9.694 -1.1282  0.9839  0.5855
   60SAPC   C27 4619   1.796   4.051   9.797  0.1414 -0.1402 -0.7698
   60SAPC   H7R 4620   1.806   3.949   9.754 -0.3983 -0.0110 -1.2147
   60SAPC   H7S 4621   1.826   4.049   9.904  0.7961  0.8934 -0.9173
   60SAPC   C28 4622   1.895   4.141   9.719 -0.8490 -0.2817 -0.5301
   60SAPC   H8R 4623   1.946   4.221   9.774  1.7949 -3.0534  1.3824
   60SAPC   C29 4624   1.922   4.124   9.590 -0.0488 -0.5726 -0.1382
   60SAPC   H9R 4625   1.988   4.193   9.535  0.4688 -0.9894 -0.0452
   60SAPC  C210 4626   1.862   4.014   9.506 -0.6555 -0.9886 -0.5240
   60SAPC  H10R 4627   1.753   4.024   9.487 -0.4508  1.2501 -0.6923
   60SAPC  H10S 4628   1.877   3.920   9.564  1.8342 -0.4078 -0.1106
   60SAPC  C211 4629   1.934   3.996   9.369 -0.1016 -0.3485 -0.0228
   60SAPC  H11R 4630   2.020   3.928   9.380  1.0846  1.3242  1.7471
   60SAPC  C212 4631   1.897   4.046   9.253  0.3016 -0.1614  0.2099
   60SAPC  H12R 4632   1.959   4.030   9.164 -3.4456  1.1754 -2.9305
   60SAPC  C213 4633   1.783   4.136   9.240 -0.7313 -0.5566  0.5605
   60SAPC  H13R 4634   1.802   4.180   9.140 -0.4349 -0.7395  0.5361
   60SAPC  H13S 4635   1.798   4.217   9.315  0.9367 -2.1130  1.9807
   60SAPC  C214 4636   1.648   4.070   9.248  0.1065  0.1462  0.4168
   60SAPC  H14R 4637   1.649   3.961   9.230  0.4475  0.3270 -0.7473
   60SAPC  C215 4638   1.525   4.125   9.253 -0.3352  0.8441  0.1441
   60SAPC  H15R 4639   1.443   4.053   9.265  0.3087  0.4112  2.4157
   60SAPC  C216 4640   1.481   4.266   9.258  0.4100 -0.2176 -0.2155
   60SAPC  H16R 4641   1.500   4.304   9.155  0.5008 -2.4881 -1.0934
   60SAPC  H16S 4642   1.547   4.323   9.327  1.6501 -0.8408 -0.8678
   60SAPC  C217 4643   1.338   4.262   9.309 -0.3237  0.2346  0.4848
   60SAPC  H17R 4644   1.289   4.169   9.270 -1.5061  0.9920  0.1018
   60SAPC  H17S 4645   1.289   4.357   9.278 -1.3545 -0.6603 -0.7916
   60SAPC  C218 4646   1.328   4.240   9.458 -0.6978 -0.1916 -0.8675
   60SAPC  H18R 4647   1.404   4.305   9.506  0.6096 -1.5359 -1.0323
   60SAPC  H18S 4648   1.363   4.136   9.474  0.6709  0.1414 -1.5490
   60SAPC  C219 4649   1.187   4.254   9.510  0.9548  0.2917  0.1161
   60SAPC  H19R 4650   1.116   4.210   9.437  0.7615 -1.1775  1.1415
   60SAPC  H19S 4651   1.167   4.363   9.525 -0.2303 -0.1623  2.4154
   60SAPC  C220 4652   1.152   4.187   9.649 -0.1142  0.2914 -0.6054
   60SAPC  H20R 4653   1.045   4.202   9.676 -0.5297 -1.0862 -1.3709
   60SAPC  H20S 4654   1.211   4.238   9.728 -0.2020  0.5181 -0.6864
   60SAPC  H20T 4655   1.181   4.080   9.640 -0.9243  0.1072 -1.1692
   60SAPC   C33 4656   1.447   4.798   9.942 -0.3961 -0.3625 -0.8891
   60SAPC   H3X 4657   1.446   4.899   9.989  1.9588 -0.7219  0.0713
   60SAPC   H3Y 4658   1.344   4.757   9.955  0.3965 -2.3977 -0.5675
   60SAPC   C34 4659   1.468   4.811   9.794 -0.0696 -0.1928  0.4246
   60SAPC   H4X 4660   1.497   4.714   9.749 -0.9701 -0.6813  0.8576
   60SAPC   H4Y 4661   1.551   4.884   9.788 -0.7658  0.5652 -0.1141
   60SAPC   C35 4662   1.343   4.868   9.721 -0.1421  0.0096 -0.3303
   60SAPC   H5X 4663   1.307   4.962   9.767  1.5202 -0.9573  3.3350
   60SAPC   H5Y 4664   1.260   4.796   9.733  1.0705 -1.2553  0.8228
   60SAPC   C36 4665   1.366   4.902   9.568  0.5414 -0.0842  0.2871
   60SAPC   H6X 4666   1.426   4.994   9.550 -1.1717  1.8721  3.5850
   60SAPC   H6Y 4667   1.263   4.932   9.539 -0.6238 -2.4768  1.6443
   60SAPC   C37 4668   1.393   4.784   9.470 -0.2433 -0.2206  0.1211
   60SAPC   H7X 4669   1.315   4.707   9.490  1.4507 -2.0620 -0.0695
   60SAPC   H7Y 4670   1.483   4.733   9.511  0.2797  0.4580 -0.1731
   60SAPC   C38 4671   1.411   4.810   9.317 -0.5490  0.5611 -0.7127
   60SAPC   H8X 4672   1.463   4.720   9.277 -1.1188 -0.3630  0.5468
   60SAPC   H8Y 4673   1.463   4.906   9.299  1.3444 -0.1120  0.8507
   60SAPC   C39 4674   1.276   4.819   9.234  0.4387  0.1564  0.0224
   60SAPC   H9X 4675   1.227   4.910   9.274  0.1786 -0.1971  0.5213
   60SAPC   H9Y 4676   1.211   4.732   9.258  0.3988  0.0879 -0.3247
   60SAPC  C310 4677   1.287   4.835   9.086  0.0892  0.0122  0.2596
   60SAPC  H10X 4678   1.340   4.933   9.082 -2.2824  1.5359  3.0411
   60SAPC  H10Y 4679   1.189   4.853   9.036  0.3427 -0.4149 -0.4082
   60SAPC  C311 4680   1.358   4.710   9.019  0.3882  0.1968  0.4524
   60SAPC  H11X 4681   1.296   4.620   9.040 -4.2614  2.9191 -0.3393
   60SAPC  H11Y 4682   1.442   4.691   9.090 -1.3044 -4.1620  1.6390
   60SAPC  C312 4683   1.401   4.727   8.878  0.1248 -0.3666 -0.3330
   60SAPC  H12X 4684   1.490   4.667   8.850  2.4679  1.8372  1.9002
   60SAPC  H12Y 4685   1.425   4.833   8.854  0.5783  0.0041  1.6111
   60SAPC  C313 4686   1.278   4.688   8.783  0.0221  0.2127 -0.7236
   60SAPC  H13X 4687   1.187   4.728   8.831  1.2799 -0.8641  2.9199
   60SAPC  H13Y 4688   1.274   4.577   8.776  0.5561  0.1433 -0.0557
   60SAPC  C314 4689   1.279   4.750   8.646 -0.3041 -0.0316  0.2259
   60SAPC  H14X 4690   1.329   4.849   8.654  0.5974 -0.5256  0.8695
   60SAPC  H14Y 4691   1.177   4.763   8.602  0.5556 -1.2047 -2.2765
   60SAPC  C315 4692   1.364   4.671   8.544 -0.2037  0.2829 -0.1813
   60SAPC  H15X 4693   1.319   4.569   8.538 -1.7717  0.9511 -0.1687
   60SAPC  H15Y 4694   1.465   4.651   8.587 -1.5448  1.0661  3.7473
   60SAPC  C316 4695   1.364   4.727   8.397 -0.3645 -0.4673 -0.4887
   60SAPC  H16X 4696   1.464   4.770   8.377  0.3487 -1.1859  1.2864
   60SAPC  H16Y 4697   1.290   4.811   8.396  0.4003  0.2367  0.3237
   60SAPC  C317 4698   1.345   4.629   8.282  0.0440 -0.3056 -0.5322
   60SAPC  H17X 4699   1.341   4.688   8.188 -0.8174  2.7725  1.2719
   60SAPC  H17Y 4700   1.249   4.574   8.289  0.1833 -0.4391  0.4527
   60SAPC  C318 4701   1.454   4.528   8.286 -0.1770 -0.2110  0.1361
   60SAPC  H18X 4702   1.550   4.582   8.270 -0.5451  0.4811  0.2406
   60SAPC  H18Y 4703   1.437   4.458   8.201  0.0575  1.2704 -1.1806
   60SAPC  H18Z 4704   1.449   4.461   8.374  0.4852 -0.8250 -0.2861
   61SAPC     N 4705   3.166   6.534  10.966  0.2279 -0.3194 -0.5016
   61SAPC   C12 4706   3.054   6.441  11.003  0.0961 -0.9610  0.2900
   61SAPC  H12A 4707   2.968   6.459  10.940  0.7670 -1.2335 -0.7256
   61SAPC  H12B 4708   3.014   6.476  11.097 -1.9031 -2.6579  0.1323
   61SAPC   C13 4709   3.219   6.521  10.821  0.3360  0.2158 -0.3713
   61SAPC  H13A 4710   3.271   6.611  10.794  0.3003  0.0073 -1.1428
   61SAPC  H13B 4711   3.287   6.437  10.816  0.4644  0.2573  0.4172
   61SAPC  H13C 4712   3.134   6.518  10.754 -0.5593 -0.0404  0.7352
   61SAPC   C14 4713   3.107   6.671  10.975  0.4101  0.2074 -0.5691
   61SAPC  H14A 4714   3.017   6.674  10.915 -1.5675  0.5931  2.2228
   61SAPC  H14B 4715   3.074   6.694  11.075 -2.0131  0.8005 -1.4375
   61SAPC  H14C 4716   3.173   6.750  10.942  0.8715 -0.6499 -1.7956
   61SAPC   C15 4717   3.274   6.521  11.067  0.4203  0.6033 -0.2078
   61SAPC  H15A 4718   3.251   6.447  11.142 -1.7195 -0.0522 -1.4122
   61SAPC  H15B 4719   3.368   6.494  11.022  1.2609  2.4730  0.3251
   61SAPC  H15C 4720   3.297   6.620  11.104  0.3414  0.5559 -0.0323
   61SAPC   C11 4721   3.086   6.295  11.002 -0.8662  0.8841 -0.1297
   61SAPC  H11A 4722   3.001   6.239  11.045 -0.1896  0.9435  1.3525
   61SAPC  H11B 4723   3.180   6.276  11.060  0.7882  1.9263 -2.3133
   61SAPC     P 4724   2.995   6.204  10.774 -0.3394 -0.4004  0.1709
   61SAPC   O13 4725   2.988   6.055  10.760 -0.5260 -0.9145  0.3397
   61SAPC   O14 4726   2.868   6.276  10.806 -0.2749  0.2686 -0.2668
   61SAPC   O12 4727   3.114   6.240  10.876  0.0892 -0.3962  0.3281
   61SAPC   O11 4728   3.054   6.269  10.646 -0.1180  0.0588  0.1130
   61SAPC    C1 4729   3.170   6.217  10.582 -0.4449  0.1854 -0.2944
   61SAPC    HA 4730   3.253   6.286  10.611  0.3020 -0.3811 -1.0290
   61SAPC    HB 4731   3.199   6.121  10.630  0.1832  0.6729  0.3198
   61SAPC    C2 4732   3.150   6.189  10.426  0.1997 -0.6695  0.2634
   61SAPC    HS 4733   3.246   6.155  10.381  0.6303  1.1111 -0.2358
   61SAPC   O21 4734   3.118   6.319  10.359  0.7632  0.2913 -0.3447
   61SAPC   C21 4735   3.219   6.398  10.363 -1.1737 -0.2096 -0.1831
   61SAPC   O22 4736   3.330   6.369  10.406 -0.0933 -0.0622  0.0166
   61SAPC   C22 4737   3.184   6.535  10.306 -0.5784 -1.1653  0.1414
   61SAPC   H2R 4738   3.203   6.528  10.197 -0.0526  0.2751  0.1138
   61SAPC   H2S 4739   3.078   6.567  10.318 -0.2195  1.0108 -1.8018
   61SAPC    C3 4740   3.042   6.079  10.398  0.5173 -0.5255  0.0572
   61SAPC    HX 4741   2.954   6.089  10.465 -0.8587  1.7697 -1.9300
   61SAPC    HY 4742   3.093   5.984  10.425  1.5627  0.1178  0.4229
   61SAPC   O31 4743   2.995   6.078  10.261  0.4236 -0.5788  0.0576
   61SAPC   C31 4744   2.889   6.150  10.232  0.3551 -0.0692  0.3625
   61SAPC   O32 4745   2.825   6.223  10.302  0.4379 -0.7966 -0.1258
   61SAPC   C32 4746   2.860   6.145  10.086 -0.0430 -0.2367  0.2432
   61SAPC   H2X 4747   2.835   6.039  10.063 -1.2173 -0.4333  2.1689
   61SAPC   H2Y 4748   2.955   6.183  10.043  1.1766 -0.5335  2.5162
   61SAPC   C23 4749   3.270   6.646  10.364 -0.4290  0.0559 -0.3561
   61SAPC   H3R 4750   3.377   6.626  10.341 -0.1443 -0.8783  1.5999
   61SAPC   H3S 4751   3.239   6.648  10.470 -3.5637  2.6140 -1.1406
   61SAPC   C24 4752   3.240   6.785  10.302 -0.1794  0.2982 -0.0065
   61SAPC   H4R 4753   3.261   6.786  10.193 -1.0303  0.1838 -0.1854
   61SAPC   H4S 4754   3.314   6.852  10.351 -0.3350  0.0091  0.6381
   61SAPC   C25 4755   3.102   6.825  10.350 -0.6143 -0.5628 -0.0683
   61SAPC   H5R 4756   3.086   6.822  10.458  0.3409 -0.3021  0.0888
   61SAPC   C26 4757   2.995   6.831  10.270  0.4468  0.2178 -0.0133
   61SAPC   H6R 4758   2.901   6.859  10.321 -0.6311  1.6105 -2.5696
   61SAPC   C27 4759   2.989   6.827  10.118 -0.1402 -0.0770 -0.2622
   61SAPC   H7R 4760   3.080   6.873  10.074 -0.3254  0.5774  0.0229
   61SAPC   H7S 4761   2.906   6.894  10.088 -2.3540 -2.9544 -1.0945
   61SAPC   C28 4762   2.950   6.704  10.044  0.9443  0.6054  0.3929
   61SAPC   H8R 4763   2.895   6.626  10.098 -0.7307  1.8447  0.5841
   61SAPC   C29 4764   2.955   6.693   9.910 -0.4961  0.1938  0.0881
   61SAPC   H9R 4765   2.940   6.592   9.869 -1.2801  0.3412  0.0029
   61SAPC  C210 4766   3.014   6.796   9.812  0.2123  0.6673  0.7092
   61SAPC  H10R 4767   3.016   6.898   9.855  2.4040  0.3156  1.5518
   61SAPC  H10S 4768   2.943   6.794   9.725 -0.1450 -0.8254  1.0081
   61SAPC  C211 4769   3.156   6.759   9.778 -0.0789 -0.1441 -0.3141
   61SAPC  H11R 4770   3.246   6.766   9.841  1.3146  0.1254 -2.2665
   61SAPC  C212 4771   3.188   6.712   9.660  0.0261  0.1505 -0.3899
   61SAPC  H12R 4772   3.286   6.680   9.623 -0.9259 -1.1839 -1.8972
   61SAPC  C213 4773   3.099   6.693   9.539 -0.5009  0.9013 -0.4263
   61SAPC  H13R 4774   3.077   6.792   9.495  0.0997  1.3393  0.2431
   61SAPC  H13S 4775   2.996   6.663   9.569 -0.3780  1.0016  0.1055
   61SAPC  C214 4776   3.154   6.597   9.437 -0.2347 -0.0394  0.1590
   61SAPC  H14R 4777   3.167   6.497   9.483 -1.3116 -0.5815 -0.6607
   61SAPC  C215 4778   3.184   6.627   9.307 -0.2561 -0.0356  0.5119
   61SAPC  H15R 4779   3.223   6.550   9.239  1.3260  1.0191  0.1833
   61SAPC  C216 4780   3.159   6.757   9.236  0.1069 -0.3243 -0.0083
   61SAPC  H16R 4781   3.215   6.839   9.286 -0.7980  0.3053  0.0176
   61SAPC  H16S 4782   3.052   6.787   9.243  0.3300  0.3342  0.7786
   61SAPC  C217 4783   3.223   6.767   9.093  0.1682  0.6128  0.4139
   61SAPC  H17R 4784   3.165   6.693   9.034  0.6105 -1.1852  2.1191
   61SAPC  H17S 4785   3.327   6.734   9.117  0.6992  0.9430 -1.3283
   61SAPC  C218 4786   3.205   6.896   9.018 -0.1553 -0.4482 -0.5047
   61SAPC  H18R 4787   3.239   6.978   9.085 -0.3000 -1.2015  0.5247
   61SAPC  H18S 4788   3.097   6.918   9.004 -0.1001  0.5442  0.4918
   61SAPC  C219 4789   3.264   6.900   8.867 -0.1798 -0.2192  0.7363
   61SAPC  H19R 4790   3.372   6.923   8.857 -0.2346 -0.9102 -2.5456
   61SAPC  H19S 4791   3.208   6.987   8.827  0.2815 -0.2308  0.0631
   61SAPC  C220 4792   3.217   6.778   8.792  0.4962 -0.4838  0.1127
   61SAPC  H20R 4793   3.249   6.686   8.845  0.9947  0.6536  1.8795
   61SAPC  H20S 4794   3.252   6.789   8.687 -0.1757  1.1958  0.0446
   61SAPC  H20T 4795   3.106   6.783   8.792  0.4919  0.2324  2.3480
   61SAPC   C33 4796   2.738   6.218  10.026  0.0933 -0.6981  0.0406
   61SAPC   H3X 4797   2.745   6.328  10.037 -1.3078 -0.4037 -1.6448
   61SAPC   H3Y 4798   2.649   6.189  10.086 -0.0074  2.5747  1.6702
   61SAPC   C34 4799   2.701   6.185   9.879 -0.2210  0.6667 -0.1696
   61SAPC   H4X 4800   2.594   6.212   9.862 -1.0747 -2.8161 -1.2300
   61SAPC   H4Y 4801   2.713   6.075   9.884  1.4873  0.8798  1.3061
   61SAPC   C35 4802   2.792   6.253   9.774 -0.8612  0.0306 -0.9337
   61SAPC   H5X 4803   2.897   6.227   9.799 -0.5859 -0.6503 -2.6694
   61SAPC   H5Y 4804   2.781   6.364   9.780  0.5076  0.1110  2.0120
   61SAPC   C36 4805   2.757   6.216   9.633  0.4603  0.1954  0.4106
   61SAPC   H6X 4806   2.648   6.216   9.613  0.2569 -3.4008  0.7763
   61SAPC   H6Y 4807   2.771   6.107   9.616 -1.0906  0.1314 -0.6119
   61SAPC   C37 4808   2.842   6.293   9.525 -0.1171 -0.3088 -0.4200
   61SAPC   H7X 4809   2.949   6.269   9.538  0.1796  0.6489 -1.0237
   61SAPC   H7Y 4810   2.817   6.401   9.536 -1.3718 -0.5597 -0.6333
   61SAPC   C38 4811   2.799   6.247   9.387 -0.9423  0.1688 -0.5410
   61SAPC   H8X 4812   2.714   6.315   9.367  1.2128  3.2410 -0.0172
   61SAPC   H8Y 4813   2.768   6.140   9.391  2.6053 -1.0201  4.4495
   61SAPC   C39 4814   2.902   6.264   9.267 -0.2193 -0.0440 -0.0079
   61SAPC   H9X 4815   2.994   6.203   9.284 -0.3207  0.3788  2.5175
   61SAPC   H9Y 4816   2.932   6.370   9.255 -1.6583  0.6535  2.0516
   61SAPC  C310 4817   2.846   6.208   9.133 -0.0133  0.4337  0.2439
   61SAPC  H10X 4818   2.739   6.236   9.122 -2.0842 -5.6886  0.5803
   61SAPC  H10Y 4819   2.833   6.098   9.146  0.5308  0.4769  1.2712
   61SAPC  C311 4820   2.936   6.249   9.010  0.1507  0.5794 -0.5209
   61SAPC  H11X 4821   2.926   6.174   8.928 -0.0644 -0.9613  0.8646
   61SAPC  H11Y 4822   3.040   6.232   9.045 -0.0422 -1.2187 -0.7026
   61SAPC  C312 4823   2.921   6.392   8.959  0.1422 -0.6167 -0.1655
   61SAPC  H12X 4824   2.991   6.403   8.874 -0.1394  1.8006 -0.1684
   61SAPC  H12Y 4825   2.946   6.473   9.031 -0.1095 -2.8690  2.6374
   61SAPC  C313 4826   2.781   6.413   8.905 -0.2555  0.3264  0.3162
   61SAPC  H13X 4827   2.708   6.354   8.965  1.1894 -3.1042 -1.0373
   61SAPC  H13Y 4828   2.770   6.384   8.798  1.6405  0.9199 -0.0666
   61SAPC  C314 4829   2.731   6.558   8.904 -0.4112 -0.0436  0.1041
   61SAPC  H14X 4830   2.768   6.598   9.000 -0.5487  2.8393 -0.9667
   61SAPC  H14Y 4831   2.621   6.573   8.902 -0.7302 -1.9721 -1.9884
   61SAPC  C315 4832   2.782   6.638   8.781  0.2477  0.9999  0.3879
   61SAPC  H15X 4833   2.707   6.613   8.703 -1.4330  3.8773  0.9515
   61SAPC  H15Y 4834   2.888   6.617   8.755 -0.2568 -1.9516  0.3451
   61SAPC  C316 4835   2.772   6.789   8.816 -1.1169 -0.3165  0.4453
   61SAPC  H16X 4836   2.858   6.809   8.883  0.9090 -2.2729 -1.4016
   61SAPC  H16Y 4837   2.672   6.814   8.858 -0.2253  2.3878  1.1467
   61SAPC  C317 4838   2.796   6.868   8.686 -0.1674  0.2198  0.8051
   61SAPC  H17X 4839   2.711   6.857   8.616 -0.8580 -0.7501  1.7570
   61SAPC  H17Y 4840   2.878   6.822   8.627 -1.4842 -0.5936 -0.4513
   61SAPC  C318 4841   2.826   7.015   8.691  0.7454 -0.3335  0.1997
   61SAPC  H18X 4842   2.806   7.066   8.594 -1.2679  3.7798  2.5446
   61SAPC  H18Y 4843   2.935   7.031   8.703  0.5451  1.6095 -0.2353
   61SAPC  H18Z 4844   2.779   7.071   8.774  0.5733 -0.2391  0.0409
   62SAPC     N 4845   2.071   1.533  10.731 -0.2539  0.4278  0.2278
   62SAPC   C12 4846   2.061   1.548  10.581  0.0593  0.0349  0.3287
   62SAPC  H12A 4847   2.107   1.462  10.537  1.5354  0.9096  0.1019
   62SAPC  H12B 4848   2.115   1.637  10.552 -2.8508  2.0930  0.7569
   62SAPC   C13 4849   2.065   1.675  10.792  0.5043 -0.2678  0.0917
   62SAPC  H13A 4850   1.999   1.743  10.741 -0.4613 -1.1321  0.1616
   62SAPC  H13B 4851   2.035   1.677  10.896 -1.4810  1.3803 -0.4477
   62SAPC  H13C 4852   2.161   1.725  10.798 -0.0001  0.5811  1.9359
   62SAPC   C14 4853   1.951   1.456  10.782  0.7886  0.5997  0.2603
   62SAPC  H14A 4854   1.865   1.502  10.736  0.6703  1.4364  1.2577
   62SAPC  H14B 4855   1.946   1.350  10.767 -2.7751  0.4360  1.6400
   62SAPC  H14C 4856   1.932   1.479  10.886 -0.5002  1.7189 -0.1845
   62SAPC   C15 4857   2.200   1.466  10.772  0.7059  0.2602 -0.8791
   62SAPC  H15A 4858   2.210   1.466  10.879  2.3150 -1.5882 -0.9725
   62SAPC  H15B 4859   2.206   1.359  10.758  0.2710  0.4154 -2.4984
   62SAPC  H15C 4860   2.287   1.520  10.737 -0.1529  2.3605  0.0269
   62SAPC   C11 4861   1.920   1.579  10.522  0.6140 -0.2784  0.4068
   62SAPC  H11A 4862   1.852   1.496  10.550  0.9753  0.2248  2.9772
   62SAPC  H11B 4863   1.931   1.589  10.411  0.4422  0.1871  0.4296
   62SAPC     P 4864   1.755   1.791  10.534  0.0106 -0.0620 -0.6087
   62SAPC   O13 4865   1.650   1.792  10.643 -0.2272 -0.0852 -0.1700
   62SAPC   O14 4866   1.809   1.919  10.496 -0.3476 -0.2713 -0.1294
   62SAPC   O12 4867   1.865   1.696  10.584 -0.2473 -0.0568 -0.0788
   62SAPC   O11 4868   1.691   1.718  10.416  0.4405 -0.2658 -0.4195
   62SAPC    C1 4869   1.627   1.594  10.411  0.8177  0.4261  0.8190
   62SAPC    HA 4870   1.706   1.516  10.415  0.7762  0.3614  0.4220
   62SAPC    HB 4871   1.557   1.588  10.497 -1.6832 -0.6252 -1.1350
   62SAPC    C2 4872   1.555   1.584  10.276 -0.5836 -0.0035  0.4889
   62SAPC    HS 4873   1.535   1.476  10.258  1.0556 -0.5297  1.5868
   62SAPC   O21 4874   1.640   1.630  10.173  0.3249  0.4117 -0.4170
   62SAPC   C21 4875   1.746   1.577  10.141 -0.0508 -0.0396 -0.0103
   62SAPC   O22 4876   1.792   1.467  10.171  0.1883 -0.1227 -0.3160
   62SAPC   C22 4877   1.813   1.666  10.032 -0.6920 -0.0983 -0.2760
   62SAPC   H2R 4878   1.738   1.743  10.004  0.0345  1.4662  1.8444
   62SAPC   H2S 4879   1.896   1.713  10.090 -1.2557 -0.9357  1.2516
   62SAPC    C3 4880   1.416   1.660  10.282 -0.3513 -0.0948  0.3194
   62SAPC    HX 4881   1.439   1.766  10.306  5.0952 -1.4479  2.8717
   62SAPC    HY 4882   1.361   1.613  10.366 -2.5383  1.9669  0.1221
   62SAPC   O31 4883   1.334   1.649  10.166 -0.2879 -0.0736  0.4287
   62SAPC   C31 4884   1.289   1.535  10.132  0.1859 -0.1378 -0.6700
   62SAPC   O32 4885   1.306   1.430  10.190  0.1974  0.1673 -0.4507
   62SAPC   C32 4886   1.213   1.555   9.998 -0.7030 -0.3907 -0.6155
   62SAPC   H2X 4887   1.288   1.610   9.938 -0.3085 -1.0539 -0.7394
   62SAPC   H2Y 4888   1.135   1.629  10.026  2.0345  1.7748  1.9392
   62SAPC   C23 4889   1.885   1.590   9.925  0.2924 -0.2484  1.0291
   62SAPC   H3R 4890   1.929   1.497   9.968  0.7160 -0.7676 -0.4426
   62SAPC   H3S 4891   1.960   1.664   9.890 -1.6309  0.7509 -1.2453
   62SAPC   C24 4892   1.801   1.572   9.798  0.5267  0.1490 -0.5939
   62SAPC   H4R 4893   1.874   1.523   9.730  0.5492  1.0986 -1.2666
   62SAPC   H4S 4894   1.777   1.671   9.754 -1.9910  0.7210  1.7906
   62SAPC   C25 4895   1.676   1.487   9.814 -0.0273 -0.4801  0.2679
   62SAPC   H5R 4896   1.700   1.390   9.859  1.5816 -1.3280 -2.2345
   62SAPC   C26 4897   1.550   1.518   9.779  0.4779  0.2399 -0.9622
   62SAPC   H6R 4898   1.464   1.456   9.810 -1.2600  3.2002  0.6052
   62SAPC   C27 4899   1.517   1.654   9.721  0.5616 -0.0225 -0.2981
   62SAPC   H7R 4900   1.590   1.687   9.644  0.2817  0.0006 -0.5565
   62SAPC   H7S 4901   1.534   1.735   9.795 -2.1177  1.1786 -0.8868
   62SAPC   C28 4902   1.378   1.676   9.661  0.5184 -0.7467 -0.0917
   62SAPC   H8R 4903   1.309   1.725   9.732  1.7983 -0.2813  0.8705
   62SAPC   C29 4904   1.336   1.646   9.536  0.5522 -0.2810  0.0195
   62SAPC   H9R 4905   1.236   1.672   9.497  0.5936 -0.3512 -0.1357
   62SAPC  C210 4906   1.420   1.574   9.426  0.5918 -0.1930 -0.6271
   62SAPC  H10R 4907   1.524   1.607   9.444  0.1471  0.9804 -0.1020
   62SAPC  H10S 4908   1.399   1.621   9.327  0.7218 -0.9207 -1.0039
   62SAPC  C211 4909   1.401   1.425   9.415  0.5413 -0.0091 -0.3756
   62SAPC  H11R 4910   1.312   1.384   9.465 -0.2921  0.1385 -1.6931
   62SAPC  C212 4911   1.472   1.342   9.340 -0.0577  0.0590  0.0164
   62SAPC  H12R 4912   1.441   1.240   9.312  2.8080 -0.8103 -0.3182
   62SAPC  C213 4913   1.585   1.394   9.254 -0.1413 -0.1167 -0.7583
   62SAPC  H13R 4914   1.557   1.493   9.209 -3.0433  0.0203  1.1064
   62SAPC  H13S 4915   1.602   1.320   9.173  1.8131  2.0105 -2.4520
   62SAPC  C214 4916   1.719   1.412   9.319  0.0288  0.2425 -0.2353
   62SAPC  H14R 4917   1.742   1.340   9.399 -1.1551 -0.0417 -0.1400
   62SAPC  C215 4918   1.804   1.505   9.296  0.0794 -0.4868  0.6258
   62SAPC  H15R 4919   1.891   1.511   9.363  0.4882 -0.2323  0.0750
   62SAPC  C216 4920   1.800   1.624   9.198 -0.0628 -0.2472  0.7060
   62SAPC  H16R 4921   1.695   1.660   9.186  0.5101  1.3174  0.1322
   62SAPC  H16S 4922   1.842   1.590   9.101  0.5712  0.4036  0.7432
   62SAPC  C217 4923   1.882   1.743   9.252 -0.0559  0.6728  0.2406
   62SAPC  H17R 4924   1.834   1.762   9.351 -1.1268 -1.0882  0.0900
   62SAPC  H17S 4925   1.875   1.833   9.187  2.0089  0.5474 -0.2390
   62SAPC  C218 4926   2.037   1.714   9.272 -0.3651  0.2781 -0.3532
   62SAPC  H18R 4927   2.054   1.632   9.199 -1.9487 -1.8394  1.5099
   62SAPC  H18S 4928   2.049   1.681   9.378 -1.2762  1.3271  0.0912
   62SAPC  C219 4929   2.119   1.842   9.261 -0.6580 -0.5867  0.4208
   62SAPC  H19R 4930   2.219   1.833   9.310  1.0711  1.3915 -2.4591
   62SAPC  H19S 4931   2.062   1.918   9.318 -1.1731 -2.4698  2.5840
   62SAPC  C220 4932   2.153   1.892   9.119 -0.0336 -0.0215  0.4114
   62SAPC  H20R 4933   2.205   1.990   9.111  0.4416 -0.3405 -0.4699
   62SAPC  H20S 4934   2.060   1.888   9.058 -0.4152 -0.3864  1.0078
   62SAPC  H20T 4935   2.217   1.812   9.076  1.0350  0.6621  0.6758
   62SAPC   C33 4936   1.153   1.427   9.925 -0.0964  0.8194  0.4310
   62SAPC   H3X 4937   1.120   1.350   9.998  0.9114  0.9827  1.0675
   62SAPC   H3Y 4938   1.230   1.390   9.854 -0.5272  0.3389  0.2086
   62SAPC   C34 4939   1.036   1.466   9.835 -0.4340  0.4468 -0.2365
   62SAPC   H4X 4940   1.066   1.554   9.775 -1.3616  0.1097 -1.2019
   62SAPC   H4Y 4941   0.957   1.491   9.909  0.5441  0.6348  0.7788
   62SAPC   C35 4942   0.987   1.354   9.737 -0.5319  0.4469  0.2215
   62SAPC   H5X 4943   0.975   1.263   9.800 -1.6055 -0.8513 -1.7632
   62SAPC   H5Y 4944   1.066   1.322   9.666  0.5478  0.3110  1.4379
   62SAPC   C36 4945   0.854   1.395   9.677  0.0695  0.1609  0.8406
   62SAPC   H6X 4946   0.855   1.484   9.611 -0.2092  0.8855  1.7866
   62SAPC   H6Y 4947   0.779   1.408   9.758  1.9317  0.3626  2.6364
   62SAPC   C37 4948   0.797   1.289   9.584  0.0569  0.4167  0.4851
   62SAPC   H7X 4949   0.697   1.330   9.559  0.9245  2.4629  0.1990
   62SAPC   H7Y 4950   0.780   1.196   9.643  0.5371  1.0339  1.6412
   62SAPC   C38 4951   0.869   1.280   9.451  0.2398  0.0096  0.0988
   62SAPC   H8X 4952   0.962   1.227   9.481 -1.2240 -1.3437  2.6445
   62SAPC   H8Y 4953   0.888   1.386   9.421 -0.1093 -0.0974 -0.5073
   62SAPC   C39 4954   0.796   1.204   9.336  0.7301  0.0651  0.1680
   62SAPC   H9X 4955   0.696   1.252   9.337  1.0992  0.8594  1.3733
   62SAPC   H9Y 4956   0.794   1.095   9.352 -0.7928  0.1405  0.7052
   62SAPC  C310 4957   0.858   1.231   9.198  0.1535 -0.3272 -0.7304
   62SAPC  H10X 4958   0.962   1.194   9.187  0.2520 -0.2871  0.0068
   62SAPC  H10Y 4959   0.854   1.341   9.188 -0.5166 -0.1594  1.1118
   62SAPC  C311 4960   0.767   1.175   9.083  0.8394 -0.2583 -0.2697
   62SAPC  H11X 4961   0.657   1.181   9.094  0.8177 -2.7069  1.7603
   62SAPC  H11Y 4962   0.794   1.067   9.079  0.5650 -0.4458  1.8251
   62SAPC  C312 4963   0.798   1.248   8.954  0.0334 -0.5542  0.1056
   62SAPC  H12X 4964   0.903   1.213   8.945  0.1050 -0.0553 -1.1758
   62SAPC  H12Y 4965   0.795   1.358   8.970  0.6251 -0.5383  0.1203
   62SAPC  C313 4966   0.715   1.194   8.836 -0.9549  0.0545  0.1716
   62SAPC  H13X 4967   0.612   1.233   8.846  0.6929  5.7248 -1.2887
   62SAPC  H13Y 4968   0.735   1.085   8.839 -0.4551  0.1435  0.3467
   62SAPC  C314 4969   0.766   1.260   8.700  0.3088 -0.1207 -0.5421
   62SAPC  H14X 4970   0.875   1.239   8.712 -0.2324 -1.9889  1.7343
   62SAPC  H14Y 4971   0.759   1.371   8.702  0.8570 -0.0598 -1.3859
   62SAPC  C315 4972   0.714   1.193   8.578  0.1398  0.3745 -0.5785
   62SAPC  H15X 4973   0.605   1.216   8.584 -0.2657 -1.4898 -0.0126
   62SAPC  H15Y 4974   0.720   1.082   8.587 -3.3763  0.1882  1.1646
   62SAPC  C316 4975   0.775   1.238   8.449 -0.3166  0.3761  0.2448
   62SAPC  H16X 4976   0.770   1.348   8.455 -0.6862  0.2841  2.7872
   62SAPC  H16Y 4977   0.710   1.211   8.364  2.0939  1.4520 -2.0751
   62SAPC  C317 4978   0.921   1.194   8.427 -0.5201  0.4697 -0.2499
   62SAPC  H17X 4979   0.913   1.094   8.379  0.8214  1.2075 -2.1344
   62SAPC  H17Y 4980   0.990   1.177   8.513  1.1854  0.1540 -1.6102
   62SAPC  C318 4981   1.004   1.281   8.337 -0.2031 -0.2975 -0.1952
   62SAPC  H18X 4982   1.111   1.251   8.328 -0.8077 -2.7896  0.1441
   62SAPC  H18Y 4983   0.996   1.383   8.381 -0.2809 -1.1625  1.8895
   62SAPC  H18Z 4984   0.961   1.277   8.235 -1.3258 -1.8515  0.3088
   63SAPC     N 4985   6.130   2.189   5.979  0.4446 -0.7371  0.4261
   63SAPC   C12 4986   6.003   2.266   5.946 -0.6505 -0.0166  0.7552
   63SAPC  H12A 4987   5.941   2.194   5.893  1.2350 -0.9097 -0.3654
   63SAPC  H12B 4988   6.031   2.340   5.872 -0.0692 -0.0643  0.9241
   63SAPC   C13 4989   6.165   2.106   5.861 -0.0650 -0.3008  0.4893
   63SAPC  H13A 4990   6.171   2.159   5.767 -0.0104 -0.2933  0.4972
   63SAPC  H13B 4991   6.262   2.059   5.875 -0.0821 -0.1273  1.2338
   63SAPC  H13C 4992   6.097   2.024   5.843  0.1757 -0.4813  0.3890
   63SAPC   C14 4993   6.245   2.275   6.025  0.0215 -0.4515  0.0542
   63SAPC  H14A 4994   6.270   2.346   5.947 -0.8196 -0.0665  0.1291
   63SAPC  H14B 4995   6.225   2.321   6.120  2.5067  0.2767  0.2959
   63SAPC  H14C 4996   6.324   2.207   6.052  0.8729  0.6425  0.3695
   63SAPC   C15 4997   6.103   2.099   6.097 -0.4223  0.1377 -0.0587
   63SAPC  H15A 4998   6.196   2.056   6.132 -0.3989  0.8536  0.7938
   63SAPC  H15B 4999   6.065   2.160   6.177 -0.2093 -1.2098  1.1098
   63SAPC  H15C 5000   6.029   2.021   6.082 -1.0129  0.7584 -0.4281
   63SAPC   C11 5001   5.933   2.329   6.069 -0.7853 -0.0791  0.4408
   63SAPC  H11A 5002   5.887   2.247   6.129 -3.1063  1.6936  1.2709
   63SAPC  H11B 5003   5.846   2.389   6.035 -0.1295  0.5704 -0.1315
   63SAPC     P 5004   6.030   2.572   6.130  0.0823 -0.1155  0.0675
   63SAPC   O13 5005   6.116   2.596   6.015  0.2505  0.3229 -0.8718
   63SAPC   O14 5006   5.894   2.630   6.115  0.2686  0.2730 -0.6873
   63SAPC   O12 5007   6.014   2.411   6.154 -0.4270 -0.7416  0.5434
   63SAPC   O11 5008   6.095   2.620   6.266 -0.1045  0.1798 -0.1859
   63SAPC    C1 5009   6.217   2.555   6.308 -0.4283  0.6149  0.5634
   63SAPC    HA 5010   6.253   2.480   6.234 -0.2380  2.4748 -1.3228
   63SAPC    HB 5011   6.299   2.630   6.309 -1.0822  1.3357  0.8220
   63SAPC    C2 5012   6.200   2.485   6.446 -0.0340 -0.0815 -0.2136
   63SAPC    HS 5013   6.106   2.425   6.446  0.6281 -1.1675  1.0254
   63SAPC   O21 5014   6.198   2.581   6.557  0.1745 -0.5131  0.0101
   63SAPC   C21 5015   6.071   2.614   6.608 -0.6584  0.2594  0.3250
   63SAPC   O22 5016   5.968   2.596   6.550 -0.0913  0.2724 -0.1658
   63SAPC   C22 5017   6.084   2.681   6.741  0.4383  0.6887 -0.0254
   63SAPC   H2R 5018   6.129   2.608   6.811 -2.5060 -0.2175  1.0532
   63SAPC   H2S 5019   6.133   2.780   6.725 -0.2690  0.9577 -0.5931
   63SAPC    C3 5020   6.314   2.381   6.471 -0.1988 -1.8237 -0.9073
   63SAPC    HX 5021   6.402   2.440   6.504 -1.7569  0.4888 -0.6410
   63SAPC    HY 5022   6.339   2.322   6.380 -2.7761 -3.6013 -0.5868
   63SAPC   O31 5023   6.274   2.289   6.574  0.3752 -0.4291 -0.8725
   63SAPC   C31 5024   6.369   2.202   6.596 -0.3496  0.2530 -0.2685
   63SAPC   O32 5025   6.484   2.207   6.557  0.3179 -0.1032  0.1057
   63SAPC   C32 5026   6.315   2.078   6.678  0.5463 -0.6178  0.1287
   63SAPC   H2X 5027   6.383   2.064   6.765 -0.0011 -1.8469  0.3812
   63SAPC   H2Y 5028   6.321   1.995   6.604 -1.1962 -1.1134  0.5064
   63SAPC   C23 5029   5.950   2.724   6.813 -0.2489 -0.5308 -0.1806
   63SAPC   H3R 5030   5.894   2.631   6.835 -0.1203 -0.1857  1.7902
   63SAPC   H3S 5031   5.895   2.791   6.744 -0.5069  0.8069  1.2628
   63SAPC   C24 5032   5.975   2.810   6.938 -0.1511  0.0516  0.5658
   63SAPC   H4R 5033   5.891   2.870   6.979  0.2875  0.3686  1.0143
   63SAPC   H4S 5034   6.061   2.875   6.908  0.4889 -1.6246 -1.5206
   63SAPC   C25 5035   6.019   2.716   7.049 -0.6547 -0.6508 -0.8832
   63SAPC   H5R 5036   6.113   2.660   7.040  0.3644  0.3604  2.1987
   63SAPC   C26 5037   5.954   2.704   7.169  0.1880  0.5628  0.4701
   63SAPC   H6R 5038   5.993   2.641   7.250  0.1501  1.0804  0.9017
   63SAPC   C27 5039   5.822   2.763   7.209 -0.3333  0.2574 -0.6680
   63SAPC   H7R 5040   5.771   2.697   7.281  1.8119 -0.4729  0.2536
   63SAPC   H7S 5041   5.753   2.776   7.123  0.8623  0.3249 -1.6604
   63SAPC   C28 5042   5.833   2.905   7.269 -0.3872  0.3148  0.3135
   63SAPC   H8R 5043   5.896   2.968   7.205  1.6128 -0.5398  1.3274
   63SAPC   C29 5044   5.752   2.961   7.366 -0.1825 -0.2321  0.5226
   63SAPC   H9R 5045   5.767   3.068   7.382 -0.5346 -0.1204  0.1336
   63SAPC  C210 5046   5.637   2.893   7.441 -0.5067 -0.4924  0.1302
   63SAPC  H10R 5047   5.657   2.889   7.550 -0.5064  2.0929  0.2808
   63SAPC  H10S 5048   5.635   2.790   7.398 -0.3953 -0.4350 -0.0132
   63SAPC  C211 5049   5.517   2.976   7.417  0.0078  0.5005  0.2694
   63SAPC  H11R 5050   5.465   2.945   7.325  3.2375  1.8562 -2.2544
   63SAPC  C212 5051   5.475   3.082   7.489  0.1048 -0.0365 -0.8567
   63SAPC  H12R 5052   5.375   3.124   7.471 -1.1121 -3.0839 -1.7548
   63SAPC  C213 5053   5.550   3.143   7.599 -0.4026  0.1061  0.1271
   63SAPC  H13R 5054   5.658   3.124   7.583 -0.2077  0.8548  0.4702
   63SAPC  H13S 5055   5.530   3.109   7.703  0.3145 -0.6851  0.0135
   63SAPC  C214 5056   5.536   3.293   7.589  0.2387 -0.4685  0.4110
   63SAPC  H14R 5057   5.587   3.343   7.506  1.6236  2.1381  2.6686
   63SAPC  C215 5058   5.475   3.372   7.676 -0.4280  0.0510 -0.1695
   63SAPC  H15R 5059   5.469   3.479   7.650  0.6766 -0.3427 -2.1698
   63SAPC  C216 5060   5.402   3.331   7.806  0.1617 -0.3538  1.1318
   63SAPC  H16R 5061   5.360   3.230   7.785 -0.3967  0.1767 -0.4573
   63SAPC  H16S 5062   5.316   3.400   7.821  1.4367  1.0448  2.2636
   63SAPC  C217 5063   5.493   3.335   7.930  0.0403 -0.1700  0.3412
   63SAPC  H17R 5064   5.517   3.442   7.946 -1.4456  0.1678  0.4381
   63SAPC  H17S 5065   5.585   3.276   7.910  2.0656  2.5754  0.9683
   63SAPC  C218 5066   5.414   3.277   8.048  0.1156 -0.1628  1.0619
   63SAPC  H18R 5067   5.448   3.179   8.086 -1.4794 -2.1060 -2.0902
   63SAPC  H18S 5068   5.317   3.244   8.005 -1.0487  3.0492  0.9398
   63SAPC  C219 5069   5.394   3.384   8.155  0.1405 -0.5849  0.1148
   63SAPC  H19R 5070   5.338   3.472   8.117  2.7272  1.5187  0.9229
   63SAPC  H19S 5071   5.497   3.417   8.178 -0.6746  0.7667  2.0511
   63SAPC  C220 5072   5.336   3.340   8.290  0.3302 -0.0731  0.4075
   63SAPC  H20R 5073   5.288   3.427   8.339 -0.0958  0.5570 -1.0623
   63SAPC  H20S 5074   5.413   3.280   8.344 -0.6232  0.5372  2.5453
   63SAPC  H20T 5075   5.247   3.280   8.263 -0.6126  1.6493 -0.5208
   63SAPC   C33 5076   6.174   2.088   6.747 -0.1514 -0.3765 -0.1719
   63SAPC   H3X 5077   6.098   2.124   6.674 -0.3171 -2.4845 -1.1130
   63SAPC   H3Y 5078   6.184   2.158   6.832 -0.1434  3.7195 -3.2365
   63SAPC   C34 5079   6.119   1.952   6.797  0.6435 -0.1773 -0.4155
   63SAPC   H4X 5080   6.114   1.884   6.709  1.4861 -1.5716  0.5897
   63SAPC   H4Y 5081   6.016   1.962   6.838 -0.0256 -2.0471 -1.5307
   63SAPC   C35 5082   6.215   1.889   6.906 -0.0325 -0.5254 -0.6018
   63SAPC   H5X 5083   6.213   1.949   6.999  1.5071  0.0268 -0.8920
   63SAPC   H5Y 5084   6.320   1.885   6.871  0.5824  0.7590  0.9791
   63SAPC   C36 5085   6.184   1.739   6.943 -0.0867  0.4491 -0.5032
   63SAPC   H6X 5086   6.176   1.684   6.846 -0.3030  1.6434 -1.1904
   63SAPC   H6Y 5087   6.078   1.745   6.975  0.3960  1.1535  1.0292
   63SAPC   C37 5088   6.280   1.666   7.039  0.5848  0.1342 -0.7447
   63SAPC   H7X 5089   6.373   1.727   7.034  1.4478 -1.1019 -0.2882
   63SAPC   H7Y 5090   6.311   1.561   7.021  0.6284  0.2050 -1.0912
   63SAPC   C38 5091   6.212   1.661   7.180 -0.1548 -0.6253 -0.7829
   63SAPC   H8X 5092   6.151   1.569   7.191 -0.8347  0.0002  1.1535
   63SAPC   H8Y 5093   6.154   1.756   7.188  0.8584 -0.1181  1.3365
   63SAPC   C39 5094   6.320   1.653   7.288 -0.1464 -0.3140  0.3477
   63SAPC   H9X 5095   6.375   1.747   7.311 -2.3976  0.5107  2.8556
   63SAPC   H9Y 5096   6.402   1.592   7.244  0.6963  1.5661 -0.8337
   63SAPC  C310 5097   6.267   1.583   7.416 -0.4817  0.3754 -0.0918
   63SAPC  H10X 5098   6.215   1.487   7.395  1.0104 -0.4536 -0.1582
   63SAPC  H10Y 5099   6.187   1.644   7.463 -2.2722  0.2952 -2.7895
   63SAPC  C311 5100   6.383   1.559   7.515 -0.1282 -0.5472 -0.2283
   63SAPC  H11X 5101   6.447   1.650   7.513 -1.8943  0.7183 -1.5453
   63SAPC  H11Y 5102   6.440   1.466   7.494 -1.5582 -2.1060  2.2385
   63SAPC  C312 5103   6.333   1.553   7.661  0.4940 -0.3688 -0.2690
   63SAPC  H12X 5104   6.255   1.475   7.670 -1.0133  0.9012 -1.6465
   63SAPC  H12Y 5105   6.285   1.651   7.683  0.3673 -0.7258  1.1184
   63SAPC  C313 5106   6.443   1.537   7.766 -0.3080 -0.0785  1.2765
   63SAPC  H13X 5107   6.509   1.622   7.740  0.4519 -1.5740 -2.2523
   63SAPC  H13Y 5108   6.506   1.448   7.747  0.1762  0.4940  0.1092
   63SAPC  C314 5109   6.401   1.550   7.904 -0.1662 -0.1993 -0.4740
   63SAPC  H14X 5110   6.325   1.631   7.903 -1.4272 -1.2760 -3.4531
   63SAPC  H14Y 5111   6.484   1.586   7.970 -0.2101  0.0992 -0.5797
   63SAPC  C315 5112   6.364   1.418   7.972 -0.4387 -0.5345  0.5078
   63SAPC  H15X 5113   6.292   1.364   7.907 -1.6390  1.0644  0.4365
   63SAPC  H15Y 5114   6.314   1.435   8.069 -0.4326  1.8087  0.1569
   63SAPC  C316 5115   6.493   1.326   7.979  0.4127  0.1177  0.3347
   63SAPC  H16X 5116   6.582   1.386   8.008 -0.4055  1.2661  0.5591
   63SAPC  H16Y 5117   6.510   1.276   7.881 -1.5693 -1.6858  0.8330
   63SAPC  C317 5118   6.480   1.225   8.092 -1.0082  0.5332 -0.2584
   63SAPC  H17X 5119   6.403   1.150   8.064  0.1985  0.0167 -2.3756
   63SAPC  H17Y 5120   6.457   1.280   8.186 -1.4750  2.6575 -1.5448
   63SAPC  C318 5121   6.616   1.134   8.104  0.3208  1.1843 -0.0378
   63SAPC  H18X 5122   6.702   1.191   8.143  1.4959 -0.1773 -0.5543
   63SAPC  H18Y 5123   6.625   1.092   8.001  0.7199  0.7876  0.1569
   63SAPC  H18Z 5124   6.600   1.058   8.184  0.0025 -1.0314 -2.0873
   64SAPC     N 5125   4.257   3.520   6.100  0.4397  0.2539 -0.1525
   64SAPC   C12 5126   4.324   3.398   6.158 -0.1304  0.7478  0.2407
   64SAPC  H12A 5127   4.316   3.307   6.102  1.7575  1.7204 -1.7829
   64SAPC  H12B 5128   4.291   3.380   6.259 -1.7609  0.7221 -0.2791
   64SAPC   C13 5129   4.316   3.656   6.142  0.2903  0.4616 -0.5213
   64SAPC  H13A 5130   4.411   3.667   6.092  0.9832 -0.9460  0.4160
   64SAPC  H13B 5131   4.255   3.743   6.122  1.0272  0.9014 -0.9001
   64SAPC  H13C 5132   4.338   3.640   6.246 -0.4175 -0.4066 -0.4958
   64SAPC   C14 5133   4.266   3.520   5.950 -0.0551  0.1648  0.1448
   64SAPC  H14A 5134   4.371   3.521   5.925  0.3028  0.0483  1.5755
   64SAPC  H14B 5135   4.219   3.433   5.906 -1.4404  0.4563  0.9795
   64SAPC  H14C 5136   4.238   3.617   5.910  0.1441  0.8506  1.6191
   64SAPC   C15 5137   4.109   3.514   6.138  0.7502 -0.6343 -0.5999
   64SAPC  H15A 5138   4.100   3.513   6.246  1.2404 -1.4962 -0.5579
   64SAPC  H15B 5139   4.061   3.606   6.108  1.8747  0.3229  0.4260
   64SAPC  H15C 5140   4.048   3.436   6.096 -3.0031  1.2295  0.8977
   64SAPC   C11 5141   4.478   3.420   6.172  0.0992 -0.0078  0.2108
   64SAPC  H11A 5142   4.508   3.332   6.233 -0.0732  0.4517  0.9701
   64SAPC  H11B 5143   4.506   3.507   6.236  1.7170 -2.9360  3.8158
   64SAPC     P 5144   4.698   3.440   6.034 -0.1803 -0.1965 -0.0146
   64SAPC   O13 5145   4.757   3.378   5.918 -0.5354 -0.4550 -0.0196
   64SAPC   O14 5146   4.714   3.589   6.051 -0.5633 -0.8376 -0.3720
   64SAPC   O12 5147   4.541   3.411   6.036 -0.6092 -0.8642 -0.0955
   64SAPC   O11 5148   4.759   3.376   6.163 -0.1430 -0.1312 -0.2665
   64SAPC    C1 5149   4.902   3.389   6.190 -0.0991 -0.7540 -0.3101
   64SAPC    HA 5150   4.967   3.434   6.113 -1.7292 -1.3858 -2.1360
   64SAPC    HB 5151   4.925   3.446   6.283  3.1223  0.2783 -1.6112
   64SAPC    C2 5152   4.953   3.243   6.211 -0.1014  0.6482  0.0215
   64SAPC    HS 5153   4.914   3.186   6.124 -0.8859  1.2594 -0.0398
   64SAPC   O21 5154   4.908   3.193   6.339 -0.2801 -0.2114  0.0844
   64SAPC   C21 5155   4.871   3.066   6.336  0.0748 -0.0476  0.0890
   64SAPC   O22 5156   4.875   2.990   6.235  0.1362  0.0293 -0.3306
   64SAPC   C22 5157   4.821   3.030   6.475 -0.3056  0.0326  0.4545
   64SAPC   H2R 5158   4.778   3.126   6.513  2.6446  3.2600 -3.4960
   64SAPC   H2S 5159   4.742   2.956   6.452 -1.1669  1.0088  0.1813
   64SAPC    C3 5160   5.105   3.240   6.197 -0.0276 -0.1026  0.1992
   64SAPC    HX 5161   5.124   3.293   6.101 -2.3873  0.4025 -0.0511
   64SAPC    HY 5162   5.128   3.132   6.186 -3.3131 -1.0341  1.1714
   64SAPC   O31 5163   5.174   3.308   6.306 -0.1451 -0.1408 -0.0888
   64SAPC   C31 5164   5.246   3.234   6.388  0.5207  0.1443 -0.3396
   64SAPC   O32 5165   5.256   3.110   6.389  0.2610 -0.6283  0.5332
   64SAPC   C32 5166   5.337   3.335   6.466 -0.1217  0.0593  0.1826
   64SAPC   H2X 5167   5.301   3.436   6.438  0.4501  0.5498  1.1429
   64SAPC   H2Y 5168   5.435   3.330   6.414 -0.4829  1.6284 -0.7157
   64SAPC   C23 5169   4.925   2.951   6.555 -1.4272 -0.2625  0.0309
   64SAPC   H3R 5170   5.030   2.987   6.546 -1.9719  1.4991  0.2862
   64SAPC   H3S 5171   4.933   2.847   6.518  1.6565 -0.0952 -0.0055
   64SAPC   C24 5172   4.901   2.938   6.703 -0.0402  0.7954 -0.1446
   64SAPC   H4R 5173   4.938   2.835   6.726 -2.1722 -0.3243 -1.3610
   64SAPC   H4S 5174   4.794   2.923   6.729 -0.0568 -0.2775 -0.7255
   64SAPC   C25 5175   4.948   3.060   6.778  0.0875  0.7327 -0.7163
   64SAPC   H5R 5176   4.910   3.156   6.740 -2.5128 -0.4667 -1.4167
   64SAPC   C26 5177   5.029   3.069   6.885  0.0332  0.1502 -0.3386
   64SAPC   H6R 5178   5.040   3.164   6.938 -0.1194 -1.1993  2.2730
   64SAPC   C27 5179   5.095   2.951   6.952  0.3371  0.1788 -0.3806
   64SAPC   H7R 5180   5.200   2.942   6.917  0.4373 -2.0069  0.3339
   64SAPC   H7S 5181   5.047   2.857   6.918  1.3165 -1.5705  2.6699
   64SAPC   C28 5182   5.071   2.947   7.101 -0.3116 -0.3902  0.0891
   64SAPC   H8R 5183   5.003   3.023   7.143 -1.3320 -0.3746 -1.5129
   64SAPC   C29 5184   5.112   2.848   7.182  0.4070 -0.0452 -0.1186
   64SAPC   H9R 5185   5.076   2.846   7.286 -1.5896 -0.6792 -0.7816
   64SAPC  C210 5186   5.195   2.723   7.144 -0.6132 -1.0878  0.7298
   64SAPC  H10R 5187   5.182   2.713   7.034 -0.3465  1.9912  0.3251
   64SAPC  H10S 5188   5.145   2.635   7.189 -3.1154 -0.0498  0.1643
   64SAPC  C211 5189   5.342   2.733   7.175 -0.1708  0.0896 -0.4393
   64SAPC  H11R 5190   5.366   2.748   7.281 -1.9610  0.6348 -0.0653
   64SAPC  C212 5191   5.444   2.718   7.087  0.6479 -0.3346  0.0665
   64SAPC  H12R 5192   5.543   2.713   7.136  0.6216 -0.5289  0.0998
   64SAPC  C213 5193   5.431   2.703   6.934 -1.1389 -0.0343 -0.3152
   64SAPC  H13R 5194   5.341   2.756   6.897  0.5911  1.9820 -1.9228
   64SAPC  H13S 5195   5.412   2.597   6.907 -1.6702  0.0884 -0.4198
   64SAPC  C214 5196   5.556   2.748   6.865 -0.2957  0.2916  0.1211
   64SAPC  H14R 5197   5.632   2.670   6.856 -1.1211 -0.3784 -1.5253
   64SAPC  C215 5198   5.592   2.877   6.835  0.2674  0.8475  0.4222
   64SAPC  H15R 5199   5.674   2.894   6.763  0.0378 -0.2365 -0.1140
   64SAPC  C216 5200   5.515   3.007   6.867  0.2425  0.3657  0.6863
   64SAPC  H16R 5201   5.429   2.982   6.932  0.6556 -2.0748  0.4058
   64SAPC  H16S 5202   5.481   3.058   6.775 -0.8355 -0.2251  0.7359
   64SAPC  C217 5203   5.605   3.108   6.946 -0.4575  0.3785 -0.0284
   64SAPC  H17R 5204   5.680   3.139   6.869 -0.9779  3.3340  0.5641
   64SAPC  H17S 5205   5.652   3.061   7.035 -1.7906 -0.6236  0.1773
   64SAPC  C218 5206   5.542   3.235   6.999  0.7006  0.5565 -0.2473
   64SAPC  H18R 5207   5.478   3.282   6.922  1.7882  0.8128 -1.0123
   64SAPC  H18S 5208   5.626   3.302   7.026  2.4667 -1.1476 -1.2819
   64SAPC  C219 5209   5.460   3.216   7.130  0.0950 -0.1391 -0.6745
   64SAPC  H19R 5210   5.508   3.147   7.202  2.1432  3.8992  2.2201
   64SAPC  H19S 5211   5.368   3.159   7.104 -0.8663  0.1034  1.9407
   64SAPC  C220 5212   5.425   3.341   7.211  0.3083 -0.3405  0.0723
   64SAPC  H20R 5213   5.505   3.418   7.199  0.0839 -0.0582  0.3586
   64SAPC  H20S 5214   5.427   3.315   7.318  0.2674  0.3518  0.2469
   64SAPC  H20T 5215   5.333   3.389   7.168  0.5220 -0.8593 -0.9985
   64SAPC   C33 5216   5.361   3.307   6.614  0.3262  0.0091  0.1218
   64SAPC   H3X 5217   5.445   3.373   6.646 -1.0491  1.8966 -0.0235
   64SAPC   H3Y 5218   5.395   3.204   6.634 -1.3086 -0.0509  3.0715
   64SAPC   C34 5219   5.235   3.335   6.707 -0.2722  0.6639  0.3737
   64SAPC   H4X 5220   5.264   3.311   6.812 -0.5099 -1.7217 -0.0607
   64SAPC   H4Y 5221   5.151   3.265   6.690 -0.9042  1.7729 -1.2806
   64SAPC   C35 5222   5.179   3.472   6.714  0.5007 -0.1201  0.1495
   64SAPC   H5X 5223   5.150   3.508   6.613  0.8548  2.7423  0.9933
   64SAPC   H5Y 5224   5.251   3.548   6.751  1.5457  1.1727 -3.9888
   64SAPC   C36 5225   5.048   3.487   6.791 -0.8035  0.2335 -0.0519
   64SAPC   H6X 5226   4.978   3.409   6.755  0.1947 -0.1526 -1.2127
   64SAPC   H6Y 5227   5.010   3.591   6.780 -1.0845  0.3446  1.6335
   64SAPC   C37 5228   5.071   3.471   6.947  0.1139 -0.0031  0.1138
   64SAPC   H7X 5229   5.140   3.552   6.980  0.2225  0.7044 -1.7212
   64SAPC   H7Y 5230   5.129   3.377   6.953  1.4035  0.6891 -0.9340
   64SAPC   C38 5231   4.939   3.480   7.033 -0.2644  0.2337 -0.2751
   64SAPC   H8X 5232   4.868   3.396   7.016  2.4079 -1.8667 -1.9016
   64SAPC   H8Y 5233   4.888   3.569   6.990  2.3320  1.6203 -0.6822
   64SAPC   C39 5234   4.968   3.481   7.185  0.0528 -0.2861 -0.0102
   64SAPC   H9X 5235   4.875   3.507   7.241  0.3697 -0.8374  0.7957
   64SAPC   H9Y 5236   5.047   3.549   7.224  0.0469 -0.7113  0.7651
   64SAPC  C310 5237   5.007   3.344   7.231  0.6170  0.4950 -0.0831
   64SAPC  H10X 5238   5.103   3.314   7.185  0.5709 -0.2565  0.2832
   64SAPC  H10Y 5239   4.936   3.265   7.197 -1.1383  2.2942 -0.8004
   64SAPC  C311 5240   5.024   3.321   7.392  0.7486 -0.6033 -0.4980
   64SAPC  H11X 5241   5.114   3.378   7.424  2.6413 -2.9733 -1.2224
   64SAPC  H11Y 5242   5.047   3.215   7.417 -0.6358 -0.1795  3.1629
   64SAPC  C312 5243   4.899   3.364   7.470  0.0498  0.4344 -0.2012
   64SAPC  H12X 5244   4.814   3.307   7.427 -0.6797  0.1489  1.5296
   64SAPC  H12Y 5245   4.884   3.474   7.461 -2.5414  0.1893  0.2765
   64SAPC  C313 5246   4.897   3.329   7.618  0.0487 -0.4307 -0.2593
   64SAPC  H13X 5247   4.926   3.225   7.641  1.1306 -0.0820  0.0005
   64SAPC  H13Y 5248   4.797   3.359   7.655  0.5655  0.7502  0.2462
   64SAPC  C314 5249   4.999   3.422   7.689  0.6314  0.0835  0.2322
   64SAPC  H14X 5250   4.975   3.530   7.677 -1.4724 -0.3725 -0.0922
   64SAPC  H14Y 5251   5.097   3.409   7.640  0.5485 -2.0990  0.5723
   64SAPC  C315 5252   5.011   3.389   7.840 -0.8946 -0.0097  0.1819
   64SAPC  H15X 5253   5.101   3.428   7.891  0.1092 -2.0368  0.0689
   64SAPC  H15Y 5254   5.028   3.279   7.850  0.0336  0.2861  2.4056
   64SAPC  C316 5255   4.901   3.443   7.928 -0.5512 -0.0713  0.7190
   64SAPC  H16X 5256   4.803   3.415   7.882 -1.1258 -1.1740  2.5215
   64SAPC  H16Y 5257   4.914   3.553   7.921  1.1441 -0.3215 -0.4311
   64SAPC  C317 5258   4.908   3.403   8.071  0.4034  0.2209  1.0471
   64SAPC  H17X 5259   5.014   3.413   8.104  1.0231 -2.8930  0.3032
   64SAPC  H17Y 5260   4.901   3.293   8.088  0.7418  0.1217  0.5664
   64SAPC  C318 5261   4.812   3.493   8.149 -0.4209 -0.2174  0.1132
   64SAPC  H18X 5262   4.709   3.468   8.115 -0.3823  0.5075 -0.5799
   64SAPC  H18Y 5263   4.833   3.601   8.134 -0.1955 -0.1991  0.5640
   64SAPC  H18Z 5264   4.822   3.480   8.258  0.7533  0.0744  0.0567
   65SAPC     N 5265   0.847   5.317   6.239  0.1412 -0.2322  0.7802
   65SAPC   C12 5266   0.789   5.212   6.333  0.4666  0.5106 -0.4073
   65SAPC  H12A 5267   0.833   5.219   6.431 -2.6966  0.3953  1.1308
   65SAPC  H12B 5268   0.801   5.110   6.301 -2.0679  0.3166 -0.9654
   65SAPC   C13 5269   0.995   5.329   6.234  0.2149  0.4422  0.1512
   65SAPC  H13A 5270   1.038   5.239   6.192 -2.2171  1.1709 -4.4806
   65SAPC  H13B 5271   1.033   5.407   6.171  2.0420 -0.5757 -0.0615
   65SAPC  H13C 5272   1.039   5.335   6.333 -0.1115  1.2207  0.2536
   65SAPC   C14 5273   0.795   5.281   6.104  0.1151 -0.2925 -0.0493
   65SAPC  H14A 5274   0.788   5.175   6.083 -1.5570 -0.7877  2.5385
   65SAPC  H14B 5275   0.689   5.304   6.108  0.1651 -0.1719  2.6196
   65SAPC  H14C 5276   0.844   5.327   6.019 -1.0546  1.4075  0.1328
   65SAPC   C15 5277   0.788   5.452   6.272  0.0710 -0.3156  0.0182
   65SAPC  H15A 5278   0.826   5.529   6.206 -1.4832 -1.5927 -2.5086
   65SAPC  H15B 5279   0.681   5.462   6.267  0.1270  0.9969  0.8492
   65SAPC  H15C 5280   0.805   5.479   6.375 -0.0662 -1.1369  0.2633
   65SAPC   C11 5281   0.631   5.233   6.372  0.2619 -0.5038 -0.2532
   65SAPC  H11A 5282   0.636   5.336   6.413  3.2684  0.0053 -1.6052
   65SAPC  H11B 5283   0.602   5.159   6.449  0.0595 -0.9742 -0.7686
   65SAPC     P 5284   0.396   5.256   6.252  0.3776 -0.2998 -0.1846
   65SAPC   O13 5285   0.381   5.402   6.225  0.2667  0.6460  0.7624
   65SAPC   O14 5286   0.337   5.164   6.154 -0.0726  0.3552 -0.4650
   65SAPC   O12 5287   0.546   5.214   6.259  0.8438 -0.4715 -0.2403
   65SAPC   O11 5288   0.329   5.219   6.394 -0.2785 -0.1596  0.6603
   65SAPC    C1 5289   0.231   5.324   6.436 -1.2316 -0.0116  0.8757
   65SAPC    HA 5290   0.294   5.414   6.452 -1.1066  0.1754 -0.5259
   65SAPC    HB 5291   0.156   5.344   6.356 -0.8000 -0.9439  0.2128
   65SAPC    C2 5292   0.163   5.287   6.564  0.1916  0.0815 -0.7201
   65SAPC    HS 5293   0.111   5.377   6.603  0.1783  0.5178 -1.7156
   65SAPC   O21 5294   0.258   5.257   6.668 -0.0698  0.1073 -0.8044
   65SAPC   C21 5295   0.334   5.361   6.707 -0.0511  0.8146  0.0397
   65SAPC   O22 5296   0.333   5.475   6.675  0.0633 -0.1959  0.0997
   65SAPC   C22 5297   0.430   5.307   6.816 -0.1019 -0.1189  0.0074
   65SAPC   H2R 5298   0.390   5.216   6.866  2.3197 -1.1269  0.2811
   65SAPC   H2S 5299   0.528   5.294   6.765 -0.9592 -0.6836 -1.5417
   65SAPC    C3 5300   0.060   5.176   6.554  0.5556 -0.1235  0.3371
   65SAPC    HX 5301   0.109   5.081   6.526  1.4577  0.2106  0.7471
   65SAPC    HY 5302  -0.016   5.194   6.475  1.1722 -2.5219 -0.9014
   65SAPC   O31 5303  -0.008   5.161   6.689  0.0429  0.3109 -0.3386
   65SAPC   C31 5304   0.058   5.072   6.775 -0.3701  0.2606  0.7084
   65SAPC   O32 5305   0.134   4.983   6.733  0.2596 -0.2995  0.0659
   65SAPC   C32 5306   0.030   5.103   6.921 -0.2534  0.1726  0.2309
   65SAPC   H2X 5307   0.121   5.063   6.970 -0.5726 -1.4386 -0.4184
   65SAPC   H2Y 5308  -0.066   5.053   6.946  0.4384 -1.7780 -0.8069
   65SAPC   C23 5309   0.463   5.411   6.932 -0.2594 -0.1891  0.2614
   65SAPC   H3R 5310   0.371   5.433   6.991 -0.7956 -0.2290 -0.5373
   65SAPC   H3S 5311   0.484   5.513   6.893  1.2942 -0.0934  1.2682
   65SAPC   C24 5312   0.574   5.372   7.028 -0.2003 -0.2394  0.1222
   65SAPC   H4R 5313   0.605   5.457   7.092  1.2455  1.9447 -3.2261
   65SAPC   H4S 5314   0.663   5.342   6.968 -1.1756 -1.0823 -0.9302
   65SAPC   C25 5315   0.530   5.251   7.109 -0.2313 -0.0948  0.2580
   65SAPC   H5R 5316   0.528   5.156   7.053 -1.2105  1.5884 -2.7762
   65SAPC   C26 5317   0.507   5.243   7.244  0.1963 -0.4210  0.6302
   65SAPC   H6R 5318   0.477   5.147   7.289 -2.2317  0.6198  1.4169
   65SAPC   C27 5319   0.509   5.352   7.344 -0.2956  0.8854  0.2120
   65SAPC   H7R 5320   0.415   5.352   7.403  0.0448  1.2632  0.7670
   65SAPC   H7S 5321   0.505   5.450   7.291 -1.2395 -0.7043 -2.9490
   65SAPC   C28 5322   0.643   5.361   7.416 -0.4240 -0.7947  0.2727
   65SAPC   H8R 5323   0.719   5.388   7.341 -0.5469  1.1046  0.7848
   65SAPC   C29 5324   0.668   5.355   7.550 -0.1209  0.7526 -0.6122
   65SAPC   H9R 5325   0.770   5.336   7.584 -1.2596 -3.4813  0.9576
   65SAPC  C210 5326   0.570   5.326   7.659  0.3387  0.1282 -0.2681
   65SAPC  H10R 5327   0.552   5.217   7.672  1.0043 -0.2611 -2.3120
   65SAPC  H10S 5328   0.472   5.356   7.617  0.2344  0.7574  0.3929
   65SAPC  C211 5329   0.585   5.399   7.784 -0.7576 -0.4814 -0.0981
   65SAPC  H11R 5330   0.563   5.507   7.789  0.3636 -0.2987  2.0101
   65SAPC  C212 5331   0.600   5.337   7.903  0.1171  0.0148 -0.0943
   65SAPC  H12R 5332   0.607   5.402   7.991 -0.4352  0.9596 -0.7240
   65SAPC  C213 5333   0.607   5.188   7.922 -0.0891 -0.1744 -0.5103
   65SAPC  H13R 5334   0.707   5.159   7.962 -0.6888  0.8759  1.9695
   65SAPC  H13S 5335   0.599   5.133   7.826 -0.4071  2.4487 -2.0981
   65SAPC  C214 5336   0.508   5.145   8.031  0.3980  0.1988 -0.5755
   65SAPC  H14R 5337   0.399   5.153   8.019 -0.0959 -2.0432  1.5864
   65SAPC  C215 5338   0.547   5.108   8.153  0.4726  0.2171 -0.9877
   65SAPC  H15R 5339   0.464   5.084   8.222 -1.4635  2.6400 -2.2768
   65SAPC  C216 5340   0.681   5.099   8.218 -0.3321  0.4822  0.9039
   65SAPC  H16R 5341   0.763   5.149   8.161  0.9098  1.7270  3.5891
   65SAPC  H16S 5342   0.708   4.995   8.244 -0.7570  0.1490  0.0408
   65SAPC  C217 5343   0.675   5.178   8.350 -0.4441 -0.4408 -0.5537
   65SAPC  H17R 5344   0.772   5.161   8.403 -0.4778  0.3948 -0.2127
   65SAPC  H17S 5345   0.593   5.141   8.415 -0.8553  2.5045  0.7611
   65SAPC  C218 5346   0.642   5.330   8.338 -0.3498  0.6861  0.0754
   65SAPC  H18R 5347   0.633   5.373   8.440 -2.4821  1.1579 -0.2652
   65SAPC  H18S 5348   0.544   5.345   8.288 -0.9953 -0.7414  0.8151
   65SAPC  C219 5349   0.755   5.404   8.271 -0.8146 -0.4657 -0.8466
   65SAPC  H19R 5350   0.730   5.511   8.254 -1.1855 -0.3838  0.1456
   65SAPC  H19S 5351   0.779   5.356   8.174  2.7638  1.2622 -0.9504
   65SAPC  C220 5352   0.899   5.407   8.333  0.5139 -0.0619  0.3960
   65SAPC  H20R 5353   0.933   5.302   8.341  0.4525 -0.1056  0.0841
   65SAPC  H20S 5354   0.891   5.455   8.433  2.0656 -0.6436  0.8391
   65SAPC  H20T 5355   0.960   5.475   8.270 -2.3859  0.6432 -1.8477
   65SAPC   C33 5356   0.027   5.254   6.954  0.3583 -0.6146 -0.0750
   65SAPC   H3X 5357  -0.047   5.300   6.884 -1.0031 -2.2307  0.2525
   65SAPC   H3Y 5358   0.126   5.301   6.934 -1.1447  2.7278 -0.5123
   65SAPC   C34 5359  -0.004   5.283   7.104 -0.9009 -0.3213  0.0683
   65SAPC   H4X 5360  -0.106   5.239   7.110 -1.9476  1.5000 -2.5432
   65SAPC   H4Y 5361  -0.010   5.390   7.135 -2.3790  0.1685 -1.7190
   65SAPC   C35 5362   0.077   5.211   7.203  0.3390  0.3191 -0.0511
   65SAPC   H5X 5363   0.182   5.220   7.168  0.2887  0.5069 -0.1543
   65SAPC   H5Y 5364   0.047   5.105   7.188  1.2603  0.4633 -4.0388
   65SAPC   C36 5365   0.075   5.248   7.344  0.5288 -0.4564  0.2408
   65SAPC   H6X 5366  -0.029   5.273   7.373  0.6039  1.0254 -0.6385
   65SAPC   H6Y 5367   0.144   5.335   7.350  0.2175 -0.2714  1.2933
   65SAPC   C37 5368   0.127   5.133   7.427 -0.3947 -0.3510  0.0362
   65SAPC   H7X 5369   0.223   5.105   7.378  0.2539  0.7108  0.6858
   65SAPC   H7Y 5370   0.062   5.046   7.401 -1.0677  0.7778 -2.3309
   65SAPC   C38 5371   0.136   5.174   7.573 -0.0416  0.5030 -0.3430
   65SAPC   H8X 5372   0.186   5.273   7.589 -2.0711  1.3619  1.0026
   65SAPC   H8Y 5373   0.205   5.098   7.616  0.0539  1.7142  1.7871
   65SAPC   C39 5374   0.000   5.179   7.654  0.0103 -0.1731  0.1509
   65SAPC   H9X 5375  -0.022   5.091   7.718  4.1408 -0.0588  2.0336
   65SAPC   H9Y 5376  -0.076   5.210   7.579 -0.2978  3.6193  1.8248
   65SAPC  C310 5377  -0.010   5.291   7.752 -0.9427  0.0733  0.5171
   65SAPC  H10X 5378  -0.111   5.280   7.798 -1.1401  0.6653  0.2444
   65SAPC  H10Y 5379   0.001   5.391   7.704  2.1090 -0.5297 -0.2480
   65SAPC  C311 5380   0.081   5.271   7.872 -0.8901  0.2209  0.0951
   65SAPC  H11X 5381   0.179   5.313   7.841 -1.2865  0.0551 -1.4821
   65SAPC  H11Y 5382   0.087   5.162   7.896 -3.1039  0.0009 -0.1072
   65SAPC  C312 5383   0.050   5.355   7.991 -0.1785  0.3313 -0.9015
   65SAPC  H12X 5384  -0.047   5.324   8.036 -0.0807  3.7654  2.1807
   65SAPC  H12Y 5385   0.044   5.464   7.970 -1.7382  0.2584 -0.9639
   65SAPC  C313 5386   0.155   5.337   8.103  0.1614  0.1581  0.3603
   65SAPC  H13X 5387   0.245   5.388   8.065 -0.7750  0.2242 -1.9677
   65SAPC  H13Y 5388   0.200   5.236   8.110  1.0610  0.3903 -1.5141
   65SAPC  C314 5389   0.122   5.413   8.239  0.0128  0.1891 -0.3594
   65SAPC  H14X 5390   0.022   5.381   8.275 -0.0455 -1.0233 -1.5445
   65SAPC  H14Y 5391   0.116   5.518   8.202  1.3620  0.5412  0.3598
   65SAPC  C315 5392   0.233   5.403   8.343 -0.6311  0.3285 -0.0350
   65SAPC  H15X 5393   0.322   5.462   8.315  0.9773  0.0657  3.8557
   65SAPC  H15Y 5394   0.256   5.294   8.349  1.1742  0.5451 -2.0238
   65SAPC  C316 5395   0.184   5.451   8.475 -0.4331 -0.3858 -0.3232
   65SAPC  H16X 5396   0.099   5.386   8.506  0.3047 -0.5947  1.4005
   65SAPC  H16Y 5397   0.151   5.557   8.464  1.7529  0.4528  0.5371
   65SAPC  C317 5398   0.298   5.446   8.585 -0.1931 -0.2674  0.9914
   65SAPC  H17X 5399   0.334   5.342   8.599  0.5358  0.0656  1.6418
   65SAPC  H17Y 5400   0.260   5.492   8.679 -2.3485  1.2671 -0.5299
   65SAPC  C318 5401   0.409   5.550   8.558 -0.5751 -0.8068  0.1173
   65SAPC  H18X 5402   0.367   5.653   8.551  1.3451  0.0932  1.0080
   65SAPC  H18Y 5403   0.474   5.534   8.470 -0.9731 -1.1898 -0.1114
   65SAPC  H18Z 5404   0.474   5.562   8.648 -0.6089  0.8479 -0.0556
   66SAPC     N 5405   5.008   0.750   6.245  0.2700 -0.0708 -0.7148
   66SAPC   C12 5406   4.916   0.870   6.277 -0.0201 -0.2362  0.3225
   66SAPC  H12A 5407   4.847   0.893   6.198 -0.2531  0.9720  0.8475
   66SAPC  H12B 5408   4.981   0.956   6.270  3.2233 -2.5482 -0.0651
   66SAPC   C13 5409   5.100   0.726   6.360  0.1293  0.0072  0.9623
   66SAPC  H13A 5410   5.039   0.685   6.439 -2.4958 -2.0630 -1.9317
   66SAPC  H13B 5411   5.165   0.641   6.344  0.7050  0.6149 -0.0109
   66SAPC  H13C 5412   5.156   0.812   6.396  0.1180  0.7404 -0.6788
   66SAPC   C14 5413   4.925   0.626   6.232 -0.2603  0.1235 -0.0367
   66SAPC  H14A 5414   4.867   0.618   6.141  2.3299 -1.8109 -1.6422
   66SAPC  H14B 5415   4.983   0.535   6.238  1.2756  1.1749  1.6349
   66SAPC  H14C 5416   4.857   0.618   6.316  0.3011  0.8904  0.5037
   66SAPC   C15 5417   5.085   0.784   6.126 -0.2402 -0.1187  0.3394
   66SAPC  H15A 5418   5.149   0.697   6.112 -2.3510 -1.3600 -2.8084
   66SAPC  H15B 5419   5.019   0.786   6.040 -2.0149 -1.3060  1.5960
   66SAPC  H15C 5420   5.153   0.867   6.132 -0.8352  0.3317  0.9626
   66SAPC   C11 5421   4.836   0.865   6.407 -0.5475 -0.2391  0.1870
   66SAPC  H11A 5422   4.791   0.965   6.420 -0.7678 -0.1770 -0.9031
   66SAPC  H11B 5423   4.904   0.850   6.493 -0.1682 -0.2331 -0.1121
   66SAPC     P 5424   4.584   0.799   6.391 -0.1299 -0.4850  0.5011
   66SAPC   O13 5425   4.574   0.899   6.277 -0.6641  0.6410  0.4441
   66SAPC   O14 5426   4.502   0.678   6.380 -0.2667 -0.0909 -0.0791
   66SAPC   O12 5427   4.738   0.763   6.401 -0.1110 -0.5398 -0.2110
   66SAPC   O11 5428   4.552   0.878   6.521  0.2907  0.7446 -0.3139
   66SAPC    C1 5429   4.506   0.807   6.637 -0.2103  0.3276 -0.0550
   66SAPC    HA 5430   4.403   0.772   6.616  0.1300 -0.3352 -0.6542
   66SAPC    HB 5431   4.561   0.712   6.653 -0.6069  0.3203  1.4850
   66SAPC    C2 5432   4.514   0.891   6.762 -0.5724 -0.1085 -0.8387
   66SAPC    HS 5433   4.475   0.839   6.853  1.9990  1.1918  1.1241
   66SAPC   O21 5434   4.444   1.017   6.749  0.1415  0.1673  0.8104
   66SAPC   C21 5435   4.313   1.010   6.746 -1.4763 -0.5023  0.1116
   66SAPC   O22 5436   4.247   0.913   6.773 -0.1487 -0.0744  0.0085
   66SAPC   C22 5437   4.267   1.145   6.718 -0.2298 -0.0450 -0.2965
   66SAPC   H2R 5438   4.343   1.219   6.687 -2.5117  1.8956 -1.5895
   66SAPC   H2S 5439   4.190   1.142   6.639  0.2653 -0.9966 -0.7622
   66SAPC    C3 5440   4.662   0.905   6.796 -0.3091 -1.0854  0.5144
   66SAPC    HX 5441   4.709   0.953   6.708  0.3997  1.1561  2.0364
   66SAPC    HY 5442   4.711   0.807   6.815 -0.1000 -1.0263  0.2700
   66SAPC   O31 5443   4.677   0.975   6.922 -0.0523 -0.1363 -0.5641
   66SAPC   C31 5444   4.713   1.105   6.912 -0.1166 -0.4146 -0.5182
   66SAPC   O32 5445   4.738   1.161   6.811 -0.5697 -0.4330 -0.2155
   66SAPC   C32 5446   4.723   1.166   7.053  0.2553  0.8154 -0.5992
   66SAPC   H2X 5447   4.826   1.147   7.089  0.0554  1.4205  0.3100
   66SAPC   H2Y 5448   4.649   1.109   7.112  0.5961  1.0743  0.0829
   66SAPC   C23 5449   4.200   1.209   6.846  0.5488  0.1876  0.1842
   66SAPC   H3R 5450   4.136   1.126   6.884  0.8873 -0.8639 -1.4594
   66SAPC   H3S 5451   4.133   1.295   6.825  0.1740  0.3577  1.9365
   66SAPC   C24 5452   4.303   1.243   6.957 -0.4792  0.1780 -0.3162
   66SAPC   H4R 5453   4.272   1.332   7.017 -0.3297 -0.4297  0.6899
   66SAPC   H4S 5454   4.392   1.280   6.902 -1.0151  3.1146  0.5646
   66SAPC   C25 5455   4.328   1.135   7.062  0.0753 -0.0233 -0.0618
   66SAPC   H5R 5456   4.335   1.035   7.018 -0.2360  1.0845 -2.8789
   66SAPC   C26 5457   4.341   1.148   7.195 -0.5604 -0.2272  0.0130
   66SAPC   H6R 5458   4.372   1.062   7.256  4.6296  1.2316 -0.0447
   66SAPC   C27 5459   4.335   1.270   7.276  0.2496  0.3687 -0.4632
   66SAPC   H7R 5460   4.355   1.362   7.217 -1.0368  1.0349  0.0826
   66SAPC   H7S 5461   4.415   1.272   7.353 -0.7700  0.5845  0.6340
   66SAPC   C28 5462   4.196   1.288   7.337  0.2585  0.2672 -0.1021
   66SAPC   H8R 5463   4.113   1.301   7.266  0.7776  0.6183 -0.6472
   66SAPC   C29 5464   4.153   1.289   7.461  0.2227 -0.0722 -0.1521
   66SAPC   H9R 5465   4.046   1.313   7.471  0.5546  1.4119  0.0868
   66SAPC  C210 5466   4.246   1.279   7.576 -0.9654 -0.2788 -0.3186
   66SAPC  H10R 5467   4.258   1.379   7.624  1.4205 -0.9779  0.7112
   66SAPC  H10S 5468   4.352   1.270   7.543 -0.9204 -0.3381 -0.1622
   66SAPC  C211 5469   4.221   1.188   7.692 -0.0882  0.0378 -0.1138
   66SAPC  H11R 5470   4.124   1.136   7.686 -0.4262  0.7532 -0.9800
   66SAPC  C212 5471   4.300   1.163   7.802 -0.1166  0.1216 -0.0347
   66SAPC  H12R 5472   4.258   1.096   7.878 -0.5572 -2.0820 -2.0793
   66SAPC  C213 5473   4.434   1.212   7.850 -0.8702  0.2593  0.7783
   66SAPC  H13R 5474   4.425   1.241   7.957  1.0718 -1.4444  1.4737
   66SAPC  H13S 5475   4.463   1.304   7.795  0.7643  1.1478  2.9603
   66SAPC  C214 5476   4.552   1.125   7.836 -0.2115  0.3236 -0.5332
   66SAPC  H14R 5477   4.626   1.152   7.759  0.6033 -0.5542 -0.0860
   66SAPC  C215 5478   4.572   1.011   7.904 -0.2916  0.4505 -0.2499
   66SAPC  H15R 5479   4.661   0.947   7.891 -0.4361 -0.0226  0.9398
   66SAPC  C216 5480   4.485   0.963   8.016  0.3801 -0.6404  0.1936
   66SAPC  H16R 5481   4.453   0.859   7.994 -1.7750  0.6153 -3.3661
   66SAPC  H16S 5482   4.390   1.020   8.019  0.5949 -0.2487 -0.2536
   66SAPC  C217 5483   4.550   0.980   8.152 -1.0920 -0.6394 -0.6140
   66SAPC  H17R 5484   4.655   0.944   8.138 -0.8457  0.5457 -2.0717
   66SAPC  H17S 5485   4.504   0.908   8.222 -1.3453 -1.2077 -1.3487
   66SAPC  C218 5486   4.539   1.123   8.212  0.5243  0.1371 -0.6275
   66SAPC  H18R 5487   4.433   1.144   8.237  0.6096 -0.8123  0.6355
   66SAPC  H18S 5488   4.556   1.206   8.140 -0.0845  0.0706 -0.8481
   66SAPC  C219 5489   4.635   1.154   8.333  0.5887  0.1360  0.4262
   66SAPC  H19R 5490   4.737   1.125   8.300  0.3949 -0.2592  0.1700
   66SAPC  H19S 5491   4.596   1.088   8.414 -1.1927  1.8014  1.0238
   66SAPC  C220 5492   4.621   1.297   8.386 -0.3850  0.4672  0.2553
   66SAPC  H20R 5493   4.676   1.307   8.481 -0.0349 -1.9042  0.3609
   66SAPC  H20S 5494   4.515   1.320   8.411 -0.2997  1.6604 -0.3933
   66SAPC  H20T 5495   4.664   1.375   8.319 -0.4004  0.9141  0.7538
   66SAPC   C33 5496   4.701   1.319   7.049  0.2000  0.6619 -0.1992
   66SAPC   H3X 5497   4.594   1.336   7.028  0.2232  1.3670  0.2231
   66SAPC   H3Y 5498   4.764   1.377   6.978  1.2625  0.4874  0.5662
   66SAPC   C34 5499   4.725   1.358   7.196  0.4064 -0.5798  0.5585
   66SAPC   H4X 5500   4.824   1.328   7.236  0.9134 -1.5658 -1.3380
   66SAPC   H4Y 5501   4.649   1.312   7.263  0.1261 -1.9021 -0.6113
   66SAPC   C35 5502   4.715   1.511   7.210 -0.3245 -0.0477  0.5139
   66SAPC   H5X 5503   4.612   1.542   7.180 -0.0281  2.7828  2.0109
   66SAPC   H5Y 5504   4.771   1.566   7.131 -0.1100 -1.0027 -0.0096
   66SAPC   C36 5505   4.751   1.558   7.351 -0.6420  0.0889 -1.4457
   66SAPC   H6X 5506   4.724   1.665   7.366  2.9017  0.7560  2.0304
   66SAPC   H6Y 5507   4.860   1.553   7.376 -0.8523 -0.0439 -0.5064
   66SAPC   C37 5508   4.667   1.494   7.466 -0.6822 -0.5217  0.1657
   66SAPC   H7X 5509   4.686   1.385   7.482 -1.5825 -0.4770  1.7101
   66SAPC   H7Y 5510   4.560   1.494   7.436 -0.9752  1.1439  1.0975
   66SAPC   C38 5511   4.700   1.566   7.596  0.2576  0.2139 -0.5719
   66SAPC   H8X 5512   4.690   1.675   7.576  0.2894  0.1335 -1.0368
   66SAPC   H8Y 5513   4.808   1.544   7.609  0.0178 -0.1782  0.8892
   66SAPC   C39 5514   4.613   1.540   7.722 -0.2093  0.5035  0.3108
   66SAPC   H9X 5515   4.597   1.430   7.735  1.1203  0.3528  0.8607
   66SAPC   H9Y 5516   4.514   1.582   7.693  0.0099  0.7907 -0.0166
   66SAPC  C310 5517   4.664   1.589   7.861 -0.3755 -0.0201  0.0977
   66SAPC  H10X 5518   4.734   1.514   7.903  2.4096  1.9105 -0.8380
   66SAPC  H10Y 5519   4.578   1.608   7.929 -1.1784  1.0419 -1.1516
   66SAPC  C311 5520   4.732   1.731   7.862 -0.1521  0.1367  0.3521
   66SAPC  H11X 5521   4.668   1.812   7.821  0.2074  0.2617  0.0367
   66SAPC  H11Y 5522   4.816   1.725   7.790 -0.7171 -0.8749 -0.2511
   66SAPC  C312 5523   4.757   1.766   8.010  0.0157  0.4352  0.6017
   66SAPC  H12X 5524   4.654   1.772   8.052 -0.2756 -0.8868  0.1307
   66SAPC  H12Y 5525   4.787   1.873   8.013  0.4830  0.2861  1.9044
   66SAPC  C313 5526   4.848   1.672   8.093  0.6457  0.2177  0.0286
   66SAPC  H13X 5527   4.945   1.671   8.037  0.4228 -1.9175 -0.3711
   66SAPC  H13Y 5528   4.811   1.569   8.081 -0.0083  0.7678 -4.3836
   66SAPC  C314 5529   4.852   1.705   8.244 -0.4194 -0.2752 -0.2459
   66SAPC  H14X 5530   4.746   1.704   8.278 -0.6497 -0.8098 -0.9533
   66SAPC  H14Y 5531   4.894   1.807   8.258 -1.5900  0.0763  0.9052
   66SAPC  C315 5532   4.934   1.601   8.325  0.3256 -0.0542  0.8354
   66SAPC  H15X 5533   5.030   1.576   8.275  0.6084 -0.7196  1.6774
   66SAPC  H15Y 5534   4.875   1.507   8.326  0.6748 -0.2884  2.2406
   66SAPC  C316 5535   4.964   1.639   8.469  0.3750 -1.1235 -0.0342
   66SAPC  H16X 5536   4.865   1.639   8.519 -0.7460 -0.9220 -2.1190
   66SAPC  H16Y 5537   4.994   1.746   8.466  0.1200 -1.0678 -1.5010
   66SAPC  C317 5538   5.079   1.567   8.548 -0.4372  0.5980 -0.3160
   66SAPC  H17X 5539   5.164   1.545   8.480 -2.1512 -0.6411 -2.1786
   66SAPC  H17Y 5540   5.039   1.467   8.573 -0.1498  0.5815  0.0805
   66SAPC  C318 5541   5.119   1.635   8.678 -0.5543 -0.6593  0.8253
   66SAPC  H18X 5542   5.054   1.604   8.763  0.2142 -0.2995  1.5510
   66SAPC  H18Y 5543   5.144   1.741   8.658 -0.8230 -0.8224 -0.4586
   66SAPC  H18Z 5544   5.220   1.594   8.697 -0.1792 -0.8521 -1.3561
   67SAPC     N 5545   1.312   6.583   6.142  0.1311  0.6771  0.3256
   67SAPC   C12 5546   1.258   6.612   6.279  0.4284  0.7352 -0.1050
   67SAPC  H12A 5547   1.189   6.695   6.274 -1.4117 -0.6833  0.4111
   67SAPC  H12B 5548   1.337   6.651   6.341  0.0921 -1.2533  1.6962
   67SAPC   C13 5549   1.200   6.591   6.043  1.0020 -0.0580  0.3267
   67SAPC  H13A 5550   1.232   6.561   5.944  0.9078 -0.3283  0.3778
   67SAPC  H13B 5551   1.129   6.513   6.068  0.1245  1.2614  2.0809
   67SAPC  H13C 5552   1.156   6.689   6.038  1.2907  0.0475 -0.2762
   67SAPC   C14 5553   1.406   6.693   6.115 -0.1923  0.1109  0.7242
   67SAPC  H14A 5554   1.491   6.692   6.182  0.0199 -1.2467  0.4501
   67SAPC  H14B 5555   1.437   6.698   6.011  0.8133  2.6030  1.0663
   67SAPC  H14C 5556   1.363   6.792   6.122  2.5566  1.2645  4.0385
   67SAPC   C15 5557   1.381   6.451   6.141  0.0788  0.6228  0.3698
   67SAPC  H15A 5558   1.448   6.448   6.225  2.2362 -0.9300 -1.2716
   67SAPC  H15B 5559   1.306   6.373   6.140  0.5417  0.1701  1.0568
   67SAPC  H15C 5560   1.437   6.437   6.050  1.4616  0.4281  1.2380
   67SAPC   C11 5561   1.178   6.500   6.349 -0.0816 -0.1270 -0.5145
   67SAPC  H11A 5562   1.181   6.520   6.458 -3.0738  0.7752 -0.5218
   67SAPC  H11B 5563   1.234   6.404   6.334 -2.9803 -1.9102 -0.7170
   67SAPC     P 5564   0.994   6.351   6.235 -0.1992 -0.0426 -0.3614
   67SAPC   O13 5565   0.848   6.364   6.234  0.4698 -0.3845 -0.0609
   67SAPC   O14 5566   1.056   6.323   6.101 -0.1356 -0.1384 -0.0445
   67SAPC   O12 5567   1.047   6.484   6.301 -0.1329 -0.1362  0.4561
   67SAPC   O11 5568   1.046   6.238   6.332  0.4345 -0.1864  0.6203
   67SAPC    C1 5569   0.948   6.139   6.378 -0.6225 -0.4686 -0.1071
   67SAPC    HA 5570   0.853   6.145   6.319  0.9611 -0.4433 -2.8436
   67SAPC    HB 5571   0.990   6.040   6.347  1.9134  0.8573 -1.1984
   67SAPC    C2 5572   0.898   6.138   6.523  0.2374 -0.0794 -0.2550
   67SAPC    HS 5573   0.853   6.037   6.540 -4.0881  1.5735 -0.5557
   67SAPC   O21 5574   0.810   6.246   6.537 -0.0712  0.0627  0.5796
   67SAPC   C21 5575   0.680   6.219   6.552  0.0165 -0.4232  0.7018
   67SAPC   O22 5576   0.633   6.105   6.549 -0.1687 -0.2480 -0.2102
   67SAPC   C22 5577   0.590   6.341   6.563 -0.6548  0.0873 -0.9093
   67SAPC   H2R 5578   0.619   6.402   6.650  2.5042  0.2657 -1.9877
   67SAPC   H2S 5579   0.603   6.403   6.472  0.2118  0.6518 -0.4119
   67SAPC    C3 5580   1.009   6.157   6.629 -0.0574 -0.3528  1.1125
   67SAPC    HX 5581   1.038   6.264   6.622  1.6589 -0.8730 -3.1621
   67SAPC    HY 5582   1.099   6.102   6.594 -0.0343  1.2526 -1.6707
   67SAPC   O31 5583   0.978   6.109   6.761  0.2048 -0.4216 -0.4120
   67SAPC   C31 5584   1.066   6.150   6.850 -0.5467 -0.1024 -0.0868
   67SAPC   O32 5585   1.160   6.224   6.831 -0.0412  0.1920  0.5466
   67SAPC   C32 5586   1.034   6.096   6.986  0.3407 -0.0692 -0.0095
   67SAPC   H2X 5587   1.036   5.985   6.979  0.5205 -0.0843  0.2556
   67SAPC   H2Y 5588   0.934   6.135   7.016  0.6028 -0.6748  1.8053
   67SAPC   C23 5589   0.446   6.311   6.560 -0.4640 -0.7614  0.2234
   67SAPC   H3R 5590   0.423   6.252   6.469 -2.5021  0.3882 -0.0849
   67SAPC   H3S 5591   0.381   6.399   6.543  0.4359  0.0058  0.6753
   67SAPC   C24 5592   0.384   6.236   6.681  0.0066  0.2927  0.3133
   67SAPC   H4R 5593   0.429   6.135   6.677  0.4133  0.4865 -0.3637
   67SAPC   H4S 5594   0.275   6.241   6.664  0.4347  1.7550 -2.9074
   67SAPC   C25 5595   0.417   6.306   6.810 -0.7317 -0.0968 -0.1012
   67SAPC   H5R 5596   0.407   6.416   6.809 -0.1238 -0.0292  0.6833
   67SAPC   C26 5597   0.470   6.252   6.918  0.6373 -0.1870  0.1814
   67SAPC   H6R 5598   0.501   6.329   6.990 -3.6946  0.5112  1.5669
   67SAPC   C27 5599   0.504   6.103   6.943  0.3464 -0.2165  0.0194
   67SAPC   H7R 5600   0.608   6.086   6.910  0.8366  1.5398  0.5166
   67SAPC   H7S 5601   0.447   6.032   6.880  0.5730 -0.3254 -0.0629
   67SAPC   C28 5602   0.475   6.052   7.081  0.3419  0.2278 -0.6745
   67SAPC   H8R 5603   0.387   6.094   7.130 -0.0005  1.3664 -2.1654
   67SAPC   C29 5604   0.562   5.970   7.150  0.5278 -0.3510  0.0195
   67SAPC   H9R 5605   0.537   5.951   7.256  0.9781 -1.6707 -0.1033
   67SAPC  C210 5606   0.699   5.919   7.109  0.7360  1.1621  0.3509
   67SAPC  H10R 5607   0.787   5.966   7.158 -0.9999  2.8505  2.0169
   67SAPC  H10S 5608   0.713   5.948   7.002  0.3759  0.4963  0.1192
   67SAPC  C211 5609   0.726   5.768   7.106  0.2606 -0.2182  0.5384
   67SAPC  H11R 5610   0.736   5.727   7.004 -1.3105  0.8851 -0.0925
   67SAPC  C212 5611   0.739   5.693   7.222  0.0866  0.3335 -0.0401
   67SAPC  H12R 5612   0.762   5.586   7.225 -0.5304  0.1879  2.8403
   67SAPC  C213 5613   0.726   5.746   7.359 -0.8779 -0.0318 -0.4923
   67SAPC  H13R 5614   0.681   5.674   7.430 -0.3291  1.6706  1.7218
   67SAPC  H13S 5615   0.683   5.848   7.368 -2.9644 -0.9035 -0.1125
   67SAPC  C214 5616   0.869   5.764   7.417  0.6679 -0.0259  0.3898
   67SAPC  H14R 5617   0.955   5.742   7.353  2.0794  0.4652  2.0584
   67SAPC  C215 5618   0.886   5.793   7.547  0.6355 -0.6709 -0.3147
   67SAPC  H15R 5619   0.991   5.821   7.569  0.7865  0.8330 -2.5699
   67SAPC  C216 5620   0.786   5.825   7.658 -0.4134 -0.0500 -0.0020
   67SAPC  H16R 5621   0.681   5.832   7.624 -0.2379 -0.1249 -0.5730
   67SAPC  H16S 5622   0.806   5.929   7.692  0.7727 -0.5070  0.7582
   67SAPC  C217 5623   0.784   5.744   7.791 -0.0993 -0.6819 -0.3348
   67SAPC  H17R 5624   0.746   5.641   7.770  0.4939 -1.2386  1.1766
   67SAPC  H17S 5625   0.710   5.777   7.866 -1.8363 -1.0859 -1.8123
   67SAPC  C218 5626   0.921   5.717   7.848 -0.4342 -0.6257  0.8120
   67SAPC  H18R 5627   0.957   5.807   7.902  0.3676 -1.0173  0.9521
   67SAPC  H18S 5628   0.990   5.682   7.768 -0.7426 -0.2882  0.3910
   67SAPC  C219 5629   0.904   5.598   7.944 -0.0822 -0.2732  0.0632
   67SAPC  H19R 5630   0.860   5.516   7.884 -1.2119  0.8363 -0.6842
   67SAPC  H19S 5631   0.844   5.633   8.031 -1.7131  0.2035 -1.1988
   67SAPC  C220 5632   1.041   5.561   7.996 -0.9767 -0.0615  0.1032
   67SAPC  H20R 5633   1.109   5.556   7.909 -3.1958 -2.8619 -1.6884
   67SAPC  H20S 5634   1.037   5.465   8.052  2.4534 -0.6140 -0.3791
   67SAPC  H20T 5635   1.070   5.646   8.061  0.9632 -0.3461 -0.3314
   67SAPC   C33 5636   1.147   6.121   7.094  0.6001  0.1904  0.3766
   67SAPC   H3X 5637   1.156   6.231   7.111 -2.4023  0.4994  0.5429
   67SAPC   H3Y 5638   1.243   6.074   7.064  0.5762  0.8827 -0.8755
   67SAPC   C34 5639   1.097   6.056   7.233 -0.3300 -0.7863  0.3660
   67SAPC   H4X 5640   1.098   5.947   7.212 -1.1679 -0.5919 -0.7707
   67SAPC   H4Y 5641   0.996   6.088   7.266  0.7602  0.7734  2.5058
   67SAPC   C35 5642   1.195   6.085   7.349 -0.5348 -0.1836 -0.1805
   67SAPC   H5X 5643   1.192   6.191   7.382 -0.1208  0.5139 -2.2006
   67SAPC   H5Y 5644   1.301   6.058   7.329 -0.7268  0.1132 -1.6954
   67SAPC   C36 5645   1.167   5.992   7.465 -0.0820  0.0525  0.0972
   67SAPC   H6X 5646   1.156   5.890   7.422  1.6323  0.3157 -1.0490
   67SAPC   H6Y 5647   1.062   6.015   7.496 -0.5762 -1.0595 -0.6847
   67SAPC   C37 5648   1.264   6.009   7.578  0.4603 -0.4015  0.1010
   67SAPC   H7X 5649   1.252   6.113   7.613  2.4264 -0.9564  2.8110
   67SAPC   H7Y 5650   1.369   5.990   7.548 -0.3080 -2.4657 -1.5222
   67SAPC   C38 5651   1.226   5.931   7.704 -0.2098  0.7649 -0.4066
   67SAPC   H8X 5652   1.242   5.823   7.683 -1.8271  0.1604  1.1536
   67SAPC   H8Y 5653   1.117   5.949   7.721 -0.4821 -0.5798 -0.5644
   67SAPC   C39 5654   1.314   5.963   7.823  0.0052 -0.4071 -0.1234
   67SAPC   H9X 5655   1.306   6.066   7.862 -1.5818 -0.8877  0.9340
   67SAPC   H9Y 5656   1.419   5.948   7.791 -0.0385  0.8508 -0.9055
   67SAPC  C310 5657   1.281   5.887   7.955 -0.5621 -0.3967 -0.0994
   67SAPC  H10X 5658   1.269   5.781   7.925 -2.3756  0.2211 -1.7569
   67SAPC  H10Y 5659   1.187   5.924   8.002  0.9234  1.3395  1.6934
   67SAPC  C311 5660   1.401   5.914   8.055  0.4735 -0.0674  0.7471
   67SAPC  H11X 5661   1.393   6.022   8.082  2.3700  0.2627  0.0923
   67SAPC  H11Y 5662   1.493   5.894   7.996  1.6612 -0.0438  2.5326
   67SAPC  C312 5663   1.406   5.820   8.177 -0.1691  0.4209 -0.3379
   67SAPC  H12X 5664   1.510   5.832   8.214 -0.3459  0.6693  0.0872
   67SAPC  H12Y 5665   1.389   5.715   8.144  1.2253 -0.7040  2.2811
   67SAPC  C313 5666   1.297   5.852   8.288  0.5100  0.0159 -0.4616
   67SAPC  H13X 5667   1.197   5.821   8.254  0.2205 -0.4793  0.8056
   67SAPC  H13Y 5668   1.294   5.959   8.318  0.1403 -0.0605 -0.2240
   67SAPC  C314 5669   1.325   5.763   8.415  0.4333  0.0682  0.6249
   67SAPC  H14X 5670   1.267   5.808   8.498  1.7032  0.0466  1.5597
   67SAPC  H14Y 5671   1.433   5.759   8.443 -0.1908 -0.2764  3.2714
   67SAPC  C315 5672   1.292   5.613   8.417  0.4178 -0.0897  1.1545
   67SAPC  H15X 5673   1.361   5.562   8.346 -0.2420  0.6886 -0.0657
   67SAPC  H15Y 5674   1.186   5.596   8.387  0.2015 -1.9795  2.7304
   67SAPC  C316 5675   1.300   5.544   8.547  0.1073  0.0038  0.2041
   67SAPC  H16X 5676   1.244   5.448   8.551  0.6958 -0.4839 -1.8876
   67SAPC  H16Y 5677   1.252   5.601   8.629  0.8348 -0.0939  0.7151
   67SAPC  C317 5678   1.449   5.518   8.578 -0.3328 -0.5318  0.2984
   67SAPC  H17X 5679   1.497   5.618   8.583 -2.7980  0.6482  2.5860
   67SAPC  H17Y 5680   1.497   5.458   8.497 -0.0992 -0.3322  0.2882
   67SAPC  C318 5681   1.461   5.435   8.709  0.0463  0.3729  0.8255
   67SAPC  H18X 5682   1.438   5.498   8.797 -1.5572 -0.2683  0.8961
   67SAPC  H18Y 5683   1.569   5.410   8.719 -0.3030 -1.7123  0.0548
   67SAPC  H18Z 5684   1.400   5.342   8.707  1.4544 -0.6056  1.5609
   68SAPC     N 5685   5.102   2.212   5.935  0.0284 -0.2884 -0.0754
   68SAPC   C12 5686   5.192   2.230   6.056 -0.5015  0.2955  0.0630
   68SAPC  H12A 5687   5.163   2.159   6.132 -0.7957  0.5088  0.1508
   68SAPC  H12B 5688   5.173   2.328   6.097  0.0780 -0.5954  2.6350
   68SAPC   C13 5689   5.102   2.336   5.853 -0.1088 -0.2599  0.0491
   68SAPC  H13A 5690   5.044   2.414   5.900 -1.0274 -1.0535  0.2702
   68SAPC  H13B 5691   5.204   2.369   5.842 -0.7247  0.9375 -3.2766
   68SAPC  H13C 5692   5.068   2.311   5.754  0.6528 -0.0677 -0.2653
   68SAPC   C14 5693   5.140   2.093   5.857 -0.3281  0.2822  0.0343
   68SAPC  H14A 5694   5.082   2.082   5.767 -0.0975 -2.3038  0.1240
   68SAPC  H14B 5695   5.241   2.102   5.821  0.2205  0.4907  1.5255
   68SAPC  H14C 5696   5.123   1.998   5.906  1.2142  0.7400  1.5737
   68SAPC   C15 5697   4.958   2.200   5.982  0.1103 -0.6421 -0.5400
   68SAPC  H15A 5698   4.939   2.112   6.042  0.0601  0.1680  0.6601
   68SAPC  H15B 5699   4.930   2.286   6.041  1.1460  0.6274 -1.8411
   68SAPC  H15C 5700   4.884   2.191   5.904 -0.3954 -0.8637 -0.0469
   68SAPC   C11 5701   5.349   2.212   6.037  0.5138  0.1196  0.4989
   68SAPC  H11A 5702   5.376   2.114   5.992 -0.8523  0.1837 -0.5207
   68SAPC  H11B 5703   5.404   2.208   6.134  3.7885  0.4064 -1.2181
   68SAPC     P 5704   5.531   2.400   5.978 -0.0758  0.0599  0.3421
   68SAPC   O13 5705   5.640   2.321   5.910 -0.0156 -0.6641 -0.2481
   68SAPC   O14 5706   5.508   2.539   5.936 -0.4302  0.4950 -0.0153
   68SAPC   O12 5707   5.403   2.315   5.952 -0.2066  0.7070 -0.0275
   68SAPC   O11 5708   5.558   2.396   6.135  0.6573 -0.0882 -0.8003
   68SAPC    C1 5709   5.602   2.507   6.209  0.3206  0.0064 -0.4987
   68SAPC    HA 5710   5.708   2.488   6.237  0.4158  1.4640  0.2000
   68SAPC    HB 5711   5.593   2.610   6.168 -1.8459  0.8952  1.8866
   68SAPC    C2 5712   5.519   2.519   6.340  1.0564  0.5399 -0.5292
   68SAPC    HS 5713   5.541   2.615   6.391  1.9298  0.1888 -0.2174
   68SAPC   O21 5714   5.553   2.403   6.430 -0.5003 -0.7182 -0.0333
   68SAPC   C21 5715   5.548   2.423   6.562 -0.1039  0.0093  0.7607
   68SAPC   O22 5716   5.518   2.526   6.613  0.0595 -0.2706  0.3401
   68SAPC   C22 5717   5.591   2.302   6.645  0.2620  0.3360  0.6682
   68SAPC   H2R 5718   5.533   2.213   6.610  1.0836  0.5246 -1.3097
   68SAPC   H2S 5719   5.700   2.290   6.625  0.1074  1.8637 -1.4171
   68SAPC    C3 5720   5.367   2.517   6.311 -0.2280 -0.3669  1.1141
   68SAPC    HX 5721   5.343   2.413   6.282 -0.4887 -0.6938  2.4266
   68SAPC    HY 5722   5.354   2.586   6.225  1.9160 -0.6984  0.4613
   68SAPC   O31 5723   5.295   2.569   6.425 -0.0149  0.0527  0.0783
   68SAPC   C31 5724   5.169   2.529   6.439  0.1870 -0.0045  0.3449
   68SAPC   O32 5725   5.121   2.434   6.382  0.2324  0.2593 -0.0965
   68SAPC   C32 5726   5.107   2.612   6.544  0.6364  0.6382  0.2424
   68SAPC   H2X 5727   5.000   2.586   6.557  0.6264  0.3112 -0.4508
   68SAPC   H2Y 5728   5.116   2.721   6.527  0.7997  0.8720  1.6825
   68SAPC   C23 5729   5.561   2.322   6.801  0.0274  0.7485 -0.0071
   68SAPC   H3R 5730   5.452   2.344   6.800 -0.1426  0.0788  1.3500
   68SAPC   H3S 5731   5.611   2.408   6.850 -1.1830 -0.2587  3.3563
   68SAPC   C24 5732   5.580   2.193   6.887 -0.0263 -0.1354 -0.7994
   68SAPC   H4R 5733   5.532   2.108   6.833 -1.6644  0.2445  0.0036
   68SAPC   H4S 5734   5.521   2.199   6.981 -1.0987  3.1652 -1.5656
   68SAPC   C25 5735   5.728   2.165   6.904  0.2689  0.0162 -0.0964
   68SAPC   H5R 5736   5.781   2.114   6.822  1.1979 -1.4598  1.3592
   68SAPC   C26 5737   5.789   2.149   7.024  0.0735  0.3917 -0.1983
   68SAPC   H6R 5738   5.894   2.121   7.009  0.3354  0.6387  1.1216
   68SAPC   C27 5739   5.733   2.176   7.160 -0.4840  0.9207  0.3731
   68SAPC   H7R 5740   5.736   2.092   7.232 -1.4067  0.2039 -0.3992
   68SAPC   H7S 5741   5.624   2.195   7.157 -0.4680  0.8620 -1.0123
   68SAPC   C28 5742   5.812   2.290   7.224 -0.2303  0.3568 -0.2872
   68SAPC   H8R 5743   5.909   2.318   7.179  0.7539 -0.7232  1.0685
   68SAPC   C29 5744   5.773   2.365   7.324  0.6488 -0.5628  0.1245
   68SAPC   H9R 5745   5.843   2.447   7.346  0.9848 -0.6845 -0.4668
   68SAPC  C210 5746   5.653   2.351   7.408  0.7261 -0.0870 -0.8958
   68SAPC  H10R 5747   5.688   2.331   7.512 -1.6305 -0.9522 -0.2097
   68SAPC  H10S 5748   5.602   2.256   7.382 -0.3478  0.5021 -0.9883
   68SAPC  C211 5749   5.574   2.477   7.393 -0.1652 -0.1211  0.0886
   68SAPC  H11R 5750   5.519   2.494   7.299 -0.4136  0.4654  0.3346
   68SAPC  C212 5751   5.549   2.562   7.494  0.7010  0.0101 -0.0046
   68SAPC  H12R 5752   5.481   2.643   7.464 -3.4069 -2.2505  2.2978
   68SAPC  C213 5753   5.598   2.546   7.636 -0.1812 -0.6862 -0.5185
   68SAPC  H13R 5754   5.657   2.636   7.662  0.4722 -1.3459  0.3463
   68SAPC  H13S 5755   5.666   2.460   7.651  1.2527  0.0832 -2.2633
   68SAPC  C214 5756   5.474   2.534   7.730  0.1999 -0.5558 -0.2636
   68SAPC  H14R 5757   5.408   2.447   7.717  1.1350 -1.3171  0.0301
   68SAPC  C215 5758   5.447   2.613   7.836 -0.0848 -0.2126 -0.7156
   68SAPC  H15R 5759   5.373   2.589   7.914  1.2604  0.0075  0.6693
   68SAPC  C216 5760   5.524   2.737   7.875 -0.2265  0.1342 -0.0853
   68SAPC  H16R 5761   5.464   2.808   7.935 -1.0381 -0.7666  0.1918
   68SAPC  H16S 5762   5.544   2.799   7.785 -0.0948  1.6238  0.9288
   68SAPC  C217 5763   5.649   2.695   7.947 -0.6113  0.3777  0.0484
   68SAPC  H17R 5764   5.727   2.649   7.883  0.0888 -1.1432  1.9131
   68SAPC  H17S 5765   5.631   2.626   8.032  0.6565 -0.3030 -0.2065
   68SAPC  C218 5766   5.724   2.808   8.015 -0.0941 -0.4433 -0.5660
   68SAPC  H18R 5767   5.770   2.767   8.108 -2.0940  1.2633  1.2555
   68SAPC  H18S 5768   5.640   2.874   8.043  0.4052  0.7307 -1.7278
   68SAPC  C219 5769   5.825   2.884   7.923  0.7651 -0.6126 -0.5369
   68SAPC  H19R 5770   5.768   2.889   7.827 -0.3922 -2.6756 -0.0391
   68SAPC  H19S 5771   5.925   2.837   7.913  2.7362  2.6931  1.7384
   68SAPC  C220 5772   5.839   3.033   7.944 -0.6534 -0.0650 -0.4000
   68SAPC  H20R 5773   5.897   3.075   7.859 -2.1736 -0.6567 -1.7939
   68SAPC  H20S 5774   5.909   3.052   8.028  0.8039  1.4125 -1.8618
   68SAPC  H20T 5775   5.746   3.092   7.952 -0.2441  0.4399  0.7712
   68SAPC   C33 5776   5.176   2.590   6.681  1.3652 -0.7641 -0.4752
   68SAPC   H3X 5777   5.136   2.675   6.742  1.4632 -1.2272  0.2396
   68SAPC   H3Y 5778   5.286   2.598   6.678  1.2882  1.8739  0.4903
   68SAPC   C34 5779   5.123   2.461   6.747 -1.0800 -0.2069 -0.5689
   68SAPC   H4X 5780   5.173   2.381   6.688 -0.7727 -0.4424  0.0013
   68SAPC   H4Y 5781   5.013   2.463   6.733 -1.3302 -0.4163  1.1359
   68SAPC   C35 5782   5.161   2.451   6.895  0.2136 -0.5911  0.6222
   68SAPC   H5X 5783   5.109   2.534   6.946  0.3473 -0.0164 -0.1507
   68SAPC   H5Y 5784   5.265   2.473   6.926 -0.5771  0.6607  2.5418
   68SAPC   C36 5785   5.136   2.309   6.947 -0.1317 -0.0336  0.2503
   68SAPC   H6X 5786   5.225   2.249   6.919 -0.5105 -1.3665  1.7488
   68SAPC   H6Y 5787   5.052   2.248   6.908  1.1017 -1.3583 -0.4237
   68SAPC   C37 5788   5.117   2.303   7.098 -0.4009 -0.5251 -0.1377
   68SAPC   H7X 5789   5.077   2.201   7.117  1.9908 -1.2889  1.2237
   68SAPC   H7Y 5790   5.037   2.374   7.127  0.1507 -0.3222  0.9633
   68SAPC   C38 5791   5.250   2.317   7.175  0.2958  0.1135  0.5369
   68SAPC   H8X 5792   5.292   2.420   7.172  0.6964  0.0347  2.2177
   68SAPC   H8Y 5793   5.326   2.260   7.117  1.6800  2.4166 -0.0662
   68SAPC   C39 5794   5.243   2.263   7.318 -0.0616 -0.5100  0.1604
   68SAPC   H9X 5795   5.336   2.275   7.377 -0.5634 -0.1926  0.8965
   68SAPC   H9Y 5796   5.213   2.156   7.314 -1.9371 -0.0370  0.5113
   68SAPC  C310 5797   5.132   2.349   7.397 -0.3321 -0.3637  0.0451
   68SAPC  H10X 5798   5.035   2.323   7.349  0.1283  0.1801 -1.2332
   68SAPC  H10Y 5799   5.158   2.453   7.370  1.5480 -0.9889 -0.6969
   68SAPC  C311 5800   5.114   2.321   7.544  0.0196 -0.3983  0.5441
   68SAPC  H11X 5801   5.207   2.280   7.588  0.5817  1.0438  0.7638
   68SAPC  H11Y 5802   5.032   2.247   7.552 -0.7443  0.3005 -0.4048
   68SAPC  C312 5803   5.070   2.453   7.618 -0.5196  0.3551 -0.5778
   68SAPC  H12X 5804   4.999   2.511   7.556 -0.1451  1.9041  0.3808
   68SAPC  H12Y 5805   5.164   2.511   7.627 -0.7009  0.5508  0.0867
   68SAPC  C313 5806   5.024   2.409   7.752  0.6015  0.6793  0.5477
   68SAPC  H13X 5807   5.110   2.375   7.814  0.5849 -1.5007 -0.5478
   68SAPC  H13Y 5808   4.949   2.327   7.756 -0.7808  1.9110  4.1624
   68SAPC  C314 5809   4.968   2.518   7.839 -0.5990 -0.4187  0.6827
   68SAPC  H14X 5810   4.877   2.557   7.789 -1.3151  0.5514  2.6112
   68SAPC  H14Y 5811   5.045   2.596   7.821  1.9199 -3.3236 -2.3291
   68SAPC  C315 5812   4.938   2.486   7.986 -0.3015 -0.8012 -0.0519
   68SAPC  H15X 5813   4.895   2.385   8.004  0.4038 -0.8679  1.3712
   68SAPC  H15Y 5814   4.858   2.562   8.000 -0.0687 -0.2418 -1.6438
   68SAPC  C316 5815   5.053   2.514   8.077  0.3967  0.0236 -0.0517
   68SAPC  H16X 5816   5.079   2.621   8.070  0.8315  0.1261  2.3173
   68SAPC  H16Y 5817   5.137   2.452   8.038 -0.1297 -1.3253  0.8638
   68SAPC  C317 5818   5.015   2.500   8.232 -0.2203 -0.0377 -0.2749
   68SAPC  H17X 5819   5.104   2.524   8.295 -0.5440  0.8268 -0.1378
   68SAPC  H17Y 5820   4.987   2.393   8.237  0.0682 -0.1779 -1.2984
   68SAPC  C318 5821   4.902   2.598   8.264  0.7744 -0.1941  0.2885
   68SAPC  H18X 5822   4.949   2.698   8.264  0.2591  0.0694 -1.0304
   68SAPC  H18Y 5823   4.864   2.591   8.368 -0.1518  1.3041  0.0773
   68SAPC  H18Z 5824   4.815   2.586   8.195 -1.2231  1.1187  2.4267
   69SLPC     N 5825   4.682   6.075  11.101  0.4349 -0.3285 -0.3792
   69SLPC   C13 5826   4.644   6.193  11.189 -0.5032 -0.1658  0.6753
   69SLPC  H13A 5827   4.577   6.163  11.268  0.9561 -0.2633  1.9185
   69SLPC  H13B 5828   4.738   6.226  11.230 -0.0715 -0.9462  0.3225
   69SLPC  H13C 5829   4.609   6.277  11.131 -0.6453  0.2900  1.4050
   69SLPC   C14 5830   4.571   6.017  11.012  0.1873 -0.7261 -0.3673
   69SLPC  H14A 5831   4.557   6.089  10.933  0.0597 -1.4843 -1.0428
   69SLPC  H14B 5832   4.587   5.912  10.990  1.1837 -0.5605 -0.4738
   69SLPC  H14C 5833   4.476   6.015  11.064  0.7128 -0.2683  0.6376
   69SLPC   C15 5834   4.743   5.964  11.183  1.3671 -0.1536 -0.3379
   69SLPC  H15A 5835   4.665   5.928  11.248  1.4540  0.0727 -0.1092
   69SLPC  H15B 5836   4.788   5.883  11.129  2.2437 -1.3762  2.1153
   69SLPC  H15C 5837   4.819   6.007  11.246  0.3582  2.0597 -0.5003
   69SLPC   C12 5838   4.788   6.127  11.003  0.5192 -0.1679 -0.4082
   69SLPC  H12A 5839   4.868   6.174  11.059 -1.1132  0.3143  1.6232
   69SLPC  H12B 5840   4.748   6.204  10.938  0.3266  0.5382  0.5283
   69SLPC   C11 5841   4.860   6.022  10.916  0.1969 -1.2031  0.0704
   69SLPC  H11A 5842   4.871   6.060  10.812  1.3874  3.0514  1.5729
   69SLPC  H11B 5843   4.798   5.931  10.900  0.2421 -1.7240  2.4769
   69SLPC     P 5844   5.122   6.056  10.944 -0.0446  0.1309  0.0470
   69SLPC   O13 5845   5.100   6.197  10.977 -0.0102  0.0685 -0.1908
   69SLPC   O14 5846   5.222   5.987  11.025  0.1792  0.5807 -0.0596
   69SLPC   O12 5847   4.983   5.983  10.968  0.2622 -0.5389  0.7109
   69SLPC   O11 5848   5.131   6.040  10.789  0.0122  0.5939  0.2175
   69SLPC    C1 5849   5.232   5.975  10.709  0.3445 -0.5845  0.0637
   69SLPC    HA 5850   5.334   6.019  10.716  0.0656 -0.0268  0.7619
   69SLPC    HB 5851   5.248   5.867  10.726  2.8162 -0.7490 -2.4548
   69SLPC    C2 5852   5.180   5.972  10.559  0.3092  0.3555  0.3283
   69SLPC    HS 5853   5.261   5.927  10.498 -0.5240 -1.1528  0.2798
   69SLPC   O21 5854   5.127   6.096  10.509  0.0826 -0.0684  0.4717
   69SLPC   C21 5855   5.223   6.186  10.472  0.1580  0.0417 -0.2604
   69SLPC   O22 5856   5.344   6.173  10.485  0.3647  0.5907 -0.3162
   69SLPC   C22 5857   5.152   6.314  10.414  0.1739  0.6066 -0.4046
   69SLPC   H2R 5858   5.051   6.288  10.375  0.2576 -1.7683  0.8068
   69SLPC   H2S 5859   5.137   6.378  10.504 -0.2684 -0.5266  0.3403
   69SLPC    C3 5860   5.046   5.883  10.569  0.2212  0.7780 -0.6749
   69SLPC    HX 5861   4.974   5.936  10.634 -1.2931 -0.0642 -1.6070
   69SLPC    HY 5862   5.071   5.784  10.613 -0.3352  1.1163  0.4505
   69SLPC   O31 5863   4.993   5.866  10.432 -0.2711 -0.8866 -0.3784
   69SLPC   C31 5864   4.892   5.789  10.432 -0.6057 -0.3895 -0.2791
   69SLPC   O32 5865   4.842   5.730  10.524 -0.4602 -0.4415  0.4191
   69SLPC   C32 5866   4.854   5.753  10.289  0.9580  0.0091 -0.3445
   69SLPC   H2X 5867   4.749   5.784  10.269  1.2656  1.8208  0.5783
   69SLPC   H2Y 5868   4.868   5.643  10.290  2.6945  0.1801 -1.5098
   69SLPC   C23 5869   5.256   6.378  10.319 -0.1364  0.2112 -0.0196
   69SLPC   H3R 5870   5.364   6.385  10.345  0.2747  1.4003 -1.8038
   69SLPC   H3S 5871   5.240   6.488  10.316  0.0943  0.2314 -0.8065
   69SLPC   C24 5872   5.254   6.321  10.176  0.3082  0.5537  0.2501
   69SLPC   H4R 5873   5.286   6.215  10.182 -1.4684 -0.1764 -2.0391
   69SLPC   H4S 5874   5.330   6.374  10.114  0.9390 -0.0301  0.5062
   69SLPC   C25 5875   5.120   6.328  10.096 -0.2206 -0.1944 -0.6915
   69SLPC   H5R 5876   5.071   6.427  10.107  0.2386 -0.1508  1.4125
   69SLPC   H5S 5877   5.036   6.268  10.136 -0.8439  1.7918  1.1803
   69SLPC   C26 5878   5.147   6.288   9.950  0.5970  0.3078  0.4034
   69SLPC   H6R 5879   5.163   6.179   9.938  1.1295  0.5475 -1.4737
   69SLPC   H6S 5880   5.245   6.328   9.915  0.2566 -1.6284 -3.2946
   69SLPC   C27 5881   5.034   6.340   9.857 -0.3893  0.0353  0.7312
   69SLPC   H7R 5882   5.035   6.451   9.865  1.4383  0.0793  0.1643
   69SLPC   H7S 5883   4.937   6.291   9.881  1.0577 -4.8337 -1.9500
   69SLPC   C28 5884   5.065   6.308   9.713 -1.1048  0.6489  0.3572
   69SLPC   H8R 5885   5.093   6.201   9.706  0.4758  1.0054  0.9094
   69SLPC   H8S 5886   5.160   6.357   9.684 -1.8342  0.9185 -1.7624
   69SLPC   C29 5887   4.949   6.343   9.624  0.4600  0.1387  0.1701
   69SLPC   H9R 5888   4.851   6.337   9.673  0.8508  0.8384  1.0701
   69SLPC  C210 5889   4.957   6.369   9.489  0.2005  0.2643  0.0011
   69SLPC  H10R 5890   4.863   6.389   9.435 -1.0872 -0.8986  1.7185
   69SLPC  C211 5891   5.074   6.358   9.395 -0.7286 -0.7291  0.6493
   69SLPC  H11R 5892   5.157   6.304   9.447  0.0716  1.2022  1.4759
   69SLPC  H11S 5893   5.110   6.462   9.382  0.7375 -1.2324  0.5290
   69SLPC  C212 5894   5.053   6.301   9.255  0.0002 -0.0835  0.0021
   69SLPC  H12R 5895   5.097   6.201   9.248 -1.7207 -0.8883  0.2577
   69SLPC  C213 5896   4.979   6.354   9.156 -0.0441  0.7076  0.4065
   69SLPC  H13R 5897   4.966   6.296   9.063  0.1976  1.2366  0.0332
   69SLPC  C214 5898   4.897   6.484   9.162  0.2220  0.0878  0.3422
   69SLPC  H14R 5899   4.929   6.551   9.080 -0.5938  0.1183  0.0440
   69SLPC  H14S 5900   4.920   6.542   9.254 -0.1534  0.0739  0.4471
   69SLPC  C215 5901   4.744   6.450   9.159 -0.8598 -0.0492  0.3328
   69SLPC  H15R 5902   4.719   6.385   9.246 -1.7555 -0.2323 -0.0502
   69SLPC  H15S 5903   4.726   6.380   9.075  0.9586 -0.4741  0.2494
   69SLPC  C216 5904   4.647   6.566   9.169 -0.0493 -0.3339  0.9672
   69SLPC  H16R 5905   4.650   6.626   9.075 -0.8641 -0.6334  0.7463
   69SLPC  H16S 5906   4.692   6.625   9.252  0.8939  0.3777 -0.0143
   69SLPC  C217 5907   4.501   6.530   9.211 -0.8367 -0.2835 -0.0779
   69SLPC  H17R 5908   4.456   6.615   9.268  1.3039  0.4062  0.6544
   69SLPC  H17S 5909   4.496   6.436   9.269 -2.0871  0.1878  0.6230
   69SLPC  C218 5910   4.412   6.497   9.087 -0.2049 -0.2674  0.2499
   69SLPC  H18R 5911   4.447   6.406   9.033 -1.0254  0.4413 -1.5511
   69SLPC  H18S 5912   4.422   6.571   9.005  1.0911 -0.4492  0.2230
   69SLPC  H18T 5913   4.309   6.483   9.125 -0.3020  1.7137  0.8305
   69SLPC   C33 5914   4.944   5.804  10.180 -0.1313  0.8002  0.6599
   69SLPC   H3X 5915   5.047   5.760  10.184  0.0725  1.3130  1.2099
   69SLPC   H3Y 5916   4.967   5.911  10.195  0.4511  0.6793  0.6705
   69SLPC   C34 5917   4.883   5.779  10.038  0.5434  0.0679  0.2061
   69SLPC   H4X 5918   4.791   5.841  10.030  1.2632  0.9539 -2.2148
   69SLPC   H4Y 5919   4.861   5.673  10.014 -0.9494  0.3165  0.3741
   69SLPC   C35 5920   4.980   5.822   9.929 -0.9418 -0.2378  0.4837
   69SLPC   H5X 5921   5.074   5.763   9.927  0.2066  1.4962 -1.5159
   69SLPC   H5Y 5922   5.011   5.925   9.960  0.5664 -0.0580 -1.4395
   69SLPC   C36 5923   4.912   5.840   9.792 -0.3343  0.9253  1.2653
   69SLPC   H6X 5924   4.855   5.749   9.764  1.1991  0.5595 -0.8387
   69SLPC   H6Y 5925   4.986   5.838   9.710 -1.3593 -1.2042  0.3109
   69SLPC   C37 5926   4.820   5.961   9.783  0.1854 -0.1963 -0.4131
   69SLPC   H7X 5927   4.882   6.053   9.784 -2.8148  1.9765 -0.0423
   69SLPC   H7Y 5928   4.751   5.968   9.870 -0.8200  2.9109 -1.3248
   69SLPC   C38 5929   4.719   5.970   9.669 -0.1844  0.0912  0.1341
   69SLPC   H8X 5930   4.670   6.069   9.678  2.4392  1.6454 -1.4825
   69SLPC   H8Y 5931   4.651   5.882   9.675 -3.2579  2.3462  1.1122
   69SLPC   C39 5932   4.790   5.954   9.533 -0.6296  0.4483 -0.1593
   69SLPC   H9X 5933   4.827   5.849   9.535  0.3957  0.7924  1.8854
   69SLPC   H9Y 5934   4.881   6.017   9.546 -1.0599  1.0234  0.0854
   69SLPC  C310 5935   4.719   5.999   9.400 -0.1567  0.2372  0.0420
   69SLPC  H10X 5936   4.714   6.110   9.406 -0.9334  0.3051 -1.4997
   69SLPC  H10Y 5937   4.614   5.964   9.390 -0.4072  0.3557  1.8505
   69SLPC  C311 5938   4.813   5.966   9.281 -0.1739  0.5692 -0.0158
   69SLPC  H11X 5939   4.805   5.857   9.258 -4.0544  0.7276 -0.0448
   69SLPC  H11Y 5940   4.916   5.995   9.311  1.0257 -0.9284 -2.3353
   69SLPC  C312 5941   4.782   6.043   9.154 -1.0648  0.7805 -0.0461
   69SLPC  H12X 5942   4.774   6.153   9.168  0.8414  0.9926 -0.3952
   69SLPC  H12Y 5943   4.675   6.018   9.140 -1.1592  1.1667 -0.0149
   69SLPC  C313 5944   4.867   5.991   9.040  0.3099 -0.1375  0.1743
   69SLPC  H13X 5945   4.933   5.916   9.088 -0.4586 -0.8019  0.2025
   69SLPC  H13Y 5946   4.932   6.078   9.018 -0.6851  0.7982  0.8436
   69SLPC  C314 5947   4.789   5.937   8.924  0.9003 -0.0793 -0.3150
   69SLPC  H14X 5948   4.726   6.019   8.885  0.3054  0.6206  1.9976
   69SLPC  H14Y 5949   4.712   5.867   8.964  0.8528  0.5223  0.6554
   69SLPC  C315 5950   4.860   5.863   8.813 -0.2511  0.2831 -0.1558
   69SLPC  H15X 5951   4.883   5.761   8.852  1.2260 -0.2282 -2.2176
   69SLPC  H15Y 5952   4.961   5.902   8.788 -1.1570  2.1552 -1.0604
   69SLPC  C316 5953   4.777   5.837   8.694  0.1167  0.0196  0.6828
   69SLPC  H16X 5954   4.838   5.807   8.607 -0.6281  0.4872 -0.0167
   69SLPC  H16Y 5955   4.740   5.938   8.667 -1.5431 -1.1554 -1.7867
   69SLPC  C317 5956   4.660   5.738   8.719 -0.2106  0.2671  0.4072
   69SLPC  H17X 5957   4.598   5.777   8.802  1.3922 -2.0104  2.8479
   69SLPC  H17Y 5958   4.694   5.635   8.742  1.3229  0.4638 -0.8256
   69SLPC  C318 5959   4.574   5.730   8.593  0.1350  0.6260  0.3795
   69SLPC  H18X 5960   4.633   5.682   8.513  0.0387  2.4077 -0.8105
   69SLPC  H18Y 5961   4.546   5.834   8.564 -1.3872  0.9143  2.5830
   69SLPC  H18Z 5962   4.485   5.665   8.607  1.5892 -1.3563  0.7563
   70SLPC     N 5963   5.576   6.304  11.071 -0.0687 -0.6025  0.2367
   70SLPC   C13 5964   5.636   6.401  10.968 -0.3872 -0.0573 -0.6142
   70SLPC  H13A 5965   5.743   6.388  10.965 -0.4221 -0.2108 -1.4174
   70SLPC  H13B 5966   5.610   6.380  10.865  0.7870 -0.2034 -0.8983
   70SLPC  H13C 5967   5.631   6.504  11.002 -1.1602 -0.5978  1.0017
   70SLPC   C14 5968   5.428   6.329  11.082  0.2702 -0.0147  1.0311
   70SLPC  H14A 5969   5.382   6.365  10.991  0.1930  1.9853  1.8199
   70SLPC  H14B 5970   5.379   6.236  11.107 -1.8768  0.6183 -0.4961
   70SLPC  H14C 5971   5.405   6.402  11.157 -0.1575  0.1904  0.7062
   70SLPC   C15 5972   5.649   6.328  11.198 -0.0237  0.4808  0.3666
   70SLPC  H15A 5973   5.616   6.253  11.268 -0.8639  0.1131 -0.4054
   70SLPC  H15B 5974   5.752   6.308  11.177  0.2223  2.2865 -0.3286
   70SLPC  H15C 5975   5.646   6.429  11.237  0.2540  0.7838 -0.3936
   70SLPC   C12 5976   5.594   6.158  11.026  0.5691 -0.0475  0.4220
   70SLPC  H12A 5977   5.554   6.101  11.108  0.9146  1.3478  1.5793
   70SLPC  H12B 5978   5.696   6.125  11.016  0.8855  0.8039  0.7933
   70SLPC   C11 5979   5.535   6.120  10.887  0.1006 -0.4864 -0.0848
   70SLPC  H11A 5980   5.435   6.160  10.859 -1.1365 -1.9824  1.9308
   70SLPC  H11B 5981   5.520   6.010  10.883  0.3096 -0.5248  0.1427
   70SLPC     P 5982   5.758   6.082  10.757 -0.0687 -0.0248  0.4741
   70SLPC   O13 5983   5.806   6.153  10.634 -0.9830  0.5584  0.0247
   70SLPC   O14 5984   5.850   6.062  10.871 -0.3812  0.4004 -0.3031
   70SLPC   O12 5985   5.632   6.161  10.795  0.0180 -0.2624  0.1300
   70SLPC   O11 5986   5.708   5.939  10.727 -0.0407  0.6150  0.6422
   70SLPC    C1 5987   5.598   5.917  10.636 -0.9808 -0.1777  0.6229
   70SLPC    HA 5988   5.525   5.846  10.681  0.1996 -2.0436 -0.2602
   70SLPC    HB 5989   5.548   6.012  10.611  0.1455 -0.3832 -2.9028
   70SLPC    C2 5990   5.645   5.858  10.503 -0.3004  0.0882 -0.8101
   70SLPC    HS 5991   5.734   5.919  10.477 -0.3853  0.3771 -0.4276
   70SLPC   O21 5992   5.535   5.861  10.408  0.4652 -0.0684 -0.0280
   70SLPC   C21 5993   5.551   5.950  10.316 -0.2223 -0.2107 -0.2775
   70SLPC   O22 5994   5.627   6.045  10.318  0.7289 -0.3563  0.2113
   70SLPC   C22 5995   5.459   5.920  10.197 -0.0175 -0.0796  0.1689
   70SLPC   H2R 5996   5.467   5.810  10.187 -1.6599 -0.2782  0.8783
   70SLPC   H2S 5997   5.360   5.952  10.236  1.2077  1.1122  2.5263
   70SLPC    C3 5998   5.692   5.712  10.523  0.1114  0.2888  0.1512
   70SLPC    HX 5999   5.612   5.658  10.580  0.1151 -1.7302 -1.6240
   70SLPC    HY 6000   5.781   5.704  10.589 -1.5355 -1.0759  2.3864
   70SLPC   O31 6001   5.707   5.645  10.390 -0.2036 -0.9107 -0.1975
   70SLPC   C31 6002   5.601   5.595  10.331  0.1744 -0.1041  0.0014
   70SLPC   O32 6003   5.491   5.587  10.381  0.4041  0.2313  0.6523
   70SLPC   C32 6004   5.625   5.560  10.183  0.0588 -0.1200  0.1465
   70SLPC   H2X 6005   5.728   5.520  10.166 -0.0654  0.3021 -1.7705
   70SLPC   H2Y 6006   5.630   5.652  10.121  0.6207 -1.6823 -2.2668
   70SLPC   C23 6007   5.484   6.004  10.070 -0.2378  0.2595 -0.1933
   70SLPC   H3R 6008   5.591   6.004  10.043 -0.6293  2.1947 -2.0432
   70SLPC   H3S 6009   5.455   6.110  10.087  0.3348  0.2526  0.9158
   70SLPC   C24 6010   5.403   5.942   9.953  0.7666 -0.7048  0.5183
   70SLPC   H4R 6011   5.297   5.937   9.985 -0.0165  1.3516 -1.4631
   70SLPC   H4S 6012   5.445   5.844   9.923  2.5555  0.5832 -1.5493
   70SLPC   C25 6013   5.413   6.026   9.828  0.0100 -0.1694 -0.6792
   70SLPC   H5R 6014   5.515   6.011   9.787  2.1338  0.0442  3.9433
   70SLPC   H5S 6015   5.408   6.137   9.829 -0.7250 -0.1959  1.0284
   70SLPC   C26 6016   5.329   5.973   9.706 -0.5940  0.4258 -0.2376
   70SLPC   H6R 6017   5.222   5.985   9.731 -0.5262  2.1241 -0.6122
   70SLPC   H6S 6018   5.355   5.867   9.687  0.4639  0.7951 -0.9663
   70SLPC   C27 6019   5.360   6.036   9.570 -0.2867  0.1305  1.3557
   70SLPC   H7R 6020   5.449   6.007   9.511 -2.3997 -1.0387 -1.5306
   70SLPC   H7S 6021   5.383   6.144   9.579  3.8403 -0.3848 -0.7052
   70SLPC   C28 6022   5.237   6.017   9.483  0.0499  0.1112  0.1636
   70SLPC   H8R 6023   5.256   6.068   9.385 -1.4232  1.6864  0.6336
   70SLPC   H8S 6024   5.158   6.079   9.531  1.4034  0.6266  1.8067
   70SLPC   C29 6025   5.199   5.873   9.463  0.8859 -0.1557 -0.4641
   70SLPC   H9R 6026   5.163   5.823   9.554  1.8777 -0.5098 -0.2532
   70SLPC  C210 6027   5.203   5.810   9.349 -0.2803 -0.2026  0.2202
   70SLPC  H10R 6028   5.179   5.703   9.347 -0.4022 -0.2057  1.1473
   70SLPC  C211 6029   5.239   5.867   9.213  0.1128  0.6324 -0.4176
   70SLPC  H11R 6030   5.336   5.920   9.226 -0.0182  0.8645 -0.3877
   70SLPC  H11S 6031   5.173   5.951   9.184  0.6220  0.6392 -1.6650
   70SLPC  C212 6032   5.257   5.779   9.091  0.4942 -0.4641  0.1717
   70SLPC  H12R 6033   5.261   5.671   9.112 -1.4376 -0.4943  0.6576
   70SLPC  C213 6034   5.262   5.826   8.963  0.3473  0.6833 -0.0005
   70SLPC  H13R 6035   5.271   5.753   8.882  2.6105 -0.3500  1.0667
   70SLPC  C214 6036   5.248   5.972   8.914  0.5202 -0.4378  0.3383
   70SLPC  H14R 6037   5.188   6.037   8.981 -1.6333 -0.4327 -1.4790
   70SLPC  H14S 6038   5.195   5.982   8.817  0.3985  0.4029  0.4829
   70SLPC  C215 6039   5.387   6.044   8.893 -0.9210 -0.3506  0.1968
   70SLPC  H15R 6040   5.461   5.985   8.834  2.4432  1.7455  2.0097
   70SLPC  H15S 6041   5.437   6.042   8.992  1.2929 -3.6877 -0.7993
   70SLPC  C216 6042   5.373   6.187   8.842  0.3099  0.0551 -0.0648
   70SLPC  H16R 6043   5.337   6.188   8.737  3.4709  0.6400 -1.2612
   70SLPC  H16S 6044   5.476   6.226   8.831 -0.6597  2.0985 -3.1172
   70SLPC  C217 6045   5.309   6.293   8.939  0.6240  0.1056  0.1847
   70SLPC  H17R 6046   5.364   6.287   9.035  0.3569 -1.1009  0.2738
   70SLPC  H17S 6047   5.201   6.269   8.947  0.7521 -1.0199 -1.1626
   70SLPC  C218 6048   5.309   6.434   8.879 -0.4130  0.4761 -0.1604
   70SLPC  H18R 6049   5.386   6.491   8.935  0.2981 -0.2751 -0.3394
   70SLPC  H18S 6050   5.211   6.486   8.881 -0.7451 -0.1354 -0.2926
   70SLPC  H18T 6051   5.342   6.448   8.774 -0.8718  3.7545  0.0381
   70SLPC   C33 6052   5.522   5.461  10.121  0.4239  0.4160 -0.3418
   70SLPC   H3X 6053   5.418   5.502  10.122  0.9821  1.9719 -1.8086
   70SLPC   H3Y 6054   5.527   5.369  10.183 -2.8318 -0.5788 -1.3484
   70SLPC   C34 6055   5.560   5.430   9.974 -0.4955 -0.5508 -0.3813
   70SLPC   H4X 6056   5.538   5.323   9.953  0.5069 -0.8141 -0.1326
   70SLPC   H4Y 6057   5.667   5.453   9.957  0.2464 -1.9232  1.9342
   70SLPC   C35 6058   5.487   5.521   9.881 -0.0436  0.5962  0.6862
   70SLPC   H5X 6059   5.503   5.630   9.899  1.7060  0.7335 -1.2876
   70SLPC   H5Y 6060   5.379   5.495   9.888 -0.4018  1.9360  0.5507
   70SLPC   C36 6061   5.534   5.499   9.734  0.2609  0.9866 -0.6188
   70SLPC   H6X 6062   5.496   5.398   9.707 -0.9558  1.1296  0.4962
   70SLPC   H6Y 6063   5.645   5.503   9.724  0.2234  1.0646 -1.0261
   70SLPC   C37 6064   5.461   5.591   9.633  0.2998  0.7154  0.5303
   70SLPC   H7X 6065   5.461   5.696   9.667  0.4657  0.6113  0.8598
   70SLPC   H7Y 6066   5.363   5.539   9.624  1.8012 -2.2589 -0.1632
   70SLPC   C38 6067   5.520   5.585   9.491  0.6819  0.2530 -0.3187
   70SLPC   H8X 6068   5.629   5.606   9.492  0.7188  0.1680 -1.3199
   70SLPC   H8Y 6069   5.472   5.667   9.432  0.4633  0.9417  0.7939
   70SLPC   C39 6070   5.499   5.459   9.415 -0.1196  0.5699  0.3457
   70SLPC   H9X 6071   5.391   5.440   9.399 -0.4197  2.5714 -0.2621
   70SLPC   H9Y 6072   5.528   5.366   9.470 -0.7927  0.1381 -0.0153
   70SLPC  C310 6073   5.577   5.451   9.279  0.5028 -1.2135  0.6642
   70SLPC  H10X 6074   5.545   5.355   9.234 -2.2913 -0.1403  0.1484
   70SLPC  H10Y 6075   5.687   5.457   9.297  0.2397 -0.6484  2.1914
   70SLPC  C311 6076   5.536   5.574   9.184  0.4982  0.2872 -0.2091
   70SLPC  H11X 6077   5.583   5.669   9.216  3.4502 -0.6058 -1.5161
   70SLPC  H11Y 6078   5.427   5.585   9.202  0.7870 -0.0536  2.0480
   70SLPC  C312 6079   5.573   5.545   9.034 -0.1905 -0.3007  0.0347
   70SLPC  H12X 6080   5.534   5.634   8.979  0.7547  0.3588  0.4083
   70SLPC  H12Y 6081   5.518   5.457   8.995  0.8858 -1.7492  1.6617
   70SLPC  C313 6082   5.724   5.532   9.005 -0.1815  0.0175 -0.8844
   70SLPC  H13X 6083   5.741   5.423   9.021 -1.5838 -0.0679  0.1446
   70SLPC  H13Y 6084   5.783   5.590   9.078 -2.3614 -0.8132  1.6917
   70SLPC  C314 6085   5.782   5.571   8.863 -0.4549  0.9752 -0.4826
   70SLPC  H14X 6086   5.887   5.604   8.882  1.0387 -2.9279 -0.9171
   70SLPC  H14Y 6087   5.712   5.654   8.842 -1.4377  0.3066  0.0779
   70SLPC  C315 6088   5.764   5.463   8.761  0.2167  0.0919 -0.3186
   70SLPC  H15X 6089   5.699   5.384   8.803  2.2948 -1.0454  0.9144
   70SLPC  H15Y 6090   5.860   5.412   8.738  0.3863  1.4644 -3.0864
   70SLPC  C316 6091   5.716   5.518   8.624  0.1900 -0.1375  0.0791
   70SLPC  H16X 6092   5.731   5.448   8.539  0.8144  2.7879 -2.3756
   70SLPC  H16Y 6093   5.770   5.613   8.606 -0.1948  0.6088  2.4511
   70SLPC  C317 6094   5.565   5.538   8.624  0.4572 -0.5409  0.0681
   70SLPC  H17X 6095   5.540   5.599   8.714  1.3635  1.5683 -1.0366
   70SLPC  H17Y 6096   5.519   5.438   8.639 -0.7946  0.2242  1.6134
   70SLPC  C318 6097   5.522   5.598   8.488  0.6607  0.1329  0.0561
   70SLPC  H18X 6098   5.412   5.614   8.480  0.7144  0.1586 -0.7230
   70SLPC  H18Y 6099   5.570   5.536   8.409  1.8831  2.3921 -1.0869
   70SLPC  H18Z 6100   5.569   5.698   8.482  1.9916 -0.5617 -2.8053
   71SLPC     N 6101   5.784   3.208  10.847  1.1484 -0.1299 -0.5983
   71SLPC   C13 6102   5.690   3.305  10.778 -0.5203  0.4485  0.6405
   71SLPC  H13A 6103   5.700   3.406  10.816  0.0260  0.3334  0.8165
   71SLPC  H13B 6104   5.724   3.324  10.677  1.7774  0.0126  1.2641
   71SLPC  H13C 6105   5.586   3.278  10.770 -0.4121  0.4858 -1.2960
   71SLPC   C14 6106   5.791   3.068  10.768  0.1048 -0.3887  0.4493
   71SLPC  H14A 6107   5.693   3.026  10.756  0.4977 -1.1417 -0.2558
   71SLPC  H14B 6108   5.829   3.094  10.670 -1.3571 -1.3409 -0.4077
   71SLPC  H14C 6109   5.859   2.996  10.812  0.8969  0.1086  0.0775
   71SLPC   C15 6110   5.732   3.182  10.992  0.2953  0.6739  0.1592
   71SLPC  H15A 6111   5.741   3.271  11.052 -2.9649  1.6558 -0.5653
   71SLPC  H15B 6112   5.632   3.140  10.989  1.2818 -1.8354 -0.4048
   71SLPC  H15C 6113   5.789   3.107  11.044 -1.1650 -1.7484 -1.4982
   71SLPC   C12 6114   5.916   3.272  10.850 -0.3610  0.2668 -0.3094
   71SLPC  H12A 6115   5.911   3.358  10.915  0.7003 -0.5270  0.8751
   71SLPC  H12B 6116   5.940   3.319  10.756  1.2641 -0.0969 -0.1147
   71SLPC   C11 6117   6.040   3.187  10.903  0.0872 -0.0187  0.3316
   71SLPC  H11A 6118   6.014   3.146  11.002  1.1838  0.6634  0.9262
   71SLPC  H11B 6119   6.100   3.277  10.930  0.4452 -0.2164  0.2007
   71SLPC     P 6120   6.160   3.147  10.684 -0.3202  0.2095 -0.0051
   71SLPC   O13 6121   6.149   3.293  10.674  0.0634  0.3875 -0.0811
   71SLPC   O14 6122   6.298   3.093  10.670  0.4133  0.2873 -0.7798
   71SLPC   O12 6123   6.095   3.091  10.817 -0.4774  0.2185 -0.2548
   71SLPC   O11 6124   6.085   3.077  10.561  0.2443 -0.4515  0.9029
   71SLPC    C1 6125   6.080   2.933  10.556 -0.1089  0.2787  0.1318
   71SLPC    HA 6126   6.176   2.881  10.537 -0.2955  0.0691 -0.2450
   71SLPC    HB 6127   6.039   2.891  10.651  1.3247  0.0593  0.6759
   71SLPC    C2 6128   5.980   2.887  10.446 -0.5644 -0.4921  0.6147
   71SLPC    HS 6129   6.020   2.928  10.351 -0.5351 -0.5774  0.5905
   71SLPC   O21 6130   5.849   2.940  10.467  0.2438 -0.4317 -0.2135
   71SLPC   C21 6131   5.783   2.976  10.364 -0.5300 -0.8715 -0.3162
   71SLPC   O22 6132   5.826   2.981  10.247  0.4158  0.4843  0.4313
   71SLPC   C22 6133   5.649   3.027  10.414  0.4696  0.3887 -0.4142
   71SLPC   H2R 6134   5.597   2.946  10.469  2.1689 -0.7910 -0.4809
   71SLPC   H2S 6135   5.674   3.112  10.481 -2.2896 -0.4534  1.8502
   71SLPC    C3 6136   5.980   2.729  10.438  0.3563 -0.1198  0.6943
   71SLPC    HX 6137   5.956   2.695  10.542 -3.4096  1.3720  0.4734
   71SLPC    HY 6138   6.085   2.698  10.420  0.5587  1.3807 -0.9015
   71SLPC   O31 6139   5.886   2.666  10.349 -0.1418  0.0522  0.1989
   71SLPC   C31 6140   5.910   2.671  10.221 -0.3378  0.0086  1.0071
   71SLPC   O32 6141   6.016   2.712  10.170  0.0568  0.4695  0.0919
   71SLPC   C32 6142   5.785   2.630  10.139  0.3588  1.1849  0.1953
   71SLPC   H2X 6143   5.715   2.717  10.135  1.9369  2.4529 -2.0834
   71SLPC   H2Y 6144   5.725   2.559  10.200 -1.6903  3.3507  0.8542
   71SLPC   C23 6145   5.551   3.075  10.308  0.1632  0.0136  0.7653
   71SLPC   H3R 6146   5.605   3.156  10.254  3.4472 -1.6275  1.3244
   71SLPC   H3S 6147   5.458   3.111  10.356 -0.7175 -1.2670  0.0888
   71SLPC   C24 6148   5.510   2.956  10.206 -0.2230 -0.7945  0.8937
   71SLPC   H4R 6149   5.459   2.879  10.268  0.0848 -0.4317  1.6025
   71SLPC   H4S 6150   5.599   2.925  10.147 -0.1724 -1.3795  1.2702
   71SLPC   C25 6151   5.421   3.000  10.088  0.9181  0.2147  0.6166
   71SLPC   H5R 6152   5.459   3.095  10.045  1.9787  0.7586  2.6124
   71SLPC   H5S 6153   5.322   3.021  10.133  0.6717  1.3009 -0.3749
   71SLPC   C26 6154   5.421   2.893   9.973 -0.9588  0.2209  0.6688
   71SLPC   H6R 6155   5.402   2.792  10.016 -0.0294 -0.7929 -1.1853
   71SLPC   H6S 6156   5.527   2.892   9.941 -0.8277  0.2100  1.1021
   71SLPC   C27 6157   5.333   2.931   9.859 -0.1710 -0.4370 -0.3003
   71SLPC   H7R 6158   5.342   3.039   9.837 -0.4985 -0.8825 -2.9917
   71SLPC   H7S 6159   5.230   2.904   9.889 -0.7419 -0.2953 -2.0065
   71SLPC   C28 6160   5.361   2.862   9.725  0.0727  0.1793  0.2790
   71SLPC   H8R 6161   5.273   2.826   9.667  1.1690 -0.5569 -1.0087
   71SLPC   H8S 6162   5.418   2.768   9.742  1.4634  1.2300  1.6951
   71SLPC   C29 6163   5.457   2.934   9.638 -0.1961 -0.0034  0.1615
   71SLPC   H9R 6164   5.545   2.967   9.695 -1.0567  1.6349  0.6081
   71SLPC  C210 6165   5.445   2.970   9.507 -0.1290  0.1277 -0.3099
   71SLPC  H10R 6166   5.527   3.032   9.467  0.2055 -2.1076 -3.4247
   71SLPC  C211 6167   5.330   2.933   9.421  1.0185 -0.2084 -0.0146
   71SLPC  H11R 6168   5.286   3.026   9.379 -0.4980 -2.0952 -2.9220
   71SLPC  H11S 6169   5.240   2.895   9.473 -2.6498  0.6393 -5.0585
   71SLPC  C212 6170   5.363   2.840   9.307  0.3086 -0.8622  0.6335
   71SLPC  H12R 6171   5.395   2.747   9.357  1.2578  0.5873  2.8708
   71SLPC  C213 6172   5.347   2.851   9.175 -0.9483  0.1648  0.1030
   71SLPC  H13R 6173   5.367   2.758   9.121  0.2788  2.0134 -2.8890
   71SLPC  C214 6174   5.329   2.980   9.104  0.7673  0.2464 -0.2862
   71SLPC  H14R 6175   5.345   3.065   9.174  1.2506 -0.9832  1.1534
   71SLPC  H14S 6176   5.227   2.980   9.060  0.9197  0.0648 -0.6533
   71SLPC  C215 6177   5.428   2.988   8.984 -0.0238 -0.0934  0.3345
   71SLPC  H15R 6178   5.431   2.900   8.916 -1.5140  0.7837 -0.9470
   71SLPC  H15S 6179   5.534   3.002   9.013  0.6279 -1.8175 -1.0048
   71SLPC  C216 6180   5.397   3.111   8.892 -0.2181  0.0045 -0.2251
   71SLPC  H16R 6181   5.471   3.189   8.920  2.7147 -2.3020 -1.0807
   71SLPC  H16S 6182   5.292   3.139   8.916 -0.8183 -1.0471 -1.5185
   71SLPC  C217 6183   5.405   3.070   8.743 -0.2057 -0.1415  0.8001
   71SLPC  H17R 6184   5.333   2.990   8.716 -2.0800  2.1070 -1.2536
   71SLPC  H17S 6185   5.507   3.027   8.729 -0.7800 -1.1185 -0.5764
   71SLPC  C218 6186   5.400   3.189   8.655  0.3240 -0.2786 -0.2871
   71SLPC  H18R 6187   5.485   3.209   8.587  0.2780 -2.3524 -1.0089
   71SLPC  H18S 6188   5.359   3.282   8.699 -1.5979 -0.9117 -0.6481
   71SLPC  H18T 6189   5.320   3.170   8.581 -0.8013 -0.2448  0.8761
   71SLPC   C33 6190   5.802   2.590   9.992  0.6366  0.5825 -0.2099
   71SLPC   H3X 6191   5.869   2.501   9.990 -1.7798 -1.3640  0.2705
   71SLPC   H3Y 6192   5.854   2.679   9.952 -0.5184  2.2013  1.7125
   71SLPC   C34 6193   5.675   2.556   9.918  0.0054  0.1163 -0.9500
   71SLPC   H4X 6194   5.612   2.648   9.915  1.6239  1.2613 -1.4361
   71SLPC   H4Y 6195   5.633   2.480   9.987  2.5073 -1.7201 -1.3284
   71SLPC   C35 6196   5.693   2.483   9.788  0.7787 -0.4652 -0.1965
   71SLPC   H5X 6197   5.597   2.455   9.740 -0.1973 -1.1417  2.0238
   71SLPC   H5Y 6198   5.759   2.397   9.810  0.5763 -0.5706  0.0006
   71SLPC   C36 6199   5.762   2.589   9.699  0.7184  0.3312  0.1363
   71SLPC   H6X 6200   5.867   2.604   9.734  0.9695  0.5772 -0.6905
   71SLPC   H6Y 6201   5.706   2.685   9.698 -1.7976 -1.0699 -0.7525
   71SLPC   C37 6202   5.783   2.528   9.558 -0.0008  0.0704  0.6148
   71SLPC   H7X 6203   5.780   2.417   9.560  0.8718  0.0291  0.3863
   71SLPC   H7Y 6204   5.881   2.570   9.525 -1.2008  2.4774 -0.1188
   71SLPC   C38 6205   5.676   2.575   9.453 -0.4883 -0.0069 -0.1234
   71SLPC   H8X 6206   5.658   2.683   9.466  0.6734  0.3520 -1.2824
   71SLPC   H8Y 6207   5.575   2.533   9.472 -0.9900  1.3133  0.2090
   71SLPC   C39 6208   5.730   2.549   9.316  0.0457  0.0682  0.1336
   71SLPC   H9X 6209   5.802   2.466   9.329 -0.1820  0.0533  1.4187
   71SLPC   H9Y 6210   5.785   2.636   9.274 -0.1758  0.7924  1.2983
   71SLPC  C310 6211   5.628   2.520   9.205 -0.2060  0.1081 -0.6252
   71SLPC  H10X 6212   5.568   2.613   9.205 -0.0995  0.1779 -0.8855
   71SLPC  H10Y 6213   5.566   2.432   9.233  0.1304  0.7686  2.4917
   71SLPC  C311 6214   5.701   2.492   9.074 -0.4326 -0.0263 -0.3772
   71SLPC  H11X 6215   5.646   2.419   9.011  1.3210 -1.2107 -0.5892
   71SLPC  H11Y 6216   5.798   2.441   9.093 -0.8064 -0.4411  0.4998
   71SLPC  C312 6217   5.723   2.608   8.987 -0.6077  0.3562 -0.3142
   71SLPC  H12X 6218   5.788   2.673   9.048  1.4755 -0.8694 -1.1302
   71SLPC  H12Y 6219   5.629   2.662   8.960 -0.9665  0.1039  0.3972
   71SLPC  C313 6220   5.811   2.588   8.856 -0.2786  0.4546 -1.2368
   71SLPC  H13X 6221   5.892   2.515   8.881 -2.6299 -2.1278 -0.6995
   71SLPC  H13Y 6222   5.858   2.688   8.839 -3.3406  2.2871  0.2547
   71SLPC  C314 6223   5.736   2.542   8.738  0.1022  0.2393  0.4738
   71SLPC  H14X 6224   5.667   2.458   8.762  0.0139 -0.3665 -1.6869
   71SLPC  H14Y 6225   5.799   2.496   8.659  2.0014  1.4987  1.1647
   71SLPC  C315 6226   5.641   2.643   8.664  0.2448  0.4070 -0.8228
   71SLPC  H15X 6227   5.708   2.726   8.633 -0.3143  1.2971  0.2693
   71SLPC  H15Y 6228   5.572   2.694   8.734 -0.4122  0.3827 -1.4334
   71SLPC  C316 6229   5.566   2.595   8.544  0.3787 -0.0354 -0.5383
   71SLPC  H16X 6230   5.502   2.507   8.566 -1.1678  0.7319 -1.7839
   71SLPC  H16Y 6231   5.637   2.556   8.468 -0.0242 -2.0830  0.0782
   71SLPC  C317 6232   5.475   2.696   8.472 -0.1520 -0.2884 -0.3126
   71SLPC  H17X 6233   5.529   2.793   8.467 -2.0646  0.8651  0.3871
   71SLPC  H17Y 6234   5.382   2.717   8.529  0.3959  1.0086  0.1386
   71SLPC  C318 6235   5.431   2.654   8.329  0.0772  0.3325  0.4855
   71SLPC  H18X 6236   5.371   2.561   8.333  0.3708  0.1862  1.9791
   71SLPC  H18Y 6237   5.522   2.630   8.269 -0.1339 -0.5911  0.5217
   71SLPC  H18Z 6238   5.367   2.725   8.272  0.0104 -0.0062  0.1387
   72SLPC     N 6239   5.025   2.827  10.937 -0.8396  0.4817  0.0008
   72SLPC   C13 6240   4.908   2.813  10.847  0.8682 -0.6948  0.5285
   72SLPC  H13A 6241   4.928   2.792  10.743 -0.9584 -1.1671  0.2349
   72SLPC  H13B 6242   4.846   2.731  10.881  0.5022 -0.6636 -0.0427
   72SLPC  H13C 6243   4.843   2.899  10.840 -1.2019 -2.3109 -2.0491
   72SLPC   C14 6244   4.984   2.881  11.072  0.3358  0.9381 -0.4355
   72SLPC  H14A 6245   5.072   2.906  11.130  2.4680 -3.8301 -1.1931
   72SLPC  H14B 6246   4.917   2.965  11.065 -1.6780 -0.4579  0.9872
   72SLPC  H14C 6247   4.935   2.801  11.126  2.4232  0.6961  1.2552
   72SLPC   C15 6248   5.110   2.938  10.886  0.4778 -0.2574  0.0229
   72SLPC  H15A 6249   5.063   3.035  10.896  1.1797  0.1821 -0.8059
   72SLPC  H15B 6250   5.200   2.944  10.946  0.6780 -0.3039 -0.2743
   72SLPC  H15C 6251   5.130   2.922  10.781 -0.1936  0.1716 -0.1758
   72SLPC   C12 6252   5.103   2.700  10.945  0.5524 -0.0431  0.0548
   72SLPC  H12A 6253   5.040   2.613  10.961  2.3578 -2.1155 -2.9581
   72SLPC  H12B 6254   5.176   2.702  11.024  0.0123 -1.4760  0.6241
   72SLPC   C11 6255   5.186   2.662  10.812  1.6522 -0.2380  0.4446
   72SLPC  H11A 6256   5.247   2.572  10.835 -0.1144 -2.0581 -1.4297
   72SLPC  H11B 6257   5.255   2.742  10.779 -2.4264  3.8969  0.9068
   72SLPC     P 6258   5.058   2.478  10.678  0.1046  0.0653 -0.1399
   72SLPC   O13 6259   5.021   2.421  10.808 -0.3151 -0.3848 -0.1774
   72SLPC   O14 6260   4.951   2.471  10.576 -1.1576  0.3468  0.5449
   72SLPC   O12 6261   5.095   2.627  10.705  0.0787  0.0610 -0.3740
   72SLPC   O11 6262   5.199   2.425  10.638  0.1956 -0.1676 -0.1975
   72SLPC    C1 6263   5.285   2.495  10.551 -0.1417  0.3610 -0.1639
   72SLPC    HA 6264   5.290   2.604  10.573 -1.6349  1.2166 -3.4737
   72SLPC    HB 6265   5.385   2.450  10.568 -1.0977 -0.7356  3.0914
   72SLPC    C2 6266   5.254   2.475  10.393 -0.2796  0.1377 -1.0854
   72SLPC    HS 6267   5.145   2.494  10.379 -0.1102  1.8574 -0.4223
   72SLPC   O21 6268   5.296   2.350  10.346  0.4689  0.3711 -0.8182
   72SLPC   C21 6269   5.216   2.285  10.267 -0.1303  0.0719 -0.2126
   72SLPC   O22 6270   5.106   2.325  10.235  0.0375 -0.3430  0.7803
   72SLPC   C22 6271   5.268   2.139  10.252 -0.6112 -0.3196 -0.1813
   72SLPC   H2R 6272   5.371   2.151  10.211 -1.2270  4.9842 -0.9138
   72SLPC   H2S 6273   5.248   2.094  10.351  1.0140 -0.9860 -0.1364
   72SLPC    C3 6274   5.329   2.591  10.321  0.0004  0.1178 -0.4620
   72SLPC    HX 6275   5.438   2.573  10.333 -0.2095 -0.3553  0.9338
   72SLPC    HY 6276   5.308   2.681  10.382 -2.6533 -0.1495 -0.8797
   72SLPC   O31 6277   5.282   2.621  10.186  0.0013 -0.1986 -0.3015
   72SLPC   C31 6278   5.337   2.549  10.089  0.3169  0.1055 -0.0308
   72SLPC   O32 6279   5.433   2.474  10.111  0.8161  0.2630  0.4793
   72SLPC   C32 6280   5.252   2.551   9.968  0.2757  0.1666 -0.4645
   72SLPC   H2X 6281   5.232   2.659   9.950 -0.7352  0.0548 -0.0521
   72SLPC   H2Y 6282   5.157   2.502   9.997  0.2449 -1.2650 -2.7596
   72SLPC   C23 6283   5.179   2.052  10.158  0.3989  0.1454 -0.3222
   72SLPC   H3R 6284   5.077   2.058  10.200  0.6415 -2.2269  0.7894
   72SLPC   H3S 6285   5.224   1.950  10.164  0.0093 -0.1094 -1.4586
   72SLPC   C24 6286   5.183   2.095  10.010  0.5990  0.0866 -0.2625
   72SLPC   H4R 6287   5.288   2.114   9.979 -0.5298  1.9086 -3.3804
   72SLPC   H4S 6288   5.125   2.189   9.997  1.2151  0.4049 -0.7463
   72SLPC   C25 6289   5.131   1.979   9.917 -0.2493 -0.1879 -0.8805
   72SLPC   H5R 6290   5.027   1.961   9.954  0.9717 -1.3187  2.3047
   72SLPC   H5S 6291   5.193   1.889   9.937  1.9122  1.7947  2.2485
   72SLPC   C26 6292   5.131   2.021   9.772 -0.0648 -0.0333  0.2106
   72SLPC   H6R 6293   5.230   2.021   9.722 -1.0477  0.7357 -1.8643
   72SLPC   H6S 6294   5.086   2.122   9.761 -0.8585 -0.5048 -1.2159
   72SLPC   C27 6295   5.056   1.928   9.672 -0.4758  0.7773 -0.2595
   72SLPC   H7R 6296   4.949   1.954   9.693 -1.1771 -2.3639  0.4843
   72SLPC   H7S 6297   5.081   1.825   9.703  0.9241  1.8145  2.3764
   72SLPC   C28 6298   5.107   1.951   9.527 -0.1193  0.1984 -0.3096
   72SLPC   H8R 6299   5.207   1.903   9.527 -0.4852 -0.5858  0.4679
   72SLPC   H8S 6300   5.130   2.058   9.512 -0.9886  0.5671  0.8408
   72SLPC   C29 6301   5.020   1.889   9.422  0.5947 -0.8535 -0.9633
   72SLPC   H9R 6302   4.941   1.824   9.461  0.3681  0.5499  1.0755
   72SLPC  C210 6303   5.036   1.910   9.292  0.2135 -0.2597  0.3187
   72SLPC  H10R 6304   4.955   1.877   9.225 -2.3528 -1.3924  3.6632
   72SLPC  C211 6305   5.135   1.988   9.215 -0.3137 -0.5731  0.4853
   72SLPC  H11R 6306   5.178   1.907   9.151  0.6226  1.2401 -1.2849
   72SLPC  H11S 6307   5.212   2.034   9.280  0.1592  1.8767 -1.6598
   72SLPC  C212 6308   5.070   2.105   9.146 -0.1426 -0.4017 -0.0844
   72SLPC  H12R 6309   5.023   2.179   9.212  1.1172  0.1381  0.2270
   72SLPC  C213 6310   5.071   2.139   9.017 -0.9704  1.0392  0.6717
   72SLPC  H13R 6311   5.019   2.230   8.982 -3.4622  0.1452  1.8571
   72SLPC  C214 6312   5.133   2.045   8.916  0.2110  0.4639 -0.3969
   72SLPC  H14R 6313   5.052   1.970   8.910 -0.0728  0.6961  0.4435
   72SLPC  H14S 6314   5.221   1.989   8.953 -0.2316  0.1655  0.2168
   72SLPC  C215 6315   5.157   2.101   8.775 -0.0170  0.0845  0.0879
   72SLPC  H15R 6316   5.213   2.022   8.721  1.5864  0.6206  0.8690
   72SLPC  H15S 6317   5.232   2.181   8.796 -0.5229  0.6425 -0.2210
   72SLPC  C216 6318   5.048   2.173   8.693 -1.3209 -0.0464 -0.2400
   72SLPC  H16R 6319   5.099   2.213   8.603  0.3310 -1.4099  0.0341
   72SLPC  H16S 6320   5.010   2.258   8.752  0.2060  0.5506 -0.0709
   72SLPC  C217 6321   4.939   2.079   8.656  0.6404 -0.1579  0.1315
   72SLPC  H17R 6322   4.881   2.064   8.750  1.9818  1.0258  1.1944
   72SLPC  H17S 6323   4.968   1.980   8.614 -0.7277 -1.4952  2.1077
   72SLPC  C218 6324   4.847   2.136   8.545 -0.2722  0.4053 -0.0150
   72SLPC  H18R 6325   4.885   2.101   8.447 -1.1876 -1.2221  0.1661
   72SLPC  H18S 6326   4.836   2.245   8.527 -2.4404  0.8147  2.9114
   72SLPC  H18T 6327   4.745   2.093   8.550 -1.0332  1.9588 -1.3321
   72SLPC   C33 6328   5.304   2.475   9.839 -0.0295 -0.0127  0.3370
   72SLPC   H3X 6329   5.325   2.367   9.855 -1.3688 -0.9777 -3.3670
   72SLPC   H3Y 6330   5.392   2.527   9.795  1.7027 -0.7828  2.6961
   72SLPC   C34 6331   5.196   2.459   9.735 -0.6324  0.4032  0.3099
   72SLPC   H4X 6332   5.125   2.544   9.735 -1.5026 -0.2692 -1.7051
   72SLPC   H4Y 6333   5.140   2.366   9.759  0.0459  0.0900  0.6940
   72SLPC   C35 6334   5.265   2.458   9.599  0.1600  0.7520 -0.8899
   72SLPC   H5X 6335   5.347   2.383   9.594 -0.3883  0.0376  0.4568
   72SLPC   H5Y 6336   5.309   2.554   9.564 -1.4045  1.8199 -0.0722
   72SLPC   C36 6337   5.165   2.405   9.491  0.2790 -0.1190 -0.6398
   72SLPC   H6X 6338   5.084   2.481   9.497 -0.9661 -1.5537  3.2458
   72SLPC   H6Y 6339   5.111   2.316   9.528  1.2030  0.6064  2.7810
   72SLPC   C37 6340   5.228   2.379   9.356  0.1158 -0.0631  0.8384
   72SLPC   H7X 6341   5.176   2.294   9.307  1.3098 -0.4253  0.1738
   72SLPC   H7Y 6342   5.331   2.350   9.384  0.8398  1.5440 -0.0877
   72SLPC   C38 6343   5.231   2.503   9.267  0.5283 -0.1367  0.2139
   72SLPC   H8X 6344   5.334   2.531   9.236  0.4686 -1.3315 -1.1389
   72SLPC   H8Y 6345   5.198   2.597   9.317 -0.5076 -1.3081  1.8329
   72SLPC   C39 6346   5.149   2.483   9.137  0.5391  0.2003 -0.1382
   72SLPC   H9X 6347   5.061   2.426   9.174  2.0921  0.1375  3.9585
   72SLPC   H9Y 6348   5.188   2.414   9.059 -1.0838 -1.2925  0.2838
   72SLPC  C310 6349   5.109   2.611   9.052  0.2307 -1.1675 -0.3562
   72SLPC  H10X 6350   5.200   2.670   9.028  0.2286 -1.5258 -1.2710
   72SLPC  H10Y 6351   5.051   2.671   9.125  3.5301 -0.3450  1.8358
   72SLPC  C311 6352   5.048   2.586   8.916 -0.5575 -0.1613 -0.0017
   72SLPC  H11X 6353   4.949   2.537   8.924 -1.1356  1.0395  0.4091
   72SLPC  H11Y 6354   5.108   2.516   8.854 -1.0616 -0.0895 -0.5801
   72SLPC  C312 6355   5.019   2.707   8.823 -0.3905 -0.0647  0.2511
   72SLPC  H12X 6356   5.102   2.781   8.823  1.7277 -2.3099  1.2802
   72SLPC  H12Y 6357   4.929   2.763   8.856 -1.7774 -2.2629  0.3686
   72SLPC  C313 6358   4.993   2.672   8.680  0.4354  0.1319  1.0786
   72SLPC  H13X 6359   4.901   2.611   8.665  1.0400  0.0482 -3.7571
   72SLPC  H13Y 6360   5.084   2.619   8.645  0.7487  0.4419  1.4189
   72SLPC  C314 6361   4.962   2.789   8.587  0.1480 -0.2863 -0.1763
   72SLPC  H14X 6362   4.876   2.848   8.623  0.7187  1.2670 -1.2305
   72SLPC  H14Y 6363   4.933   2.745   8.489  2.8928  1.0231 -1.7217
   72SLPC  C315 6364   5.075   2.883   8.550 -0.2323 -0.0399 -0.1656
   72SLPC  H15X 6365   5.169   2.841   8.508  1.5291  1.0994  2.3162
   72SLPC  H15Y 6366   5.110   2.935   8.642 -0.9092 -0.9785  0.6433
   72SLPC  C316 6367   5.016   2.990   8.458 -0.0452  0.0569 -0.7784
   72SLPC  H16X 6368   4.966   3.069   8.519  1.0739  0.0630  0.1657
   72SLPC  H16Y 6369   4.942   2.940   8.391  0.8839 -0.7589 -1.2071
   72SLPC  C317 6370   5.120   3.057   8.372  0.0430  0.0770  0.3166
   72SLPC  H17X 6371   5.200   3.067   8.449 -0.0064 -4.0541  1.1463
   72SLPC  H17Y 6372   5.091   3.156   8.331 -0.5398 -0.0198  0.4907
   72SLPC  C318 6373   5.159   2.966   8.259 -0.0714 -0.0589  0.0500
   72SLPC  H18X 6374   5.170   2.862   8.294  2.7424 -0.5148 -1.8442
   72SLPC  H18Y 6375   5.261   2.990   8.221  0.1122 -2.6252 -1.3113
   72SLPC  H18Z 6376   5.086   2.968   8.176  1.1713  1.0543 -1.0796
   73SLPC     N 6377   5.836   1.489  11.004  0.0402 -0.4986 -0.1699
   73SLPC   C13 6378   5.929   1.564  11.091 -0.5776  0.1412 -0.2558
   73SLPC  H13A 6379   6.023   1.584  11.043  2.2123 -0.6541  4.3166
   73SLPC  H13B 6380   5.885   1.652  11.137 -1.0317  0.3414 -1.0489
   73SLPC  H13C 6381   5.963   1.499  11.170 -0.6198  1.4877  0.9112
   73SLPC   C14 6382   5.707   1.482  11.081 -0.7192  0.0520 -0.6554
   73SLPC  H14A 6383   5.656   1.575  11.101  0.2120  0.3815  0.2542
   73SLPC  H14B 6384   5.639   1.410  11.039 -3.1252  1.4297  0.6793
   73SLPC  H14C 6385   5.730   1.438  11.177 -1.4160 -0.9717 -0.9442
   73SLPC   C15 6386   5.873   1.350  10.970 -0.1792  0.4389 -0.6099
   73SLPC  H15A 6387   5.908   1.299  11.058 -1.9883 -1.7088 -1.0541
   73SLPC  H15B 6388   5.795   1.294  10.920  1.2911 -0.7783 -1.6341
   73SLPC  H15C 6389   5.955   1.339  10.901  1.5774  0.4500  1.3932
   73SLPC   C12 6390   5.814   1.563  10.875 -0.1636  0.3032  0.1123
   73SLPC  H12A 6391   5.714   1.527  10.856 -0.3561 -0.2177  1.8760
   73SLPC  H12B 6392   5.885   1.526  10.802 -0.3912  1.8417 -0.9420
   73SLPC   C11 6393   5.823   1.716  10.886  0.5474  0.2129 -0.0444
   73SLPC  H11A 6394   5.754   1.746  10.969 -1.0476  0.7406 -1.5021
   73SLPC  H11B 6395   5.765   1.768  10.807 -1.7144 -1.6560  0.2573
   73SLPC     P 6396   6.027   1.796  10.761  0.4529  0.3340  0.3557
   73SLPC   O13 6397   5.957   1.911  10.696  0.1588 -0.0121 -0.3103
   73SLPC   O14 6398   6.173   1.810  10.791  0.3929  0.4029  0.6059
   73SLPC   O12 6399   5.950   1.767  10.894 -0.4147 -0.4787  0.5745
   73SLPC   O11 6400   6.004   1.672  10.668  0.0691 -0.3422 -0.5940
   73SLPC    C1 6401   6.078   1.551  10.654 -0.3909 -0.3373  0.1068
   73SLPC    HA 6402   6.128   1.521  10.748 -0.1132 -3.0171 -0.7941
   73SLPC    HB 6403   6.009   1.471  10.619  1.0863 -0.8658 -1.8040
   73SLPC    C2 6404   6.200   1.563  10.551  0.1267 -0.1802  0.1405
   73SLPC    HS 6405   6.277   1.630  10.596 -0.4050  2.1893 -2.2210
   73SLPC   O21 6406   6.156   1.611  10.426  0.7326  0.2423 -0.1972
   73SLPC   C21 6407   6.204   1.719  10.379  0.0843 -0.6000  0.1964
   73SLPC   O22 6408   6.279   1.790  10.437  0.0773 -0.0311  0.0156
   73SLPC   C22 6409   6.161   1.729  10.233  0.3269  0.2280 -0.1074
   73SLPC   H2R 6410   6.216   1.647  10.182 -0.1044 -1.1802  1.6139
   73SLPC   H2S 6411   6.054   1.701  10.226  0.2136  0.7540 -0.5708
   73SLPC    C3 6412   6.267   1.426  10.524 -0.3702  0.6442  0.1661
   73SLPC    HX 6413   6.196   1.359  10.470  0.8234  0.4006 -1.1530
   73SLPC    HY 6414   6.301   1.380  10.620 -1.1227 -1.7470 -0.6459
   73SLPC   O31 6415   6.386   1.456  10.441  0.0419  0.6894 -0.0991
   73SLPC   C31 6416   6.448   1.343  10.389 -0.1435  0.1185 -1.3577
   73SLPC   O32 6417   6.410   1.235  10.406  0.2604  0.0365  0.2209
   73SLPC   C32 6418   6.557   1.384  10.292  0.0080 -0.1228  0.3640
   73SLPC   H2X 6419   6.599   1.287  10.260  0.2013 -0.2243  0.9056
   73SLPC   H2Y 6420   6.631   1.450  10.343 -0.2478  0.6762 -0.2727
   73SLPC   C23 6421   6.194   1.874  10.180  0.8786 -0.0675 -0.7239
   73SLPC   H3R 6422   6.303   1.889  10.195  1.0467 -2.0652  0.5300
   73SLPC   H3S 6423   6.137   1.950  10.238  0.5193 -0.0923 -1.0411
   73SLPC   C24 6424   6.148   1.903  10.034  0.1014 -0.4042 -0.3808
   73SLPC   H4R 6425   6.168   2.009  10.008  0.4284  0.3810  2.6681
   73SLPC   H4S 6426   6.038   1.891  10.035 -0.4722  3.6072  0.7307
   73SLPC   C25 6427   6.215   1.808   9.943  0.1024  0.1399  0.8975
   73SLPC   H5R 6428   6.167   1.709   9.955 -0.6859  0.3090 -0.6039
   73SLPC   H5S 6429   6.323   1.793   9.965  0.3713 -0.6981 -0.8338
   73SLPC   C26 6430   6.210   1.844   9.791  0.5372 -0.2814 -1.2067
   73SLPC   H6R 6431   6.104   1.862   9.762  0.1511  2.7989  1.5658
   73SLPC   H6S 6432   6.250   1.756   9.736  2.1296  0.4189 -1.2074
   73SLPC   C27 6433   6.279   1.977   9.758 -1.4240  0.4402  0.1265
   73SLPC   H7R 6434   6.376   2.003   9.805 -1.1184  0.3610 -0.4476
   73SLPC   H7S 6435   6.199   2.049   9.783  0.0886  2.8286 -1.4326
   73SLPC   C28 6436   6.288   1.984   9.606 -0.3748 -0.0727  0.8793
   73SLPC   H8R 6437   6.305   2.092   9.582 -0.2987 -0.1423  0.6053
   73SLPC   H8S 6438   6.191   1.961   9.558  0.9509 -0.5475 -1.7957
   73SLPC   C29 6439   6.394   1.897   9.539  0.1596 -0.2715 -0.5646
   73SLPC   H9R 6440   6.460   1.842   9.607  0.2811  1.1161  0.4849
   73SLPC  C210 6441   6.405   1.872   9.408 -0.0817  0.3649 -0.3314
   73SLPC  H10R 6442   6.495   1.813   9.385 -0.3094 -0.5771  1.1082
   73SLPC  C211 6443   6.320   1.905   9.288  0.2622  0.0065 -0.6224
   73SLPC  H11R 6444   6.238   1.971   9.324  1.0697  0.5979  0.1822
   73SLPC  H11S 6445   6.279   1.809   9.251  2.9433 -1.9009  0.9642
   73SLPC  C212 6446   6.387   1.980   9.173  0.6879  0.6400  0.8631
   73SLPC  H12R 6447   6.408   2.086   9.195  1.4473  0.7684 -0.4226
   73SLPC  C213 6448   6.416   1.938   9.047  0.7027  0.4355  0.0548
   73SLPC  H13R 6449   6.473   2.005   8.980 -0.6725  0.4599 -1.1363
   73SLPC  C214 6450   6.394   1.801   8.977 -0.8077  0.3446  0.3860
   73SLPC  H14R 6451   6.371   1.714   9.041 -1.6875  0.2598 -0.0281
   73SLPC  H14S 6452   6.482   1.771   8.916  0.6172  0.6463  2.2011
   73SLPC  C215 6453   6.264   1.806   8.886 -0.8757 -0.1850  0.5877
   73SLPC  H15R 6454   6.170   1.803   8.945 -2.6433  0.7306 -2.0416
   73SLPC  H15S 6455   6.278   1.713   8.827  0.9301  0.0020  0.6524
   73SLPC  C216 6456   6.253   1.920   8.788  0.7628 -0.1756 -0.1605
   73SLPC  H16R 6457   6.273   2.016   8.840  2.2589 -0.1024 -0.8173
   73SLPC  H16S 6458   6.154   1.940   8.742  1.5271  1.7934 -1.0445
   73SLPC  C217 6459   6.364   1.923   8.678  0.2174  0.1677 -0.2331
   73SLPC  H17R 6460   6.375   1.822   8.634 -2.3637 -0.6309  0.7666
   73SLPC  H17S 6461   6.456   1.969   8.720  0.5451 -0.0098 -0.7442
   73SLPC  C218 6462   6.324   2.016   8.559 -0.4214  0.6832  0.4067
   73SLPC  H18R 6463   6.273   2.106   8.598  0.5449  0.2332  2.8350
   73SLPC  H18S 6464   6.268   1.951   8.488  0.8487  0.9091 -0.8432
   73SLPC  H18T 6465   6.412   2.038   8.494  0.4260 -0.0538  1.2847
   73SLPC   C33 6466   6.506   1.462  10.171 -0.5937  0.3422  0.3871
   73SLPC   H3X 6467   6.599   1.506  10.131  0.7148 -1.2329  1.5341
   73SLPC   H3Y 6468   6.427   1.534  10.201 -3.1368 -2.1557  0.1869
   73SLPC   C34 6469   6.451   1.365  10.062  0.1335  0.0570 -0.1963
   73SLPC   H4X 6470   6.367   1.307  10.106 -2.8155  3.2192 -1.1696
   73SLPC   H4Y 6471   6.544   1.307  10.044  0.8190  0.5996  1.4151
   73SLPC   C35 6472   6.394   1.441   9.939  1.0828  0.0589  0.0924
   73SLPC   H5X 6473   6.352   1.538   9.974 -1.6534 -1.1544  0.3932
   73SLPC   H5Y 6474   6.308   1.397   9.884  0.7895  1.0016 -0.2208
   73SLPC   C36 6475   6.497   1.459   9.830  0.0830  0.4534 -0.2943
   73SLPC   H6X 6476   6.519   1.352   9.811 -1.7325 -0.2072  1.0779
   73SLPC   H6Y 6477   6.590   1.500   9.875 -1.0921  2.0509  0.8057
   73SLPC   C37 6478   6.455   1.533   9.701 -0.1355 -0.1203 -1.2591
   73SLPC   H7X 6479   6.454   1.642   9.724  3.3483 -0.6129  2.3661
   73SLPC   H7Y 6480   6.352   1.494   9.687 -0.6325  0.6784 -0.0077
   73SLPC   C38 6481   6.528   1.488   9.574 -0.1739 -0.4409 -0.3491
   73SLPC   H8X 6482   6.539   1.377   9.565 -0.7861 -0.6304  1.0178
   73SLPC   H8Y 6483   6.632   1.522   9.588 -0.4470 -0.1334  1.0227
   73SLPC   C39 6484   6.471   1.547   9.444 -0.3949 -0.0882  0.5429
   73SLPC   H9X 6485   6.553   1.607   9.400  1.1600  0.1398  3.5168
   73SLPC   H9Y 6486   6.389   1.617   9.470 -0.5252 -0.1356  0.2657
   73SLPC  C310 6487   6.415   1.426   9.359  0.0778  0.2270 -0.1979
   73SLPC  H10X 6488   6.319   1.387   9.401 -0.1417 -0.5764 -1.3927
   73SLPC  H10Y 6489   6.478   1.335   9.371  1.7065  1.1673 -1.2339
   73SLPC  C311 6490   6.405   1.458   9.210  0.0399 -0.0541  0.4726
   73SLPC  H11X 6491   6.502   1.496   9.170  0.0010 -2.5697 -2.3689
   73SLPC  H11Y 6492   6.330   1.539   9.198  1.1345  0.8288 -0.7241
   73SLPC  C312 6493   6.374   1.334   9.119  1.5417 -0.6640 -0.7336
   73SLPC  H12X 6494   6.281   1.292   9.163  1.0676  1.4469  0.3787
   73SLPC  H12Y 6495   6.454   1.257   9.125 -0.0850 -2.5928 -2.2799
   73SLPC  C313 6496   6.337   1.368   8.975  0.1891 -0.4386 -0.3938
   73SLPC  H13X 6497   6.278   1.462   8.974  0.5146 -0.0406  3.2782
   73SLPC  H13Y 6498   6.282   1.286   8.924 -1.8029 -0.1708  1.2226
   73SLPC  C314 6499   6.464   1.384   8.886  0.5853  0.0241 -0.2884
   73SLPC  H14X 6500   6.516   1.286   8.878  1.8009  0.5338  0.9015
   73SLPC  H14Y 6501   6.531   1.462   8.929  0.9413 -0.6781  0.4513
   73SLPC  C315 6502   6.418   1.433   8.747 -0.5275 -0.9496 -0.2626
   73SLPC  H15X 6503   6.397   1.540   8.764  1.6010 -0.4422 -0.5360
   73SLPC  H15Y 6504   6.319   1.394   8.715 -0.9366  1.7015 -2.5912
   73SLPC  C316 6505   6.509   1.424   8.627  0.6184  0.5650  0.1974
   73SLPC  H16X 6506   6.527   1.317   8.604  0.0419  0.0901  1.7742
   73SLPC  H16Y 6507   6.604   1.478   8.645  1.5856 -1.2363  0.8048
   73SLPC  C317 6508   6.434   1.497   8.507  0.5536 -0.3558 -0.6879
   73SLPC  H17X 6509   6.420   1.602   8.539  0.7286 -0.3252 -0.7101
   73SLPC  H17Y 6510   6.338   1.444   8.487  1.0184 -1.1123 -0.9535
   73SLPC  C318 6511   6.527   1.505   8.383  0.2440 -0.3024 -0.3988
   73SLPC  H18X 6512   6.623   1.558   8.400  0.0100  0.1789 -0.5560
   73SLPC  H18Y 6513   6.477   1.556   8.298 -1.6699  1.0978  1.4719
   73SLPC  H18Z 6514   6.544   1.401   8.348 -3.0035 -1.8159  2.0234
   74SLPC     N 6515   0.364   2.312  10.453 -0.0590  0.4328  0.3779
   74SLPC   C13 6516   0.495   2.393  10.445 -0.6199 -0.1360  1.0105
   74SLPC  H13A 6517   0.522   2.409  10.341  0.8918 -2.3400  0.9993
   74SLPC  H13B 6518   0.470   2.483  10.499 -0.7740 -0.3418  1.2836
   74SLPC  H13C 6519   0.578   2.353  10.501  1.1027  2.8322  0.8261
   74SLPC   C14 6520   0.337   2.286  10.597 -0.5248  0.5288 -0.2902
   74SLPC  H14A 6521   0.253   2.219  10.609 -0.3407 -0.1186 -2.2098
   74SLPC  H14B 6522   0.420   2.229  10.636 -0.6933  1.3563  1.3355
   74SLPC  H14C 6523   0.321   2.372  10.660 -0.8841 -0.5301  1.1278
   74SLPC   C15 6524   0.398   2.182  10.386 -0.1374 -0.1411 -0.2997
   74SLPC  H15A 6525   0.477   2.130  10.438  0.6661  1.5542  0.2212
   74SLPC  H15B 6526   0.316   2.111  10.383 -0.1472 -0.1331 -0.2306
   74SLPC  H15C 6527   0.428   2.206  10.285 -0.7787  1.7428 -0.0785
   74SLPC   C12 6528   0.253   2.373  10.375 -0.5185  0.3065  0.4106
   74SLPC  H12A 6529   0.293   2.405  10.280 -0.4995 -0.6523  0.0855
   74SLPC  H12B 6530   0.229   2.467  10.422  1.2463  0.6090  0.7577
   74SLPC   C11 6531   0.119   2.294  10.346  0.3209 -0.2901 -0.2518
   74SLPC  H11A 6532   0.130   2.204  10.282  0.1556  0.5509 -1.5132
   74SLPC  H11B 6533   0.054   2.367  10.293 -0.3866  0.7793  1.9571
   74SLPC     P 6534  -0.036   2.362  10.549 -0.3376  0.6912 -0.0662
   74SLPC   O13 6535  -0.052   2.329  10.693  0.4684  0.5005 -0.5549
   74SLPC   O14 6536   0.021   2.494  10.522 -0.5948 -0.1774  0.1062
   74SLPC   O12 6537   0.060   2.259  10.473  0.4990 -0.2761 -0.2883
   74SLPC   O11 6538  -0.172   2.351  10.500  0.7760 -0.0452  0.7104
   74SLPC    C1 6539  -0.228   2.216  10.484 -0.3738  0.4423  0.5727
   74SLPC    HA 6540  -0.160   2.135  10.517  1.6381  1.3382 -1.1049
   74SLPC    HB 6541  -0.330   2.214  10.528 -0.8602  1.5701 -0.4343
   74SLPC    C2 6542  -0.244   2.183  10.336  0.2875  0.5028  0.1692
   74SLPC    HS 6543  -0.154   2.209  10.276 -0.6988 -0.9950 -2.1046
   74SLPC   O21 6544  -0.357   2.253  10.283  0.2159 -0.1691 -0.4342
   74SLPC   C21 6545  -0.351   2.271  10.150 -0.2177  0.0623  0.1585
   74SLPC   O22 6546  -0.269   2.232  10.074  0.4364  0.1836  0.4191
   74SLPC   C22 6547  -0.469   2.363  10.114 -0.2706  0.3340  0.7577
   74SLPC   H2R 6548  -0.549   2.354  10.191 -0.3236  0.8125  0.7664
   74SLPC   H2S 6549  -0.442   2.470  10.100 -2.3766  0.6195 -1.8695
   74SLPC    C3 6550  -0.270   2.030  10.321 -0.7149  0.6769 -0.4439
   74SLPC    HX 6551  -0.362   2.005  10.379 -0.8962 -0.0822 -1.0484
   74SLPC    HY 6552  -0.183   1.988  10.375 -2.1246 -1.1282  0.5622
   74SLPC   O31 6553  -0.271   1.961  10.193  0.1203  0.2948  0.0012
   74SLPC   C31 6554  -0.154   1.918  10.141 -0.8196  0.6413 -0.1583
   74SLPC   O32 6555  -0.047   1.942  10.195 -0.0023  0.1790  0.1367
   74SLPC   C32 6556  -0.183   1.858  10.013  0.2113 -0.0715  0.1184
   74SLPC   H2X 6557  -0.259   1.917   9.957  1.4667  1.2403 -0.2539
   74SLPC   H2Y 6558  -0.237   1.762  10.030 -0.1949  0.3323  1.1823
   74SLPC   C23 6559  -0.547   2.326   9.981 -0.0102  0.4155  0.1206
   74SLPC   H3R 6560  -0.579   2.220   9.988 -0.6336  0.5115 -1.1853
   74SLPC   H3S 6561  -0.476   2.328   9.896 -0.3506 -2.0982 -0.3120
   74SLPC   C24 6562  -0.667   2.419   9.952  0.1100 -0.6169  0.0663
   74SLPC   H4R 6563  -0.621   2.519   9.968 -0.0543 -0.7759  1.7278
   74SLPC   H4S 6564  -0.736   2.397  10.036  0.3496 -1.7878 -0.0238
   74SLPC   C25 6565  -0.719   2.384   9.812 -0.1775 -0.4156 -0.3021
   74SLPC   H5R 6566  -0.819   2.428   9.795  0.7596  1.4241 -1.2804
   74SLPC   H5S 6567  -0.721   2.275   9.794  1.0119 -0.2612 -1.4418
   74SLPC   C26 6568  -0.642   2.461   9.698  0.5438  0.3013 -0.3863
   74SLPC   H6R 6569  -0.534   2.456   9.722  0.3540  1.1952  0.7822
   74SLPC   H6S 6570  -0.690   2.561   9.711 -2.2501 -0.9108 -0.5574
   74SLPC   C27 6571  -0.680   2.380   9.573 -0.4693  0.2200  0.1451
   74SLPC   H7R 6572  -0.791   2.382   9.563 -0.4331 -0.6515 -0.5461
   74SLPC   H7S 6573  -0.643   2.280   9.603  2.1277  0.9206 -0.4455
   74SLPC   C28 6574  -0.599   2.435   9.451  0.0813  0.2549 -0.0801
   74SLPC   H8R 6575  -0.494   2.411   9.477 -0.8727 -0.8385  3.2440
   74SLPC   H8S 6576  -0.621   2.543   9.437  0.3139  0.1227 -1.6402
   74SLPC   C29 6577  -0.636   2.362   9.328 -0.7410  0.1321 -0.1328
   74SLPC   H9R 6578  -0.639   2.252   9.338 -2.4976  0.2571  1.1699
   74SLPC  C210 6579  -0.667   2.421   9.207 -0.6427 -0.2980  0.0037
   74SLPC  H10R 6580  -0.696   2.356   9.123  1.6244 -2.0283  0.4446
   74SLPC  C211 6581  -0.664   2.570   9.174 -0.3516  0.5696 -0.0769
   74SLPC  H11R 6582  -0.656   2.624   9.271 -0.3190  1.5163 -0.5917
   74SLPC  H11S 6583  -0.757   2.596   9.121 -0.2564  1.3363  0.1185
   74SLPC  C212 6584  -0.537   2.606   9.098 -0.5335 -0.1052 -0.2083
   74SLPC  H12R 6585  -0.453   2.632   9.163 -0.8854  0.3163  0.0864
   74SLPC  C213 6586  -0.512   2.623   8.968  0.1561  0.4772  0.9122
   74SLPC  H13R 6587  -0.410   2.646   8.934  0.1647 -0.5997  0.1536
   74SLPC  C214 6588  -0.605   2.600   8.852 -0.1954 -0.4414  0.4436
   74SLPC  H14R 6589  -0.689   2.672   8.864 -1.2910 -1.8528  1.3898
   74SLPC  H14S 6590  -0.641   2.496   8.856  2.4847 -1.5237 -1.0197
   74SLPC  C215 6591  -0.559   2.616   8.702  0.6438  0.1790 -0.1847
   74SLPC  H15R 6592  -0.643   2.588   8.635  0.9967 -2.3757  0.3116
   74SLPC  H15S 6593  -0.496   2.526   8.682  1.6681  0.3984  1.8102
   74SLPC  C216 6594  -0.498   2.751   8.656  0.2566  0.1590  0.4262
   74SLPC  H16R 6595  -0.388   2.741   8.645  0.1059 -0.2234 -0.8861
   74SLPC  H16S 6596  -0.525   2.840   8.717 -0.3115  0.1049  0.2580
   74SLPC  C217 6597  -0.547   2.780   8.514  0.1094 -0.0943  0.1242
   74SLPC  H17R 6598  -0.573   2.684   8.465 -2.2387  0.1291  0.8224
   74SLPC  H17S 6599  -0.454   2.812   8.462 -0.3553 -0.8894 -1.2251
   74SLPC  C218 6600  -0.660   2.881   8.495 -0.3939 -0.3351  0.1282
   74SLPC  H18R 6601  -0.650   2.921   8.392  1.2159 -0.8428  0.0610
   74SLPC  H18S 6602  -0.642   2.969   8.560  0.6233  1.4110 -2.3487
   74SLPC  H18T 6603  -0.754   2.832   8.528  0.0800 -1.3239  0.0365
   74SLPC   C33 6604  -0.066   1.825   9.916 -0.6654 -0.1100  0.3054
   74SLPC   H3X 6605  -0.007   1.736   9.947 -0.6922 -0.8889 -1.7360
   74SLPC   H3Y 6606   0.005   1.910   9.913  0.8032 -1.1963  2.0218
   74SLPC   C34 6607  -0.107   1.823   9.767 -0.3320  0.2639 -0.3789
   74SLPC   H4X 6608  -0.139   1.920   9.724  1.5631  1.1754  0.1376
   74SLPC   H4Y 6609  -0.187   1.747   9.759 -0.6928  0.2768  2.2094
   74SLPC   C35 6610   0.014   1.786   9.678 -0.0545  0.3898 -0.4678
   74SLPC   H5X 6611   0.050   1.685   9.707 -0.8715  0.0307 -0.6760
   74SLPC   H5Y 6612   0.100   1.854   9.697 -0.1924  1.1335 -2.2677
   74SLPC   C36 6613  -0.018   1.777   9.534  0.4584  0.3167  0.0306
   74SLPC   H6X 6614  -0.061   1.872   9.496 -0.7604  1.2621  3.3715
   74SLPC   H6Y 6615  -0.103   1.705   9.532 -0.7843  1.7083 -2.3725
   74SLPC   C37 6616   0.105   1.730   9.461  0.1660  0.2981  0.7343
   74SLPC   H7X 6617   0.133   1.628   9.494  0.0136 -1.1758 -3.1662
   74SLPC   H7Y 6618   0.187   1.800   9.486  0.7783 -0.4703  0.9105
   74SLPC   C38 6619   0.097   1.735   9.307  0.7583  0.8433  0.1769
   74SLPC   H8X 6620   0.192   1.695   9.267 -0.1047 -2.3381  0.9682
   74SLPC   H8Y 6621   0.074   1.841   9.282  3.2007  1.3959  0.1011
   74SLPC   C39 6622  -0.006   1.644   9.249 -0.1144 -0.2298 -0.1258
   74SLPC   H9X 6623  -0.103   1.691   9.278  0.4925  1.8240 -1.2183
   74SLPC   H9Y 6624   0.014   1.549   9.303  1.4267  0.7016  1.0571
   74SLPC  C310 6625  -0.009   1.614   9.100 -0.3999 -0.5663  0.7754
   74SLPC  H10X 6626  -0.106   1.564   9.082  0.2316 -1.9373  1.0763
   74SLPC  H10Y 6627   0.065   1.536   9.073 -1.2831 -1.4880  0.9702
   74SLPC  C311 6628  -0.014   1.740   9.007 -0.4104  0.1733  0.0159
   74SLPC  H11X 6629   0.093   1.769   9.004 -0.4242  0.1637 -0.7857
   74SLPC  H11Y 6630  -0.086   1.810   9.054 -1.3507 -0.5897 -0.2620
   74SLPC  C312 6631  -0.056   1.704   8.865 -0.1544 -0.2303  0.7389
   74SLPC  H12X 6632  -0.140   1.632   8.857 -0.1708 -0.2383  0.9643
   74SLPC  H12Y 6633   0.032   1.653   8.819 -0.3443 -1.9774  2.2009
   74SLPC  C313 6634  -0.072   1.823   8.776  0.1293  0.4348 -0.0863
   74SLPC  H13X 6635   0.026   1.875   8.784 -0.3548  0.9904  3.8368
   74SLPC  H13Y 6636  -0.159   1.881   8.813 -1.3446 -1.8251  0.2269
   74SLPC  C314 6637  -0.112   1.786   8.632 -0.4190  0.1653  0.7213
   74SLPC  H14X 6638  -0.216   1.748   8.642 -0.3941 -1.0964 -2.5920
   74SLPC  H14Y 6639  -0.049   1.703   8.593 -0.0797  1.0374 -0.6846
   74SLPC  C315 6640  -0.109   1.904   8.529  0.6491  0.5563  0.2519
   74SLPC  H15X 6641  -0.178   1.987   8.558  0.3858 -0.3616  2.4945
   74SLPC  H15Y 6642  -0.153   1.855   8.440  0.1495 -3.1566  2.3280
   74SLPC  C316 6643   0.018   1.983   8.512  0.1828  0.2081 -0.0110
   74SLPC  H16X 6644   0.108   1.919   8.497  0.3961  0.2490  1.0042
   74SLPC  H16Y 6645   0.029   2.032   8.611  1.8812  1.2360 -0.6525
   74SLPC  C317 6646   0.019   2.094   8.412  0.0178  0.4246  0.4209
   74SLPC  H17X 6647   0.110   2.155   8.429 -0.0563  1.1369 -1.4366
   74SLPC  H17Y 6648  -0.060   2.171   8.431  1.1998  1.6936  0.3372
   74SLPC  C318 6649   0.014   2.049   8.267  0.3571 -0.6736 -0.3234
   74SLPC  H18X 6650   0.097   1.979   8.244  0.3994 -0.4021 -1.0136
   74SLPC  H18Y 6651   0.022   2.146   8.214 -2.5931  0.6150  1.3433
   74SLPC  H18Z 6652  -0.078   1.988   8.251 -0.4442 -0.2922  2.3042
   75SLPC     N 6653   3.415   6.075   6.222 -0.9284 -0.8799  0.6913
   75SLPC   C13 6654   3.562   6.127   6.216 -0.0827  0.0908 -0.2846
   75SLPC  H13A 6655   3.589   6.112   6.320 -2.1890  1.0910  0.4696
   75SLPC  H13B 6656   3.625   6.077   6.144  0.6656 -0.8604  0.9793
   75SLPC  H13C 6657   3.562   6.233   6.200  0.7028  0.7721  3.2489
   75SLPC   C14 6658   3.359   6.039   6.085  0.1482  0.1718  0.2436
   75SLPC  H14A 6659   3.402   5.955   6.032 -1.7502  0.5251 -2.0273
   75SLPC  H14B 6660   3.254   6.017   6.086 -0.1240  1.2478 -1.3347
   75SLPC  H14C 6661   3.365   6.124   6.018 -0.2593  0.3602  0.4472
   75SLPC   C15 6662   3.324   6.179   6.275 -0.2135  0.5195  0.5280
   75SLPC  H15A 6663   3.305   6.259   6.205  0.8723 -0.4322 -0.9093
   75SLPC  H15B 6664   3.227   6.148   6.310  0.0635 -0.2037  0.6675
   75SLPC  H15C 6665   3.371   6.222   6.362  0.7748 -0.2957  0.4126
   75SLPC   C12 6666   3.413   5.945   6.302 -0.3272 -0.6184  0.2026
   75SLPC  H12A 6667   3.495   5.885   6.264  0.2469  0.3059 -0.0358
   75SLPC  H12B 6668   3.317   5.899   6.285  0.1466 -1.3115 -0.6641
   75SLPC   C11 6669   3.433   5.949   6.457 -1.0130  0.6553  0.0149
   75SLPC  H11A 6670   3.422   5.844   6.492  0.4823  0.7356  0.8217
   75SLPC  H11B 6671   3.348   6.012   6.491 -1.7749  0.6918 -1.8914
   75SLPC     P 6672   3.686   5.931   6.481 -0.1415 -0.4839 -0.5223
   75SLPC   O13 6673   3.682   5.848   6.357  0.0734  0.6019 -0.4930
   75SLPC   O14 6674   3.798   6.030   6.485 -0.2060  0.2503  0.0236
   75SLPC   O12 6675   3.551   6.015   6.504  0.2941  0.3785  0.0199
   75SLPC   O11 6676   3.698   5.835   6.605  0.0448  0.4622  0.1687
   75SLPC    C1 6677   3.668   5.893   6.735 -0.0293 -0.1593 -0.1365
   75SLPC    HA 6678   3.761   5.938   6.774 -0.8546 -0.5180  2.5269
   75SLPC    HB 6679   3.595   5.977   6.739  1.1931  0.9123  0.3939
   75SLPC    C2 6680   3.607   5.788   6.832 -1.1333 -0.3648  0.2625
   75SLPC    HS 6681   3.544   5.845   6.904 -2.0626 -0.7487 -0.2194
   75SLPC   O21 6682   3.706   5.709   6.900 -0.0563 -0.5039  0.5258
   75SLPC   C21 6683   3.760   5.763   6.997  0.4428 -0.1369 -0.3816
   75SLPC   O22 6684   3.744   5.878   7.040 -0.5009  0.6427 -0.1251
   75SLPC   C22 6685   3.861   5.663   7.062  0.1837 -0.2570  0.3982
   75SLPC   H2R 6686   3.843   5.567   7.009 -2.6992  0.7928 -0.7047
   75SLPC   H2S 6687   3.960   5.701   7.029  0.4379 -1.9697 -0.9664
   75SLPC    C3 6688   3.514   5.680   6.761  0.0741 -0.9382 -0.1689
   75SLPC    HX 6689   3.580   5.646   6.678 -1.2342  2.3566 -2.7851
   75SLPC    HY 6690   3.436   5.742   6.711 -0.4949 -0.0709  1.6916
   75SLPC   O31 6691   3.463   5.582   6.853  0.5007  0.4034  0.2923
   75SLPC   C31 6692   3.362   5.506   6.802  0.4751  0.0976  0.5889
   75SLPC   O32 6693   3.332   5.505   6.685 -0.2051 -0.3695  0.2467
   75SLPC   C32 6694   3.307   5.415   6.915 -0.2215  0.3075  0.8538
   75SLPC   H2X 6695   3.361   5.445   7.008  2.4539 -2.0804  0.2009
   75SLPC   H2Y 6696   3.338   5.312   6.888  3.3713  1.1881  1.1135
   75SLPC   C23 6697   3.845   5.657   7.219 -0.5770 -0.3001  0.0314
   75SLPC   H3R 6698   3.743   5.624   7.247 -2.2748  3.3866 -1.1400
   75SLPC   H3S 6699   3.852   5.762   7.255  0.8739  0.5012 -2.3390
   75SLPC   C24 6700   3.953   5.569   7.289  1.2348 -0.5306 -0.9144
   75SLPC   H4R 6701   4.056   5.599   7.260  1.3235  0.8215  0.6698
   75SLPC   H4S 6702   3.932   5.467   7.250  0.4375 -1.4571  1.7063
   75SLPC   C25 6703   3.947   5.554   7.438 -0.2009  0.5588 -0.0681
   75SLPC   H5R 6704   3.988   5.645   7.488  0.8750  0.5980 -0.9723
   75SLPC   H5S 6705   4.019   5.476   7.469 -0.0545  1.4034  1.8241
   75SLPC   C26 6706   3.808   5.526   7.498  0.9031 -0.3431  0.5049
   75SLPC   H6R 6707   3.750   5.445   7.448  1.1522 -0.3916  0.2924
   75SLPC   H6S 6708   3.748   5.617   7.476  0.9026 -0.7734 -1.5563
   75SLPC   C27 6709   3.816   5.517   7.653  0.5502  0.9823  0.3588
   75SLPC   H7R 6710   3.921   5.547   7.676  0.6718  1.2536 -0.4905
   75SLPC   H7S 6711   3.803   5.411   7.682  1.4106  0.4486 -1.0834
   75SLPC   C28 6712   3.689   5.584   7.712  0.3692  0.2352  0.0226
   75SLPC   H8R 6713   3.609   5.533   7.655 -0.2574 -0.2356  1.2783
   75SLPC   H8S 6714   3.705   5.691   7.685 -0.2973  0.0632 -1.0925
   75SLPC   C29 6715   3.648   5.568   7.854 -0.3234  0.3534  0.2875
   75SLPC   H9R 6716   3.736   5.545   7.917  0.9953  1.4737 -1.0609
   75SLPC  C210 6717   3.521   5.562   7.901  0.9080  0.7826  0.6095
   75SLPC  H10R 6718   3.498   5.555   8.009 -1.8199 -1.7923 -0.0084
   75SLPC  C211 6719   3.397   5.597   7.817  0.0593 -0.5376 -0.0153
   75SLPC  H11R 6720   3.326   5.511   7.825 -2.4665  1.4932  0.8692
   75SLPC  H11S 6721   3.424   5.607   7.710  1.5428  1.1750  0.4849
   75SLPC  C212 6722   3.325   5.718   7.873  0.1098  0.9744  0.7608
   75SLPC  H12R 6723   3.263   5.692   7.960  0.7939 -2.7139  0.3048
   75SLPC  C213 6724   3.333   5.840   7.823  0.2767 -0.1718  0.0940
   75SLPC  H13R 6725   3.275   5.912   7.882  1.3530 -1.1377  2.4449
   75SLPC  C214 6726   3.418   5.909   7.716  0.1864  0.4780 -0.3327
   75SLPC  H14R 6727   3.523   5.888   7.743 -0.2391  1.4399  2.3979
   75SLPC  H14S 6728   3.411   6.020   7.715  1.7717  0.6313  0.9269
   75SLPC  C215 6729   3.387   5.861   7.577  0.0007  0.1112 -0.7531
   75SLPC  H15R 6730   3.280   5.888   7.568  0.4173  1.4389 -2.0948
   75SLPC  H15S 6731   3.412   5.754   7.561  2.0133  0.0826  1.8842
   75SLPC  C216 6732   3.464   5.944   7.476 -0.5899  0.3050 -0.4701
   75SLPC  H16R 6733   3.456   6.049   7.509  1.2060  0.0400  0.9855
   75SLPC  H16S 6734   3.419   5.917   7.378 -2.0140 -2.5130  0.8471
   75SLPC  C217 6735   3.613   5.933   7.472  0.0891 -0.6472 -0.4398
   75SLPC  H17R 6736   3.644   5.831   7.442  1.7607 -0.3034 -0.0297
   75SLPC  H17S 6737   3.647   5.963   7.574  1.3530  0.1811 -1.0769
   75SLPC  C218 6738   3.681   6.035   7.376  0.2917  0.5060  0.4793
   75SLPC  H18R 6739   3.631   6.015   7.278 -0.2425 -0.8822  1.0032
   75SLPC  H18S 6740   3.789   6.011   7.365  0.1641  0.9170 -2.3708
   75SLPC  H18T 6741   3.670   6.142   7.403 -1.0709  0.0864  1.7309
   75SLPC   C33 6742   3.157   5.425   6.915  0.2444  0.0838  1.2036
   75SLPC   H3X 6743   3.132   5.533   6.927  0.2377  0.6384 -2.4581
   75SLPC   H3Y 6744   3.126   5.399   6.811 -0.1772  1.3282  1.0065
   75SLPC   C34 6745   3.084   5.329   7.002  0.1285  0.6636 -0.7385
   75SLPC   H4X 6746   2.975   5.324   6.979 -0.1335 -0.2659  0.5919
   75SLPC   H4Y 6747   3.086   5.359   7.109 -0.7769  1.3695 -0.9030
   75SLPC   C35 6748   3.125   5.180   7.012 -1.1875  0.2342  0.4430
   75SLPC   H5X 6749   3.234   5.171   7.030 -0.4425 -0.9857 -3.6828
   75SLPC   H5Y 6750   3.102   5.131   6.915  0.8540  2.3104 -1.1846
   75SLPC   C36 6751   3.055   5.113   7.133 -0.5071 -0.1881 -0.3945
   75SLPC   H6X 6752   2.949   5.117   7.098 -0.8122  1.0231  0.5880
   75SLPC   H6Y 6753   3.079   5.175   7.222  0.7319 -0.3041 -0.6399
   75SLPC   C37 6754   3.097   4.968   7.159 -0.4033  0.7569 -0.9354
   75SLPC   H7X 6755   3.207   4.951   7.157 -0.7056 -1.9880  0.4186
   75SLPC   H7Y 6756   3.084   4.899   7.073 -0.2815 -2.1841  1.2499
   75SLPC   C38 6757   3.046   4.892   7.283  0.3617 -0.5081  0.1123
   75SLPC   H8X 6758   3.077   4.785   7.279  2.1138  0.0118 -1.1261
   75SLPC   H8Y 6759   2.935   4.893   7.284  0.3457  0.0292 -1.0542
   75SLPC   C39 6760   3.085   4.962   7.416 -0.2186  0.7660  0.0800
   75SLPC   H9X 6761   3.063   5.071   7.410 -0.9776  0.6118  0.0679
   75SLPC   H9Y 6762   3.195   4.944   7.414 -0.2197  0.6611 -3.0640
   75SLPC  C310 6763   3.039   4.887   7.539  0.3736  1.2234 -0.6140
   75SLPC  H10X 6764   3.101   4.795   7.529 -2.0551 -0.5208 -0.5703
   75SLPC  H10Y 6765   2.933   4.857   7.521  0.3212  1.9849 -1.6077
   75SLPC  C311 6766   3.081   4.951   7.670 -0.4502 -0.0185 -0.4104
   75SLPC  H11X 6767   3.012   5.033   7.698  1.0578  0.9780  0.5256
   75SLPC  H11Y 6768   3.165   5.012   7.629 -0.9034  1.4121  0.7304
   75SLPC  C312 6769   3.119   4.858   7.787  0.1884  0.4332 -0.1345
   75SLPC  H12X 6770   3.212   4.900   7.831  0.2610  0.2395 -0.1028
   75SLPC  H12Y 6771   3.144   4.760   7.741  1.4229  1.5141 -1.9115
   75SLPC  C313 6772   3.008   4.846   7.895  0.1736  0.1508  0.1149
   75SLPC  H13X 6773   2.905   4.819   7.864  0.5188 -0.4686 -0.5347
   75SLPC  H13Y 6774   3.005   4.948   7.940 -0.8836  1.8455 -3.4003
   75SLPC  C314 6775   3.035   4.745   8.007 -0.6261 -0.0400 -0.7034
   75SLPC  H14X 6776   3.141   4.753   8.041 -1.0055 -1.0000  0.8318
   75SLPC  H14Y 6777   3.028   4.640   7.973 -4.3439 -0.3056  0.4856
   75SLPC  C315 6778   2.948   4.762   8.128 -0.0607  0.3567 -0.3128
   75SLPC  H15X 6779   2.904   4.864   8.139  0.1302  0.3152  1.0190
   75SLPC  H15Y 6780   3.018   4.752   8.214  1.6787 -1.5661 -1.8771
   75SLPC  C316 6781   2.838   4.655   8.153 -0.6169 -0.0150  0.4018
   75SLPC  H16X 6782   2.800   4.625   8.053  2.6994 -1.2044 -0.6412
   75SLPC  H16Y 6783   2.755   4.698   8.212  1.1210  0.9723  2.2684
   75SLPC  C317 6784   2.893   4.522   8.218  0.1236 -0.0367  0.3236
   75SLPC  H17X 6785   2.943   4.550   8.313  0.7609 -2.0821  0.6581
   75SLPC  H17Y 6786   2.962   4.474   8.145 -1.3031  1.2681 -1.9856
   75SLPC  C318 6787   2.775   4.427   8.269  0.5054 -0.7423  0.0951
   75SLPC  H18X 6788   2.721   4.380   8.183 -0.2935 -0.4804  0.4463
   75SLPC  H18Y 6789   2.697   4.481   8.327  1.1118 -0.5293  0.7127
   75SLPC  H18Z 6790   2.810   4.347   8.338  0.3049  0.0022  1.0748
   76SLPC     N 6791   6.152   4.665   5.868 -0.2344  0.6857  0.5883
   76SLPC   C13 6792   6.280   4.709   5.794 -0.0931  0.2003  0.3216
   76SLPC  H13A 6793   6.289   4.817   5.798 -1.5170  0.3103  1.1343
   76SLPC  H13B 6794   6.366   4.666   5.843 -0.0379  1.9345  1.8871
   76SLPC  H13C 6795   6.272   4.676   5.691  0.4841  0.4006  0.2069
   76SLPC   C14 6796   6.137   4.518   5.857 -0.2148 -0.7390  0.3075
   76SLPC  H14A 6797   6.136   4.478   5.757  1.7142 -1.6781  0.6252
   76SLPC  H14B 6798   6.226   4.478   5.904  0.6727 -0.0540 -0.7473
   76SLPC  H14C 6799   6.054   4.483   5.917  0.8186 -0.7074  1.8132
   76SLPC   C15 6800   6.039   4.730   5.802  0.0471 -0.0375  0.1312
   76SLPC  H15A 6801   5.947   4.711   5.854 -0.1613  1.6461  0.4300
   76SLPC  H15B 6802   6.052   4.837   5.808 -2.5586  0.5466 -2.4721
   76SLPC  H15C 6803   6.027   4.702   5.699 -0.6344  1.2272 -0.1531
   76SLPC   C12 6804   6.167   4.710   6.011 -0.0979  0.3332 -0.8987
   76SLPC  H12A 6805   6.172   4.817   5.997 -1.3843  0.1558 -3.1537
   76SLPC  H12B 6806   6.262   4.679   6.051  0.0274  0.6839 -0.9159
   76SLPC   C11 6807   6.060   4.667   6.108 -0.1443 -0.6429 -0.2814
   76SLPC  H11A 6808   6.092   4.691   6.212  0.5196  1.4098 -0.9045
   76SLPC  H11B 6809   6.050   4.558   6.091  0.6607 -0.4000 -2.7238
   76SLPC     P 6810   5.796   4.669   6.090  0.2119  0.0654 -0.5541
   76SLPC   O13 6811   5.688   4.766   6.091 -0.1985  0.1077  0.1372
   76SLPC   O14 6812   5.790   4.559   5.985 -0.5533 -0.8781  0.1284
   76SLPC   O12 6813   5.938   4.742   6.079  0.3509 -0.4704 -0.1693
   76SLPC   O11 6814   5.800   4.602   6.232 -0.0831  0.2504 -0.1091
   76SLPC    C1 6815   5.681   4.542   6.294  0.3273 -0.6245 -0.2408
   76SLPC    HA 6816   5.590   4.548   6.230  0.4329 -0.8257 -0.4118
   76SLPC    HB 6817   5.700   4.433   6.301  0.7793 -0.6275 -1.3012
   76SLPC    C2 6818   5.662   4.604   6.432 -0.3337 -0.2259  0.2738
   76SLPC    HS 6819   5.640   4.708   6.400 -2.3891 -1.2486 -1.9648
   76SLPC   O21 6820   5.774   4.585   6.521  0.0039  0.4202  0.4673
   76SLPC   C21 6821   5.772   4.676   6.621 -0.1676 -0.0924  0.6182
   76SLPC   O22 6822   5.703   4.776   6.621  0.5500 -0.2381  0.4442
   76SLPC   C22 6823   5.883   4.641   6.729 -0.1778 -0.4805  0.6136
   76SLPC   H2R 6824   5.949   4.560   6.691 -0.8233 -0.1444 -1.3506
   76SLPC   H2S 6825   5.942   4.731   6.755  0.0590 -0.3441 -0.3814
   76SLPC    C3 6826   5.535   4.542   6.484 -0.1219 -0.4360 -0.3586
   76SLPC    HX 6827   5.572   4.447   6.527  1.4464  1.1235  1.9632
   76SLPC    HY 6828   5.467   4.515   6.400 -0.8982  1.7858 -0.5299
   76SLPC   O31 6829   5.465   4.622   6.587  0.1701 -0.2022  0.0424
   76SLPC   C31 6830   5.391   4.719   6.540 -0.7393 -0.2915  0.3301
   76SLPC   O32 6831   5.400   4.767   6.425  0.8495 -0.2382 -0.2648
   76SLPC   C32 6832   5.321   4.789   6.654  0.4535 -0.3658 -0.7999
   76SLPC   H2X 6833   5.282   4.880   6.605  3.0546  1.9989  1.1387
   76SLPC   H2Y 6834   5.392   4.834   6.727  0.4751  1.0303 -1.6595
   76SLPC   C23 6835   5.815   4.587   6.851  0.4020  0.0445  0.0837
   76SLPC   H3R 6836   5.776   4.486   6.826 -0.4335  0.0728  1.2145
   76SLPC   H3S 6837   5.723   4.644   6.877 -0.7371 -0.8457 -1.7960
   76SLPC   C24 6838   5.916   4.592   6.963  0.2800  1.0514 -0.5270
   76SLPC   H4R 6839   5.919   4.698   6.997 -0.6591  0.0039  3.3014
   76SLPC   H4S 6840   6.018   4.556   6.941  0.4302  1.5315 -0.6331
   76SLPC   C25 6841   5.865   4.504   7.079 -0.1794 -0.0305  0.3526
   76SLPC   H5R 6842   5.849   4.397   7.053 -2.8046  0.9943 -3.0134
   76SLPC   H5S 6843   5.764   4.530   7.116 -0.0395 -0.4665  1.0636
   76SLPC   C26 6844   5.961   4.531   7.190  0.5914  0.1701 -0.5503
   76SLPC   H6R 6845   5.941   4.620   7.252  2.8467 -0.9441  1.9717
   76SLPC   H6S 6846   6.062   4.553   7.150  0.7061  1.1424  0.2524
   76SLPC   C27 6847   5.967   4.414   7.290  0.2950  0.1676  0.1911
   76SLPC   H7R 6848   6.008   4.316   7.256  1.2145  0.4399  0.4805
   76SLPC   H7S 6849   5.872   4.386   7.339  0.0355  0.8517  0.1008
   76SLPC   C28 6850   6.055   4.439   7.415 -0.3802  1.4299  0.4336
   76SLPC   H8R 6851   6.059   4.338   7.461 -1.6520  1.1230 -0.0993
   76SLPC   H8S 6852   6.154   4.467   7.372  0.2498 -0.1830  0.7428
   76SLPC   C29 6853   6.000   4.544   7.495 -0.0260 -0.2312  0.0093
   76SLPC   H9R 6854   5.944   4.621   7.440  0.0240 -0.9068 -1.0143
   76SLPC  C210 6855   5.992   4.553   7.630  0.1684  0.6614 -0.1372
   76SLPC  H10R 6856   5.945   4.643   7.673 -3.8788 -1.1399 -0.2474
   76SLPC  C211 6857   6.041   4.442   7.732 -0.2398 -0.7335  0.2588
   76SLPC  H11R 6858   6.129   4.475   7.791 -1.7285  0.7189  1.7719
   76SLPC  H11S 6859   6.081   4.353   7.679 -0.1652 -0.6431  0.1647
   76SLPC  C212 6860   5.930   4.407   7.829  0.2859  1.0376  0.1276
   76SLPC  H12R 6861   5.856   4.330   7.804 -0.4711  1.8498 -0.1676
   76SLPC  C213 6862   5.910   4.460   7.951  0.0669  0.0361  0.0255
   76SLPC  H13R 6863   5.838   4.414   8.020 -0.2316  0.1435 -0.2117
   76SLPC  C214 6864   5.988   4.572   8.010 -0.1101 -0.0262  0.1558
   76SLPC  H14R 6865   5.922   4.638   8.071 -0.1045 -0.0639  0.2034
   76SLPC  H14S 6866   6.022   4.645   7.933 -0.2390 -0.3339 -0.1958
   76SLPC  C215 6867   6.114   4.516   8.082  0.5562 -0.0199 -0.7587
   76SLPC  H15R 6868   6.197   4.590   8.095 -0.4958  1.2050 -0.7951
   76SLPC  H15S 6869   6.155   4.438   8.015 -1.7176 -1.1461 -0.9138
   76SLPC  C216 6870   6.077   4.452   8.221  0.3487  0.1219 -0.3710
   76SLPC  H16R 6871   5.993   4.383   8.196  1.0132 -0.4343 -1.1207
   76SLPC  H16S 6872   6.043   4.517   8.305  2.2107  1.0498 -0.3024
   76SLPC  C217 6873   6.184   4.357   8.267 -0.7430  0.1171  0.4846
   76SLPC  H17R 6874   6.276   4.414   8.294 -1.5565  0.5224  2.6434
   76SLPC  H17S 6875   6.223   4.291   8.187  0.7490  1.4772  0.0143
   76SLPC  C218 6876   6.142   4.291   8.394 -0.4394 -0.9086  0.4805
   76SLPC  H18R 6877   6.110   4.366   8.469 -1.9617 -2.1947  1.1774
   76SLPC  H18S 6878   6.222   4.227   8.437  0.8219  0.1471 -0.1990
   76SLPC  H18T 6879   6.064   4.218   8.364 -2.3309  0.9119  0.7346
   76SLPC   C33 6880   5.218   4.709   6.731 -0.0710  0.0111 -0.1519
   76SLPC   H3X 6881   5.253   4.610   6.768  3.5492  1.3356  0.3381
   76SLPC   H3Y 6882   5.132   4.695   6.661 -0.2703  1.4711 -0.2228
   76SLPC   C34 6883   5.163   4.766   6.860  0.2009  0.4503  0.1746
   76SLPC   H4X 6884   5.060   4.726   6.872  1.7340 -3.4818  1.6934
   76SLPC   H4Y 6885   5.143   4.870   6.825 -0.8286 -0.5501 -2.4082
   76SLPC   C35 6886   5.237   4.732   6.986 -0.3136  0.7106 -0.0593
   76SLPC   H5X 6887   5.345   4.745   6.967 -0.4429  0.3305 -1.0958
   76SLPC   H5Y 6888   5.235   4.624   7.011  2.0837  0.2143 -1.6885
   76SLPC   C36 6889   5.196   4.803   7.113  0.4926 -0.5184 -0.0842
   76SLPC   H6X 6890   5.176   4.910   7.091  0.1694  0.1721  3.0120
   76SLPC   H6Y 6891   5.284   4.812   7.181  0.6407  0.9614 -0.4437
   76SLPC   C37 6892   5.078   4.742   7.197 -0.0218 -1.0139 -0.1134
   76SLPC   H7X 6893   5.051   4.643   7.155 -1.8719 -0.6057  0.0310
   76SLPC   H7Y 6894   4.983   4.801   7.200  0.9692  0.6094  0.9293
   76SLPC   C38 6895   5.129   4.711   7.341 -0.5730  0.3677 -0.8373
   76SLPC   H8X 6896   5.219   4.648   7.325  0.1262  0.8598  0.9264
   76SLPC   H8Y 6897   5.046   4.660   7.395 -1.5952  2.6790 -0.0827
   76SLPC   C39 6898   5.161   4.843   7.410 -0.2342  0.9774  0.2871
   76SLPC   H9X 6899   5.094   4.922   7.369 -1.3349 -0.3900 -0.6908
   76SLPC   H9Y 6900   5.261   4.879   7.381 -0.4261  0.6029 -0.9287
   76SLPC  C310 6901   5.161   4.833   7.560 -0.3536  0.2373 -0.2374
   76SLPC  H10X 6902   5.068   4.784   7.594 -0.4631  0.8593  0.3981
   76SLPC  H10Y 6903   5.143   4.934   7.604 -3.9138 -0.3510 -0.1023
   76SLPC  C311 6904   5.301   4.779   7.610 -0.7191  0.2885 -0.1271
   76SLPC  H11X 6905   5.385   4.840   7.568 -0.4364  1.0587  1.4650
   76SLPC  H11Y 6906   5.310   4.672   7.585  0.9111  0.6283 -1.1884
   76SLPC  C312 6907   5.323   4.786   7.764 -0.4639  0.4057  0.0939
   76SLPC  H12X 6908   5.306   4.894   7.784 -1.8157  0.3815 -0.8284
   76SLPC  H12Y 6909   5.430   4.759   7.780 -0.4797  0.3195  0.0523
   76SLPC  C313 6910   5.224   4.703   7.844  0.7532 -0.0559 -0.0412
   76SLPC  H13X 6911   5.255   4.597   7.855  0.6025  0.0222  1.2267
   76SLPC  H13Y 6912   5.131   4.701   7.784  1.5418  0.1051 -1.3125
   76SLPC  C314 6913   5.203   4.767   7.978  0.4400 -1.3026  0.0445
   76SLPC  H14X 6914   5.140   4.858   7.965  2.2532 -0.0601 -0.4280
   76SLPC  H14Y 6915   5.298   4.802   8.023 -0.7389  1.5086  0.5840
   76SLPC  C315 6916   5.147   4.671   8.082 -0.4928 -0.6189  0.2109
   76SLPC  H15X 6917   5.172   4.719   8.179  0.9807  2.1820 -1.4413
   76SLPC  H15Y 6918   5.181   4.567   8.061 -1.0035 -0.7805  0.1924
   76SLPC  C316 6919   4.992   4.664   8.074 -0.7902  0.6617 -0.0615
   76SLPC  H16X 6920   4.960   4.582   8.006  0.7175  0.1299 -0.1572
   76SLPC  H16Y 6921   4.950   4.760   8.038 -0.5155  1.8585  2.5593
   76SLPC  C317 6922   4.932   4.657   8.215  0.1420  0.3943  0.2952
   76SLPC  H17X 6923   4.973   4.734   8.283 -0.6003  0.8853  0.1927
   76SLPC  H17Y 6924   4.955   4.560   8.265 -2.0422  0.4635  1.5606
   76SLPC  C318 6925   4.782   4.684   8.209 -0.1621  0.1810 -0.2861
   76SLPC  H18X 6926   4.724   4.596   8.173  0.4591 -0.2681 -0.2165
   76SLPC  H18Y 6927   4.762   4.781   8.159 -1.9635  0.6733  1.2773
   76SLPC  H18Z 6928   4.743   4.702   8.311 -1.6560  1.1644 -0.9905
   77SLPC     N 6929   4.016   5.663   6.546 -0.5909 -0.3571 -0.0007
   77SLPC   C13 6930   4.095   5.778   6.497  0.4136 -0.4731  0.1538
   77SLPC  H13A 6931   4.149   5.743   6.411 -1.2530 -0.5398 -0.9071
   77SLPC  H13B 6932   4.041   5.868   6.472  1.0473 -0.5474 -1.5728
   77SLPC  H13C 6933   4.176   5.813   6.560  0.9420  1.6077 -1.5655
   77SLPC   C14 6934   3.913   5.641   6.438  0.6860  0.2560  0.6675
   77SLPC  H14A 6935   3.847   5.563   6.474  1.7897 -0.3790  1.4031
   77SLPC  H14B 6936   3.849   5.723   6.412  0.1528 -0.7226 -1.3059
   77SLPC  H14C 6937   3.963   5.602   6.351  3.4233 -0.9926  2.6185
   77SLPC   C15 6938   3.950   5.698   6.675  0.3472 -0.3648 -0.0959
   77SLPC  H15A 6939   3.892   5.619   6.720 -1.5063  0.6338 -0.6242
   77SLPC  H15B 6940   4.015   5.745   6.747 -0.3932  0.0625  0.2970
   77SLPC  H15C 6941   3.879   5.777   6.659 -0.7266 -1.1431  0.6996
   77SLPC   C12 6942   4.100   5.537   6.569  0.0808  0.5060  0.2450
   77SLPC  H12A 6943   4.037   5.450   6.583  0.9678 -0.2674 -0.3951
   77SLPC  H12B 6944   4.156   5.547   6.661  2.6370 -0.3398 -1.1156
   77SLPC   C11 6945   4.199   5.497   6.453 -0.0449 -0.6030  0.3981
   77SLPC  H11A 6946   4.266   5.412   6.478 -0.7196 -1.5901 -0.9855
   77SLPC  H11B 6947   4.267   5.584   6.442 -0.7947  0.2647  2.1559
   77SLPC     P 6948   4.067   5.343   6.299  0.0131 -0.4907  0.0974
   77SLPC   O13 6949   3.968   5.361   6.190 -0.1394 -0.1025 -0.6164
   77SLPC   O14 6950   4.167   5.236   6.289 -0.5411 -0.1359 -0.0332
   77SLPC   O12 6951   4.133   5.478   6.329  0.2243 -0.7419  0.2571
   77SLPC   O11 6952   3.989   5.321   6.428  0.6711  0.2719 -0.3458
   77SLPC    C1 6953   3.947   5.197   6.467 -0.7241  0.2760  0.1153
   77SLPC    HA 6954   3.837   5.210   6.470 -0.7020  0.6805 -0.6050
   77SLPC    HB 6955   3.976   5.110   6.405 -2.8100 -1.4606  1.4180
   77SLPC    C2 6956   3.996   5.160   6.610 -0.3868 -0.2975  0.5203
   77SLPC    HS 6957   3.943   5.065   6.630 -0.5217 -0.2255  0.5068
   77SLPC   O21 6958   3.956   5.265   6.705 -0.4759  0.4861 -0.3837
   77SLPC   C21 6959   3.829   5.253   6.739 -0.2003  0.0954 -0.2128
   77SLPC   O22 6960   3.749   5.169   6.691 -0.2753 -0.5251 -0.4068
   77SLPC   C22 6961   3.786   5.367   6.834 -0.0033 -0.3629 -0.1757
   77SLPC   H2R 6962   3.861   5.373   6.916  2.6104  0.8942 -2.4850
   77SLPC   H2S 6963   3.776   5.464   6.781 -1.1736 -0.9615 -1.0645
   77SLPC    C3 6964   4.148   5.129   6.623  0.7648  0.2441  0.1046
   77SLPC    HX 6965   4.207   5.205   6.568 -0.9103  1.3885 -0.1699
   77SLPC    HY 6966   4.169   5.030   6.575  0.6654 -0.1258  0.8160
   77SLPC   O31 6967   4.188   5.106   6.762  0.1238  0.1930  0.1778
   77SLPC   C31 6968   4.225   5.222   6.817 -0.5871  0.4549 -0.3790
   77SLPC   O32 6969   4.219   5.332   6.769  0.0872 -0.6166  0.3982
   77SLPC   C32 6970   4.263   5.191   6.963  0.0130 -0.3503 -0.0256
   77SLPC   H2X 6971   4.370   5.214   6.984 -0.1651  2.2263 -1.5357
   77SLPC   H2Y 6972   4.254   5.083   6.985  0.4509  0.0665  2.4902
   77SLPC   C23 6973   3.656   5.318   6.893  0.3145 -0.3984  0.6852
   77SLPC   H3R 6974   3.594   5.283   6.808  0.8175  1.6340 -0.5872
   77SLPC   H3S 6975   3.603   5.407   6.932  1.6236 -0.0095  1.6728
   77SLPC   C24 6976   3.659   5.211   6.999  0.8741 -0.1909  0.4523
   77SLPC   H4R 6977   3.693   5.111   6.968 -1.5076 -0.8844 -0.1039
   77SLPC   H4S 6978   3.553   5.194   7.030  1.0428  0.6532  1.5547
   77SLPC   C25 6979   3.750   5.261   7.117  0.2112  0.1200  0.4542
   77SLPC   H5R 6980   3.716   5.366   7.131  1.6932  0.5222  1.2283
   77SLPC   H5S 6981   3.858   5.258   7.091  0.3049 -0.5533  0.8896
   77SLPC   C26 6982   3.721   5.185   7.246 -0.1244 -0.0819 -0.0193
   77SLPC   H6R 6983   3.793   5.214   7.325  0.2708  0.6011 -0.6238
   77SLPC   H6S 6984   3.743   5.079   7.221  0.3211  1.0617 -5.5513
   77SLPC   C27 6985   3.588   5.204   7.315 -0.1339 -0.4590  0.0324
   77SLPC   H7R 6986   3.511   5.179   7.239 -0.8040  1.1548  0.1376
   77SLPC   H7S 6987   3.575   5.314   7.331  0.9137 -0.3549  0.2866
   77SLPC   C28 6988   3.564   5.120   7.444  0.0050 -0.2579  0.1054
   77SLPC   H8R 6989   3.583   5.012   7.426  2.3108 -0.3789  2.7054
   77SLPC   H8S 6990   3.455   5.135   7.465 -0.2588 -1.7820 -0.0878
   77SLPC   C29 6991   3.650   5.164   7.563 -0.4618  0.0652  0.1107
   77SLPC   H9R 6992   3.750   5.203   7.537  0.0830 -0.9828  0.5715
   77SLPC  C210 6993   3.617   5.153   7.690 -0.2081  0.5182 -0.5893
   77SLPC  H10R 6994   3.692   5.188   7.763 -1.7276  2.5279  0.0751
   77SLPC  C211 6995   3.485   5.100   7.738  0.4732  0.5968  0.7815
   77SLPC  H11R 6996   3.512   5.021   7.812 -0.9178 -0.2565  0.4149
   77SLPC  H11S 6997   3.435   5.034   7.664  0.1786  0.0767  1.4362
   77SLPC  C212 6998   3.406   5.210   7.808  1.3930 -0.3417  0.2745
   77SLPC  H12R 6999   3.398   5.299   7.744  0.5326 -1.5512 -1.3685
   77SLPC  C213 7000   3.352   5.206   7.933  0.2382 -0.2314 -0.1368
   77SLPC  H13R 7001   3.317   5.298   7.982  1.0906  0.5081 -0.8825
   77SLPC  C214 7002   3.352   5.087   8.020 -0.2087 -0.0046  0.3832
   77SLPC  H14R 7003   3.414   4.998   7.993  0.5159 -0.0901  2.2086
   77SLPC  H14S 7004   3.248   5.047   8.020 -0.3916  0.2807 -2.0601
   77SLPC  C215 7005   3.422   5.125   8.153  0.3066 -0.0361 -0.6142
   77SLPC  H15R 7006   3.367   5.212   8.195  0.1128  0.3275 -1.6076
   77SLPC  H15S 7007   3.521   5.173   8.142  0.8037 -0.2875  2.0275
   77SLPC  C216 7008   3.419   5.005   8.256 -0.7023 -0.4742  1.0252
   77SLPC  H16R 7009   3.457   5.046   8.353 -1.7284  2.9960  0.0930
   77SLPC  H16S 7010   3.485   4.927   8.213  2.1231  2.9893 -1.5706
   77SLPC  C217 7011   3.279   4.955   8.294 -0.4178  0.5909 -0.1062
   77SLPC  H17R 7012   3.220   4.951   8.200 -0.1659  0.5978 -0.2647
   77SLPC  H17S 7013   3.214   5.026   8.350 -0.6824  2.2529 -2.3874
   77SLPC  C218 7014   3.296   4.823   8.373  0.5086 -0.0619  0.4968
   77SLPC  H18R 7015   3.353   4.742   8.322 -1.0466  0.3219 -1.9924
   77SLPC  H18S 7016   3.193   4.782   8.370  0.4948 -0.0161  0.2919
   77SLPC  H18T 7017   3.320   4.841   8.480  0.3214 -1.4541  0.7837
   77SLPC   C33 7018   4.166   5.257   7.068 -0.1631  0.3241 -0.5147
   77SLPC   H3X 7019   4.068   5.205   7.064  0.2777 -0.5732  0.0112
   77SLPC   H3Y 7020   4.145   5.366   7.060  0.3542  0.5393  0.8162
   77SLPC   C34 7021   4.222   5.220   7.205  0.3567  0.0413  0.1593
   77SLPC   H4X 7022   4.296   5.295   7.242 -1.0184  0.4015  2.4031
   77SLPC   H4Y 7023   4.270   5.120   7.200 -0.2799 -0.3173  0.9461
   77SLPC   C35 7024   4.110   5.214   7.307  0.4480  0.3097  0.3362
   77SLPC   H5X 7025   4.040   5.139   7.263  1.7531  0.0780 -1.4302
   77SLPC   H5Y 7026   4.052   5.308   7.305 -0.8086 -0.4232 -1.9291
   77SLPC   C36 7027   4.166   5.179   7.443 -0.4066 -0.7408  0.4346
   77SLPC   H6X 7028   4.215   5.271   7.482  1.1347 -0.7441 -1.3310
   77SLPC   H6Y 7029   4.256   5.114   7.445  1.7853  2.0581 -0.1356
   77SLPC   C37 7030   4.065   5.138   7.551 -0.2791  0.3620  0.5231
   77SLPC   H7X 7031   4.038   5.030   7.554  1.0839  0.0137  3.3997
   77SLPC   H7Y 7032   3.970   5.191   7.529 -0.7794 -0.4559  0.6790
   77SLPC   C38 7033   4.109   5.171   7.694  0.2751 -0.0004 -0.1706
   77SLPC   H8X 7034   4.160   5.269   7.699 -1.3790  0.9043 -0.3913
   77SLPC   H8Y 7035   4.186   5.096   7.722 -2.1742 -1.9162  1.9265
   77SLPC   C39 7036   3.998   5.146   7.799  0.3104  0.8419 -0.2431
   77SLPC   H9X 7037   3.946   5.048   7.789 -0.6100  1.3891 -1.0081
   77SLPC   H9Y 7038   3.928   5.232   7.805  1.4391  1.8127 -0.5781
   77SLPC  C310 7039   4.068   5.154   7.942 -1.0237  0.0319 -0.4377
   77SLPC  H10X 7040   4.100   5.261   7.938 -2.4336  0.4643 -0.9144
   77SLPC  H10Y 7041   4.163   5.099   7.958  0.5062  2.3002 -1.1053
   77SLPC  C311 7042   3.988   5.118   8.070 -0.7799 -0.4799 -0.0578
   77SLPC  H11X 7043   4.054   5.130   8.159 -1.8639 -2.5628  1.0855
   77SLPC  H11Y 7044   3.960   5.011   8.067 -1.2258 -0.4464  1.5999
   77SLPC  C312 7045   3.865   5.202   8.092 -0.2571 -0.3597 -0.7548
   77SLPC  H12X 7046   3.818   5.174   8.189  0.9622  2.3998  0.7531
   77SLPC  H12Y 7047   3.795   5.193   8.006 -1.1533 -0.9849  0.0141
   77SLPC  C313 7048   3.896   5.347   8.116  0.0017 -0.7212 -0.3034
   77SLPC  H13X 7049   3.924   5.391   8.018  0.5828  2.6004  1.2157
   77SLPC  H13Y 7050   3.975   5.362   8.192 -0.6421 -2.0632  0.6711
   77SLPC  C314 7051   3.787   5.431   8.173 -0.1546  0.1373 -1.0099
   77SLPC  H14X 7052   3.761   5.385   8.271 -1.1787 -0.6777 -1.6499
   77SLPC  H14Y 7053   3.698   5.428   8.108 -2.2727 -2.8892  1.6827
   77SLPC  C315 7054   3.836   5.575   8.208  0.3717 -0.7632  0.0795
   77SLPC  H15X 7055   3.885   5.602   8.112  1.8988  0.3835  1.1547
   77SLPC  H15Y 7056   3.903   5.587   8.295 -1.5318  1.7457  1.3325
   77SLPC  C316 7057   3.722   5.681   8.220  0.0556 -0.1247  0.1694
   77SLPC  H16X 7058   3.657   5.658   8.307 -1.5553 -0.7742 -1.1373
   77SLPC  H16Y 7059   3.648   5.680   8.137 -1.0432  1.7760  1.0581
   77SLPC  C317 7060   3.788   5.817   8.237 -0.5170  0.4566 -0.4241
   77SLPC  H17X 7061   3.868   5.829   8.160  1.4258 -2.5066  0.9259
   77SLPC  H17Y 7062   3.844   5.805   8.332  0.2899 -0.7802 -1.0096
   77SLPC  C318 7063   3.694   5.936   8.233 -0.2599 -0.1826  0.0074
   77SLPC  H18X 7064   3.747   6.018   8.285  3.1529  0.5270 -4.0766
   77SLPC  H18Y 7065   3.599   5.918   8.289 -0.2088 -0.3578  0.0394
   77SLPC  H18Z 7066   3.672   5.963   8.127 -2.5334  0.8490  0.6613
   78SLPC     N 7067   4.504   5.566   6.008  0.1047  0.2745 -0.7002
   78SLPC   C13 7068   4.650   5.586   6.013  0.4362 -0.2696 -0.2864
   78SLPC  H13A 7069   4.667   5.669   6.079 -0.8666 -0.1321 -0.0946
   78SLPC  H13B 7070   4.696   5.497   6.053  0.9731  0.6241  1.1840
   78SLPC  H13C 7071   4.695   5.604   5.917 -0.5256  1.7985 -0.3861
   78SLPC   C14 7072   4.479   5.458   5.899  0.2342  0.3483  0.2862
   78SLPC  H14A 7073   4.534   5.496   5.815  0.0324  0.1963  0.0861
   78SLPC  H14B 7074   4.505   5.359   5.935 -2.1763 -0.8513 -0.9844
   78SLPC  H14C 7075   4.376   5.442   5.872  0.9100 -3.2202 -0.7380
   78SLPC   C15 7076   4.435   5.696   5.977  0.1561  0.5784  0.7781
   78SLPC  H15A 7077   4.330   5.690   6.003 -0.0945  1.5680  0.0564
   78SLPC  H15B 7078   4.480   5.772   6.040  0.5337  0.7356  0.3217
   78SLPC  H15C 7079   4.450   5.734   5.877 -2.3897  0.2891  0.2256
   78SLPC   C12 7080   4.452   5.520   6.151  0.7520 -1.2583  0.3586
   78SLPC  H12A 7081   4.345   5.510   6.140  0.9158 -0.7144 -2.8792
   78SLPC  H12B 7082   4.467   5.604   6.217  2.5376 -0.7123 -0.6762
   78SLPC   C11 7083   4.503   5.380   6.205 -0.0176 -0.3681  0.1107
   78SLPC  H11A 7084   4.498   5.303   6.125  0.7011  0.1351 -0.4376
   78SLPC  H11B 7085   4.431   5.350   6.285  1.5789  0.7548  2.0795
   78SLPC     P 7086   4.684   5.254   6.339 -0.4173 -0.4865  0.1947
   78SLPC   O13 7087   4.661   5.151   6.240 -0.3097 -0.1599 -0.2611
   78SLPC   O14 7088   4.819   5.286   6.387 -0.4300  0.3362  0.5347
   78SLPC   O12 7089   4.632   5.390   6.271 -0.4999 -0.2197  0.1468
   78SLPC   O11 7090   4.589   5.221   6.459 -0.0160  0.0149 -0.0427
   78SLPC    C1 7091   4.562   5.321   6.563 -0.2882  0.1382 -0.5242
   78SLPC    HA 7092   4.600   5.423   6.542  0.0273  0.2846  0.6475
   78SLPC    HB 7093   4.452   5.330   6.569 -0.6112 -2.8503 -0.0380
   78SLPC    C2 7094   4.608   5.274   6.703  0.2594 -0.5356  0.0844
   78SLPC    HS 7095   4.719   5.265   6.701  0.2233 -1.3003  0.9085
   78SLPC   O21 7096   4.547   5.152   6.741 -0.1479 -0.4120  0.1198
   78SLPC   C21 7097   4.620   5.052   6.777 -0.2908 -0.4875  0.1013
   78SLPC   O22 7098   4.743   5.036   6.761  0.0795  0.3745 -0.1240
   78SLPC   C22 7099   4.525   4.947   6.828  0.5792 -0.4152  0.4491
   78SLPC   H2R 7100   4.449   4.986   6.899 -2.8418  2.2838 -4.0391
   78SLPC   H2S 7101   4.462   4.915   6.742 -1.8565  0.4287  1.8283
   78SLPC    C3 7102   4.581   5.380   6.804  0.1308 -0.3035 -0.3372
   78SLPC    HX 7103   4.484   5.428   6.776 -0.1330  0.7759  2.1689
   78SLPC    HY 7104   4.659   5.457   6.787  0.5770 -0.9448 -1.2498
   78SLPC   O31 7105   4.569   5.349   6.945  0.7302 -0.5217  0.2462
   78SLPC   C31 7106   4.675   5.316   7.009  0.2682 -0.5482 -0.6913
   78SLPC   O32 7107   4.782   5.304   6.964 -0.4832 -0.2658  0.4424
   78SLPC   C32 7108   4.638   5.291   7.160  0.0513  0.3082  0.3920
   78SLPC   H2X 7109   4.564   5.208   7.164 -0.5502  0.8621  1.2914
   78SLPC   H2Y 7110   4.582   5.378   7.201  0.2338  0.3676  0.5142
   78SLPC   C23 7111   4.609   4.833   6.891 -0.9523  0.9230 -0.2735
   78SLPC   H3R 7112   4.686   4.787   6.825 -0.4346  0.7957  0.4145
   78SLPC   H3S 7113   4.536   4.755   6.923 -0.0081  0.4207  0.7316
   78SLPC   C24 7114   4.684   4.870   7.023  0.5049 -0.1916  1.0104
   78SLPC   H4R 7115   4.760   4.947   6.999 -1.6368  1.4113 -1.0851
   78SLPC   H4S 7116   4.722   4.772   7.060  0.1824 -1.6304 -2.1855
   78SLPC   C25 7117   4.590   4.920   7.135  0.4177  0.1154  0.2101
   78SLPC   H5R 7118   4.518   4.995   7.096  0.3332  0.0156  0.1763
   78SLPC   H5S 7119   4.645   4.979   7.212 -1.4171  2.2929 -0.0520
   78SLPC   C26 7120   4.515   4.807   7.216 -0.3869  0.1582  0.0486
   78SLPC   H6R 7121   4.589   4.745   7.270 -0.7775 -0.6385 -0.3111
   78SLPC   H6S 7122   4.471   4.735   7.144  0.5077  0.1646 -0.5200
   78SLPC   C27 7123   4.414   4.870   7.312 -0.3062  0.1211  0.4044
   78SLPC   H7R 7124   4.345   4.938   7.258  1.8450  0.6452 -1.8704
   78SLPC   H7S 7125   4.478   4.921   7.388  0.6445 -1.8705  1.0031
   78SLPC   C28 7126   4.324   4.762   7.373 -0.1767  0.1597  0.3701
   78SLPC   H8R 7127   4.291   4.697   7.289  0.6827 -2.0591  1.6584
   78SLPC   H8S 7128   4.242   4.821   7.420 -1.3174  0.0667 -1.3874
   78SLPC   C29 7129   4.400   4.675   7.476 -0.3605 -0.2649  0.2298
   78SLPC   H9R 7130   4.464   4.598   7.431 -0.2851 -0.1544  0.1467
   78SLPC  C210 7131   4.412   4.695   7.603  0.0331  0.2969 -1.0186
   78SLPC  H10R 7132   4.461   4.615   7.660 -2.6021 -0.3891  0.4528
   78SLPC  C211 7133   4.350   4.808   7.685 -0.3898  0.4391  0.3513
   78SLPC  H11R 7134   4.296   4.763   7.771  0.1333  0.4672  0.6998
   78SLPC  H11S 7135   4.273   4.860   7.623 -1.7670 -1.1383  0.6593
   78SLPC  C212 7136   4.450   4.911   7.729 -0.2364  0.1311  0.2307
   78SLPC  H12R 7137   4.477   4.980   7.648 -1.2109 -0.2382 -0.4289
   78SLPC  C213 7138   4.509   4.917   7.851 -0.1842  0.1411  0.0482
   78SLPC  H13R 7139   4.586   4.993   7.869  1.3775 -0.7269 -2.4095
   78SLPC  C214 7140   4.475   4.822   7.967 -0.1836 -0.1706 -0.1454
   78SLPC  H14R 7141   4.571   4.779   8.003 -0.2245  1.2549  1.7942
   78SLPC  H14S 7142   4.412   4.737   7.935  0.7601 -0.6009 -0.9376
   78SLPC  C215 7143   4.409   4.883   8.086 -0.6544 -0.8356  0.6166
   78SLPC  H15R 7144   4.313   4.927   8.052  0.2511 -0.1747 -1.2427
   78SLPC  H15S 7145   4.471   4.963   8.134  1.1269 -1.4537 -0.5286
   78SLPC  C216 7146   4.388   4.776   8.194  0.3048 -0.6981  0.5501
   78SLPC  H16R 7147   4.478   4.719   8.223 -1.3553 -2.8274  1.8115
   78SLPC  H16S 7148   4.314   4.708   8.146 -0.1984  0.8499 -0.9693
   78SLPC  C217 7149   4.319   4.827   8.319 -0.7935  0.3483  0.5834
   78SLPC  H17R 7150   4.227   4.880   8.284  0.6813  3.5894  1.2119
   78SLPC  H17S 7151   4.383   4.907   8.363 -3.0270  1.1374  2.6413
   78SLPC  C218 7152   4.275   4.713   8.415 -0.1679  0.1017 -0.1630
   78SLPC  H18R 7153   4.231   4.753   8.510 -1.0638 -2.7507  0.7335
   78SLPC  H18S 7154   4.369   4.663   8.445 -0.7846  0.4860  2.7508
   78SLPC  H18T 7155   4.214   4.638   8.361 -0.4929 -0.7405  1.3017
   78SLPC   C33 7156   4.760   5.268   7.255 -0.5408  0.5753 -1.0606
   78SLPC   H3X 7157   4.832   5.346   7.223 -0.8974  0.6160 -1.7958
   78SLPC   H3Y 7158   4.815   5.173   7.236 -0.6020  0.5763 -1.2540
   78SLPC   C34 7159   4.720   5.286   7.400  0.5273  0.4433 -0.4358
   78SLPC   H4X 7160   4.621   5.245   7.431  1.1997  0.6714  2.2822
   78SLPC   H4Y 7161   4.715   5.395   7.420 -3.8264 -0.0408  2.4893
   78SLPC   C35 7162   4.828   5.223   7.496  0.8598 -0.8353 -0.0016
   78SLPC   H5X 7163   4.917   5.288   7.487 -1.0743  1.8206 -1.4067
   78SLPC   H5Y 7164   4.859   5.122   7.460 -1.8956 -2.0903  0.8596
   78SLPC   C36 7165   4.785   5.220   7.644  0.2142 -0.6347 -0.1336
   78SLPC   H6X 7166   4.698   5.152   7.654 -2.0451  1.9388 -0.8732
   78SLPC   H6Y 7167   4.743   5.319   7.676  1.0744 -0.6434  1.0913
   78SLPC   C37 7168   4.900   5.189   7.740 -0.4126 -0.0496 -0.7779
   78SLPC   H7X 7169   4.989   5.255   7.731 -1.7122  2.1697  1.2854
   78SLPC   H7Y 7170   4.939   5.090   7.709 -0.0301 -0.2877  0.4242
   78SLPC   C38 7171   4.864   5.179   7.893 -0.0326  0.2939  0.8364
   78SLPC   H8X 7172   4.770   5.120   7.903  0.6454 -1.1014 -0.5726
   78SLPC   H8Y 7173   4.853   5.281   7.935  1.8448  0.9976 -0.2687
   78SLPC   C39 7174   4.972   5.108   7.977 -0.0208 -0.4543 -0.1429
   78SLPC   H9X 7175   5.074   5.151   7.971 -0.7270  1.3841  0.1448
   78SLPC   H9Y 7176   4.976   5.006   7.935 -1.0905 -0.4187 -0.3556
   78SLPC  C310 7177   4.951   5.104   8.128  0.2232  0.2428 -0.0057
   78SLPC  H10X 7178   5.020   5.034   8.179 -1.6250 -0.9880  0.8922
   78SLPC  H10Y 7179   4.848   5.064   8.140  0.5379 -0.4529  0.4297
   78SLPC  C311 7180   4.952   5.234   8.200 -0.0047 -0.1955 -0.7243
   78SLPC  H11X 7181   4.870   5.297   8.161 -1.1850 -1.1536  0.1416
   78SLPC  H11Y 7182   5.037   5.299   8.171  0.4466 -1.3714 -2.1623
   78SLPC  C312 7183   4.928   5.214   8.354 -0.2017 -0.7822  0.3194
   78SLPC  H12X 7184   5.013   5.162   8.403 -0.7251  0.4053  2.6579
   78SLPC  H12Y 7185   4.836   5.152   8.354 -1.8646  1.5413  0.7417
   78SLPC  C313 7186   4.890   5.338   8.433  0.1322 -0.4497 -0.8201
   78SLPC  H13X 7187   4.855   5.313   8.535  2.1285 -0.3581 -0.0499
   78SLPC  H13Y 7188   4.813   5.388   8.372  0.2504 -1.0611 -1.4837
   78SLPC  C314 7189   5.002   5.447   8.437 -0.3436  0.7514  0.2150
   78SLPC  H14X 7190   5.018   5.474   8.330 -1.5241 -2.4586 -0.9176
   78SLPC  H14Y 7191   5.096   5.401   8.474 -0.9058 -0.5052  0.1426
   78SLPC  C315 7192   4.956   5.566   8.522  0.0959  0.9591  0.3710
   78SLPC  H15X 7193   4.923   5.518   8.616 -0.3572 -0.0265 -0.2800
   78SLPC  H15Y 7194   4.866   5.607   8.471 -1.2015  0.3536  2.0556
   78SLPC  C316 7195   5.065   5.666   8.551  0.6024  0.1161  0.6454
   78SLPC  H16X 7196   5.153   5.598   8.543  0.5575  0.2164 -0.9680
   78SLPC  H16Y 7197   5.057   5.707   8.654  0.7638 -0.8604  1.0635
   78SLPC  C317 7198   5.106   5.775   8.441  0.2939 -0.2995 -0.7353
   78SLPC  H17X 7199   5.015   5.834   8.415  1.2158  0.5586 -2.1416
   78SLPC  H17Y 7200   5.133   5.715   8.351  0.6684 -1.4854  0.1452
   78SLPC  C318 7201   5.223   5.870   8.479  0.6752 -0.0040  0.6405
   78SLPC  H18X 7202   5.184   5.920   8.570 -1.3984 -1.5624  0.6752
   78SLPC  H18Y 7203   5.242   5.953   8.407  5.2256 -0.1917  1.3340
   78SLPC  H18Z 7204   5.317   5.814   8.498 -1.4774 -3.5699  1.5965
   79SLPC     N 7205   1.899   1.602   5.989  0.5887 -0.3810 -0.6576
   79SLPC   C13 7206   1.747   1.612   6.009 -0.2281  0.2058 -0.2082
   79SLPC  H13A 7207   1.695   1.611   5.914  1.0981  1.7508 -1.0022
   79SLPC  H13B 7208   1.726   1.518   6.058  1.4644  0.0792  0.3402
   79SLPC  H13C 7209   1.713   1.704   6.054  1.4570  0.3905  0.7687
   79SLPC   C14 7210   1.938   1.725   5.919  0.0367  0.1328 -0.0209
   79SLPC  H14A 7211   2.046   1.732   5.910 -0.0222  0.1482 -0.8137
   79SLPC  H14B 7212   1.892   1.732   5.822 -1.0400  0.3570  0.4957
   79SLPC  H14C 7213   1.909   1.814   5.973  0.0450 -0.4496  0.9624
   79SLPC   C15 7214   1.928   1.485   5.901 -0.4207 -0.2136 -0.3136
   79SLPC  H15A 7215   1.899   1.509   5.800 -1.2292  0.1562 -0.0042
   79SLPC  H15B 7216   2.035   1.467   5.902 -0.4537 -0.4448  1.5134
   79SLPC  H15C 7217   1.881   1.394   5.935 -0.9434 -0.2127 -1.0109
   79SLPC   C12 7218   1.977   1.585   6.122  0.4302  0.1738 -0.8545
   79SLPC  H12A 7219   1.943   1.659   6.193  1.6234 -1.1526  1.1795
   79SLPC  H12B 7220   2.077   1.613   6.093  0.7517 -1.2272 -1.1486
   79SLPC   C11 7221   1.958   1.457   6.212 -0.5092 -0.2500  0.1760
   79SLPC  H11A 7222   2.027   1.454   6.298  0.1119  3.6736  0.0098
   79SLPC  H11B 7223   1.984   1.377   6.140 -2.7584 -0.7765 -0.1440
   79SLPC     P 7224   1.782   1.435   6.399 -0.2901 -0.8092  0.6769
   79SLPC   O13 7225   1.785   1.571   6.450  0.2224 -0.3139 -0.1560
   79SLPC   O14 7226   1.661   1.355   6.407 -0.5760  0.2711  0.6876
   79SLPC   O12 7227   1.819   1.439   6.246  0.5156 -0.0073 -0.0427
   79SLPC   O11 7228   1.901   1.360   6.468  0.6803  0.0596  0.4030
   79SLPC    C1 7229   1.916   1.224   6.460 -0.0021  0.0635  0.8045
   79SLPC    HA 7230   1.818   1.171   6.462 -1.3738  2.2779 -1.2487
   79SLPC    HB 7231   1.953   1.209   6.356 -1.1697  0.2449  0.3492
   79SLPC    C2 7232   2.017   1.172   6.562 -0.3626  0.0231  0.2308
   79SLPC    HS 7233   2.029   1.062   6.555 -0.7031 -0.1260  1.7299
   79SLPC   O21 7234   1.985   1.207   6.693 -0.6149  0.0283 -0.1635
   79SLPC   C21 7235   1.890   1.154   6.758  0.7806 -0.3678  0.3116
   79SLPC   O22 7236   1.793   1.095   6.709 -0.2066 -0.9816 -0.1005
   79SLPC   C22 7237   1.904   1.169   6.904  0.0348 -0.3580 -0.2435
   79SLPC   H2R 7238   1.982   1.241   6.937 -0.7398  0.6588 -0.5429
   79SLPC   H2S 7239   1.804   1.200   6.942  0.5661  1.5180 -0.2652
   79SLPC    C3 7240   2.156   1.237   6.520 -0.2491  0.6051 -0.3317
   79SLPC    HX 7241   2.140   1.346   6.529  0.3197  0.7087 -0.5147
   79SLPC    HY 7242   2.178   1.225   6.412  1.3752 -1.9027  0.1912
   79SLPC   O31 7243   2.272   1.184   6.594  0.6015  0.4152  0.2420
   79SLPC   C31 7244   2.297   1.223   6.719 -0.1735  0.1134  0.4010
   79SLPC   O32 7245   2.247   1.314   6.775  0.0888  0.1575 -0.3805
   79SLPC   C32 7246   2.423   1.151   6.765 -0.0323 -0.3070 -0.3029
   79SLPC   H2X 7247   2.501   1.162   6.687  0.3055  3.2834  0.3546
   79SLPC   H2Y 7248   2.389   1.046   6.775  0.1471 -0.4717 -1.2923
   79SLPC   C23 7249   1.946   1.036   6.974 -0.7450  0.1803  0.7128
   79SLPC   H3R 7250   2.056   1.023   6.973 -0.1520  4.0818  1.0849
   79SLPC   H3S 7251   1.897   0.947   6.929  1.7588  0.1612 -2.2948
   79SLPC   C24 7252   1.912   1.035   7.121 -0.0745 -0.0383 -0.1866
   79SLPC   H4R 7253   1.937   0.932   7.154  2.1959  0.3836 -0.4104
   79SLPC   H4S 7254   1.803   1.055   7.136 -0.1488 -0.8411  0.3850
   79SLPC   C25 7255   1.982   1.134   7.217  0.5827 -0.5136 -0.1583
   79SLPC   H5R 7256   1.965   1.240   7.190  0.0804 -0.8335 -1.1218
   79SLPC   H5S 7257   2.088   1.104   7.229  0.9387  1.3599  2.1782
   79SLPC   C26 7258   1.938   1.114   7.368 -0.0916 -0.2271  0.4607
   79SLPC   H6R 7259   1.827   1.117   7.365 -0.0964 -0.6139 -2.0980
   79SLPC   H6S 7260   1.984   1.200   7.421  0.8440 -0.2186 -0.3389
   79SLPC   C27 7261   1.989   0.989   7.440  0.1419  0.2770 -0.0857
   79SLPC   H7R 7262   2.087   0.957   7.399  0.4655 -0.4947  1.2251
   79SLPC   H7S 7263   1.922   0.901   7.430  0.6683 -0.2096  0.5746
   79SLPC   C28 7264   2.012   1.010   7.594  0.0174 -0.9416 -0.1138
   79SLPC   H8R 7265   2.073   1.102   7.608 -1.9132  0.3669 -0.0656
   79SLPC   H8S 7266   2.069   0.920   7.626  0.1377 -1.2299 -1.1024
   79SLPC   C29 7267   1.874   1.029   7.663 -0.3533  0.4983  0.3896
   79SLPC   H9R 7268   1.803   0.952   7.629  1.3219 -0.3496 -1.3428
   79SLPC  C210 7269   1.840   1.131   7.743  0.0244  0.1094 -0.3288
   79SLPC  H10R 7270   1.744   1.136   7.795 -1.0731  2.4941 -2.3550
   79SLPC  C211 7271   1.916   1.256   7.786 -0.3170  0.5156  0.3073
   79SLPC  H11R 7272   1.845   1.341   7.793 -0.0473  0.6561  1.7892
   79SLPC  H11S 7273   1.989   1.282   7.707  0.8662 -1.1478  0.7944
   79SLPC  C212 7274   2.003   1.239   7.909 -0.0117  1.1921 -0.3251
   79SLPC  H12R 7275   2.083   1.167   7.888 -1.5484 -0.3449 -1.2123
   79SLPC  C213 7276   2.003   1.301   8.028  0.5489 -0.6072  0.1629
   79SLPC  H13R 7277   2.075   1.277   8.107 -0.3038 -1.1211  0.7965
   79SLPC  C214 7278   1.894   1.406   8.068  0.0015 -0.5116  0.0314
   79SLPC  H14R 7279   1.799   1.365   8.108 -0.2840  0.8020  0.7798
   79SLPC  H14S 7280   1.870   1.467   7.979 -0.2567  0.9882  1.0861
   79SLPC  C215 7281   1.954   1.511   8.163 -0.0747  0.2962 -1.1548
   79SLPC  H15R 7282   2.040   1.565   8.119 -0.7120  1.3708 -1.1009
   79SLPC  H15S 7283   1.997   1.464   8.254 -0.0507 -1.1332 -1.8649
   79SLPC  C216 7284   1.851   1.611   8.229 -1.1892  0.9801  0.0639
   79SLPC  H16R 7285   1.786   1.550   8.295 -1.5139 -1.7437 -2.5592
   79SLPC  H16S 7286   1.799   1.656   8.142 -1.8544 -0.0588 -0.0874
   79SLPC  C217 7287   1.914   1.714   8.320 -0.2196  1.1023  0.3051
   79SLPC  H17R 7288   1.982   1.785   8.268  1.5966 -0.2045  0.8131
   79SLPC  H17S 7289   1.964   1.668   8.407  0.7191  0.2219 -0.6832
   79SLPC  C218 7290   1.805   1.799   8.384  0.1146 -0.4164  0.7149
   79SLPC  H18R 7291   1.845   1.869   8.461  0.0681 -0.8222  1.1164
   79SLPC  H18S 7292   1.740   1.726   8.437  1.4272 -3.1811 -1.2385
   79SLPC  H18T 7293   1.743   1.857   8.313  0.7225  0.1367  0.6266
   79SLPC   C33 7294   2.487   1.201   6.899 -0.1533  0.3021 -0.5389
   79SLPC   H3X 7295   2.524   1.304   6.887 -0.3504  0.3812 -0.4723
   79SLPC   H3Y 7296   2.572   1.135   6.926 -0.0000  1.5830  2.5197
   79SLPC   C34 7297   2.392   1.198   7.022 -0.0026 -0.5899 -0.1662
   79SLPC   H4X 7298   2.327   1.108   7.019 -0.4162 -0.4854  3.0320
   79SLPC   H4Y 7299   2.324   1.284   7.010  2.1005  0.7492 -5.2181
   79SLPC   C35 7300   2.456   1.226   7.163 -0.4143 -0.4711 -0.6754
   79SLPC   H5X 7301   2.478   1.334   7.155  0.7949 -0.6585 -0.0555
   79SLPC   H5Y 7302   2.546   1.164   7.180 -1.7668 -1.9135  1.8449
   79SLPC   C36 7303   2.365   1.197   7.287 -0.6897  0.6225 -0.3881
   79SLPC   H6X 7304   2.352   1.087   7.287  5.0429 -0.3378 -0.0996
   79SLPC   H6Y 7305   2.265   1.243   7.268  0.2438  2.6386 -0.7241
   79SLPC   C37 7306   2.416   1.242   7.425  1.1571  0.1889  0.1234
   79SLPC   H7X 7307   2.330   1.224   7.493  0.7633  1.8558  0.1046
   79SLPC   H7Y 7308   2.442   1.349   7.434  2.9485 -0.3873  3.7632
   79SLPC   C38 7309   2.531   1.159   7.484  0.0835  0.0090  0.3741
   79SLPC   H8X 7310   2.609   1.178   7.408  0.7410 -0.1072  1.0108
   79SLPC   H8Y 7311   2.511   1.050   7.486 -0.8881  0.1794  1.3242
   79SLPC   C39 7312   2.579   1.213   7.616 -0.0329 -0.1654  0.3795
   79SLPC   H9X 7313   2.585   1.323   7.607  1.4171 -0.2482  0.1435
   79SLPC   H9Y 7314   2.683   1.178   7.631  1.1747  2.2521 -1.5726
   79SLPC  C310 7315   2.484   1.180   7.733 -0.3386 -0.4342 -0.1709
   79SLPC  H10X 7316   2.442   1.077   7.723 -0.8197 -0.3627  0.9261
   79SLPC  H10Y 7317   2.390   1.240   7.730  1.0845  2.1212  1.9717
   79SLPC  C311 7318   2.548   1.172   7.872 -1.1558 -0.3765  0.0483
   79SLPC  H11X 7319   2.649   1.129   7.883 -1.3480 -0.5500  1.3921
   79SLPC  H11Y 7320   2.490   1.111   7.945 -1.1279  0.6270  0.9355
   79SLPC  C312 7321   2.554   1.312   7.933 -0.3417  0.1762 -0.3164
   79SLPC  H12X 7322   2.449   1.348   7.937  0.2422  1.9257  0.2949
   79SLPC  H12Y 7323   2.615   1.362   7.854 -0.6784 -3.1485 -2.9052
   79SLPC  C313 7324   2.611   1.310   8.067  0.3392  0.5693 -0.5574
   79SLPC  H13X 7325   2.715   1.271   8.068  0.3281  0.5516  0.8698
   79SLPC  H13Y 7326   2.556   1.238   8.130  1.5471 -0.3898 -0.5555
   79SLPC  C314 7327   2.621   1.442   8.137  0.3801 -0.5795  0.4081
   79SLPC  H14X 7328   2.522   1.481   8.168  0.5642  0.4806 -0.2717
   79SLPC  H14Y 7329   2.659   1.520   8.067 -0.0763 -0.6081  0.1246
   79SLPC  C315 7330   2.699   1.443   8.270  0.0193 -0.1811 -0.1227
   79SLPC  H15X 7331   2.700   1.550   8.303  0.8756 -0.0645 -0.4980
   79SLPC  H15Y 7332   2.804   1.413   8.255  0.9547  1.6313  2.1253
   79SLPC  C316 7333   2.629   1.358   8.382  0.5686 -0.9454  0.9014
   79SLPC  H16X 7334   2.619   1.253   8.348  2.7673 -1.4660  1.6629
   79SLPC  H16Y 7335   2.529   1.400   8.403  1.5222  1.1016  1.6378
   79SLPC  C317 7336   2.696   1.359   8.526 -0.3364  0.4905 -0.5350
   79SLPC  H17X 7337   2.620   1.305   8.586 -1.9617  0.0316 -2.8477
   79SLPC  H17Y 7338   2.694   1.468   8.548 -1.1747 -0.0911  2.6209
   79SLPC  C318 7339   2.842   1.310   8.533 -0.1051  0.1505  0.0613
   79SLPC  H18X 7340   2.872   1.316   8.640  0.4716  1.5059 -0.1584
   79SLPC  H18Y 7341   2.919   1.364   8.472  0.4994 -0.7611 -0.0133
   79SLPC  H18Z 7342   2.846   1.199   8.520  1.9505  0.2523 -0.5771
   80SLPC     N 7343   2.717   3.583   6.081 -0.1156 -0.0265 -0.1603
   80SLPC   C13 7344   2.763   3.680   5.978  0.5463 -0.2588  1.1790
   80SLPC  H13A 7345   2.712   3.661   5.885  1.6601 -3.3155  1.0949
   80SLPC  H13B 7346   2.752   3.785   6.005  0.5791 -0.2560  1.1811
   80SLPC  H13C 7347   2.868   3.670   5.956  0.2000 -2.2096  0.2243
   80SLPC   C14 7348   2.742   3.439   6.045  0.1230 -0.5601  0.6143
   80SLPC  H14A 7349   2.845   3.411   6.057 -0.2176 -1.5156  1.4362
   80SLPC  H14B 7350   2.688   3.376   6.114  0.7882 -1.8208  0.0272
   80SLPC  H14C 7351   2.710   3.411   5.945  0.4583 -0.6855  0.5387
   80SLPC   C15 7352   2.567   3.594   6.097  0.9244 -0.1203  0.4236
   80SLPC  H15A 7353   2.531   3.504   6.145  1.0237 -1.9475 -2.6092
   80SLPC  H15B 7354   2.540   3.682   6.153 -0.0584  0.1364 -0.4198
   80SLPC  H15C 7355   2.524   3.603   5.998  1.3408 -0.1439  0.2367
   80SLPC   C12 7356   2.787   3.607   6.211  0.3373 -0.8805 -0.2020
   80SLPC  H12A 7357   2.723   3.557   6.283 -0.0485 -1.7897 -1.1430
   80SLPC  H12B 7358   2.777   3.713   6.230  0.9065 -0.3782 -2.4109
   80SLPC   C11 7359   2.935   3.568   6.228  0.1517 -0.3616 -0.8190
   80SLPC  H11A 7360   2.930   3.457   6.229 -0.6111 -0.3289 -0.5374
   80SLPC  H11B 7361   2.957   3.604   6.331 -0.5499  0.2402 -0.8637
   80SLPC     P 7362   3.136   3.726   6.171  0.0979  0.3299 -0.0018
   80SLPC   O13 7363   3.229   3.663   6.265 -0.0909  0.0773 -0.3661
   80SLPC   O14 7364   3.193   3.779   6.045  0.0966 -0.4409 -0.0894
   80SLPC   O12 7365   3.025   3.622   6.131  0.5623  0.6900 -0.3029
   80SLPC   O11 7366   3.057   3.839   6.245  0.3860 -0.0699 -0.3241
   80SLPC    C1 7367   3.135   3.930   6.329  0.1656  0.0039 -0.8692
   80SLPC    HA 7368   3.244   3.916   6.315  0.1809  1.1261 -2.1113
   80SLPC    HB 7369   3.103   4.033   6.303 -2.3088 -0.8085 -1.4132
   80SLPC    C2 7370   3.102   3.926   6.484 -0.1694  0.1460 -0.4200
   80SLPC    HS 7371   3.164   4.002   6.536  0.1118 -0.0536 -0.4619
   80SLPC   O21 7372   3.121   3.798   6.548  0.3609 -0.6013  0.4775
   80SLPC   C21 7373   3.244   3.753   6.551  0.3987  0.2989  0.6341
   80SLPC   O22 7374   3.341   3.806   6.503 -0.6030 -0.0403 -0.5108
   80SLPC   C22 7375   3.237   3.619   6.623  0.0364  0.1554 -0.5571
   80SLPC   H2R 7376   3.180   3.635   6.717 -1.3770 -0.0858 -1.3423
   80SLPC   H2S 7377   3.167   3.551   6.570 -1.6649  1.0361  0.4780
   80SLPC    C3 7378   2.955   3.972   6.509  0.0481  0.4446  0.2934
   80SLPC    HX 7379   2.887   3.901   6.458 -1.8354  3.4768 -1.7126
   80SLPC    HY 7380   2.940   4.066   6.451 -2.5805 -0.9690 -1.4674
   80SLPC   O31 7381   2.918   3.987   6.645 -0.4086 -0.1559  0.3125
   80SLPC   C31 7382   2.961   4.099   6.708 -0.4289  0.2591 -0.4837
   80SLPC   O32 7383   3.031   4.188   6.659  0.1332  0.2617  0.5660
   80SLPC   C32 7384   2.904   4.097   6.847  1.0206  0.5592  0.3720
   80SLPC   H2X 7385   2.840   4.006   6.851  0.8600  0.4796 -2.3803
   80SLPC   H2Y 7386   2.838   4.186   6.860 -0.6384 -0.5144 -0.4035
   80SLPC   C23 7387   3.370   3.546   6.632  1.1743 -0.6558 -0.0281
   80SLPC   H3R 7388   3.412   3.553   6.529  0.1244 -1.3425 -0.5204
   80SLPC   H3S 7389   3.357   3.437   6.648  1.4850 -0.6204  0.4780
   80SLPC   C24 7390   3.469   3.600   6.734 -0.9228  0.2357 -0.5177
   80SLPC   H4R 7391   3.449   3.709   6.732  1.1835  0.7137  1.0381
   80SLPC   H4S 7392   3.575   3.578   6.706 -0.8248  1.1235 -0.8735
   80SLPC   C25 7393   3.463   3.536   6.871 -0.3889  0.5968 -0.3083
   80SLPC   H5R 7394   3.452   3.426   6.866  2.1902  0.2380  0.4348
   80SLPC   H5S 7395   3.373   3.578   6.921  0.4441  1.3850  0.5635
   80SLPC   C26 7396   3.587   3.558   6.959 -0.2533  0.6447 -0.5369
   80SLPC   H6R 7397   3.597   3.669   6.963  1.3251  0.4869  1.0772
   80SLPC   H6S 7398   3.680   3.518   6.913  0.0664 -0.0141  0.6582
   80SLPC   C27 7399   3.575   3.495   7.095 -0.4712 -0.4413  0.4808
   80SLPC   H7R 7400   3.578   3.384   7.089  1.4096 -0.3843 -0.2683
   80SLPC   H7S 7401   3.478   3.531   7.134  0.6169  0.8917  2.0704
   80SLPC   C28 7402   3.686   3.554   7.182 -0.4056  0.2903 -0.2524
   80SLPC   H8R 7403   3.690   3.665   7.181  1.3373  0.2517  0.1622
   80SLPC   H8S 7404   3.789   3.529   7.149 -0.5430  0.8834 -1.1855
   80SLPC   C29 7405   3.651   3.521   7.327 -0.1800  0.5491 -0.0917
   80SLPC   H9R 7406   3.546   3.546   7.346  0.0730  0.8892  0.9136
   80SLPC  C210 7407   3.725   3.473   7.427 -0.3057  0.8501  0.1409
   80SLPC  H10R 7408   3.686   3.450   7.528  0.7169 -0.7579  0.2120
   80SLPC  C211 7409   3.873   3.442   7.412  0.4050  0.2775  0.3044
   80SLPC  H11R 7410   3.916   3.498   7.327 -2.2315  0.2026 -1.1749
   80SLPC  H11S 7411   3.888   3.336   7.384 -0.0258  0.2704  0.0909
   80SLPC  C212 7412   3.948   3.477   7.534 -0.5138 -0.5101  0.0271
   80SLPC  H12R 7413   4.011   3.565   7.518 -0.7904  0.3344  2.9997
   80SLPC  C213 7414   3.951   3.437   7.660  0.3493 -0.2175  0.1920
   80SLPC  H13R 7415   4.026   3.487   7.723  1.4000 -1.9655  0.4159
   80SLPC  C214 7416   3.879   3.322   7.721 -0.1029 -0.9488  0.7730
   80SLPC  H14R 7417   3.849   3.243   7.649 -2.3065 -0.4666  1.0966
   80SLPC  H14S 7418   3.786   3.360   7.766  0.1099 -0.3264  0.6953
   80SLPC  C215 7419   3.962   3.244   7.832  0.6948 -0.1098 -0.0350
   80SLPC  H15R 7420   4.064   3.227   7.792  0.2362 -3.1352 -0.1378
   80SLPC  H15S 7421   3.911   3.148   7.856 -0.2078  0.5560  0.7824
   80SLPC  C216 7422   3.964   3.321   7.965 -1.0159 -0.2244 -0.4833
   80SLPC  H16R 7423   3.863   3.339   8.007 -1.3148 -0.3330 -1.1410
   80SLPC  H16S 7424   4.020   3.415   7.945 -0.8036 -0.1055  0.6227
   80SLPC  C217 7425   4.042   3.244   8.071 -0.5845  0.0912  0.1731
   80SLPC  H17R 7426   4.133   3.207   8.019 -1.3447  0.1192 -1.2383
   80SLPC  H17S 7427   3.975   3.163   8.107 -1.6748  1.3643  1.1235
   80SLPC  C218 7428   4.080   3.338   8.187 -0.2107 -0.7000 -0.2459
   80SLPC  H18R 7429   4.146   3.280   8.256  1.9222 -1.5681 -2.8357
   80SLPC  H18S 7430   3.991   3.385   8.234 -0.9918 -4.0659  1.9518
   80SLPC  H18T 7431   4.141   3.426   8.155  0.6539 -0.8433  0.9412
   80SLPC   C33 7432   3.016   4.086   6.946  0.5292 -0.4406 -0.1559
   80SLPC   H3X 7433   3.054   4.190   6.951 -0.4070 -0.1383  1.4179
   80SLPC   H3Y 7434   3.089   4.011   6.907  0.0750 -0.5850 -0.7290
   80SLPC   C34 7435   2.968   4.053   7.088 -0.2339  0.1466 -0.6325
   80SLPC   H4X 7436   2.933   3.947   7.091 -1.0788  0.4315  1.6580
   80SLPC   H4Y 7437   2.868   4.096   7.110  0.2296  0.5443  0.8176
   80SLPC   C35 7438   3.074   4.080   7.198 -0.0993  0.4736 -0.2077
   80SLPC   H5X 7439   3.113   4.184   7.206 -1.1388  0.8553  0.0292
   80SLPC   H5Y 7440   3.161   4.017   7.168 -0.8200 -1.4012  1.4747
   80SLPC   C36 7441   3.030   4.037   7.343  0.0312  0.2936 -0.3908
   80SLPC   H6X 7442   3.008   3.928   7.349  0.6082  0.1894 -0.0509
   80SLPC   H6Y 7443   2.940   4.095   7.372 -1.0030 -1.3238 -0.2397
   80SLPC   C37 7444   3.124   4.060   7.459 -0.2355  0.1257 -0.4760
   80SLPC   H7X 7445   3.152   4.168   7.457  0.9526 -0.1350 -3.2446
   80SLPC   H7Y 7446   3.217   3.999   7.455  0.7803  1.5311  0.5177
   80SLPC   C38 7447   3.043   4.022   7.593  0.1772  0.0545  0.3872
   80SLPC   H8X 7448   3.014   3.916   7.572 -3.4959  0.5732  2.0081
   80SLPC   H8Y 7449   2.946   4.075   7.608 -1.4120 -3.2346  3.5875
   80SLPC   C39 7450   3.125   4.019   7.723 -0.3000 -0.8824 -0.9548
   80SLPC   H9X 7451   3.165   4.120   7.745 -2.4231  0.1833 -1.6447
   80SLPC   H9Y 7452   3.211   3.949   7.720 -0.3685 -1.0432  0.3901
   80SLPC  C310 7453   3.045   3.967   7.845  0.1314  0.3487 -0.0306
   80SLPC  H10X 7454   3.016   3.865   7.813 -0.8409  0.2985  0.9499
   80SLPC  H10Y 7455   2.959   4.037   7.852 -0.9519 -1.0145  0.8420
   80SLPC  C311 7456   3.119   3.958   7.980  0.0084  0.9533  0.1056
   80SLPC  H11X 7457   3.186   3.869   7.980 -0.6630  0.4232  1.3059
   80SLPC  H11Y 7458   3.044   3.938   8.059  1.3555 -3.2067  0.5963
   80SLPC  C312 7459   3.200   4.077   8.017 -0.2760  0.4069 -0.3236
   80SLPC  H12X 7460   3.145   4.167   7.983 -1.1553 -0.1967 -0.5590
   80SLPC  H12Y 7461   3.294   4.049   7.964 -1.1985 -0.9170 -1.3409
   80SLPC  C313 7462   3.232   4.091   8.168 -0.4160 -0.3515 -0.4691
   80SLPC  H13X 7463   3.311   4.168   8.182  0.6088 -1.5832  1.0340
   80SLPC  H13Y 7464   3.273   4.000   8.217  0.0327  0.8591  1.5435
   80SLPC  C314 7465   3.103   4.143   8.251  0.0186  0.4566  0.8303
   80SLPC  H14X 7466   3.046   4.052   8.280 -3.1161  0.7093 -3.5258
   80SLPC  H14Y 7467   3.036   4.209   8.192 -1.3896 -0.5040  1.3149
   80SLPC  C315 7468   3.136   4.218   8.378  0.0782  0.1110  0.1813
   80SLPC  H15X 7469   3.047   4.266   8.426 -0.0176 -0.0810  0.1953
   80SLPC  H15Y 7470   3.197   4.309   8.360  2.0996 -1.3399 -0.6503
   80SLPC  C316 7471   3.205   4.128   8.481  0.7955 -0.2392  0.1830
   80SLPC  H16X 7472   3.303   4.100   8.437  0.1073 -0.1585 -1.4843
   80SLPC  H16Y 7473   3.140   4.038   8.488 -1.1767  0.9650 -1.5470
   80SLPC  C317 7474   3.245   4.197   8.608 -0.4751 -0.0383  0.1150
   80SLPC  H17X 7475   3.260   4.118   8.685 -0.2269  0.0420  0.1516
   80SLPC  H17Y 7476   3.162   4.263   8.641  0.8558  0.5108  2.6843
   80SLPC  C318 7477   3.369   4.279   8.591  0.0944  0.1880 -0.1457
   80SLPC  H18X 7478   3.455   4.215   8.563  1.1711  1.3531  0.4120
   80SLPC  H18Y 7479   3.400   4.328   8.686  1.4039  0.1424 -0.5274
   80SLPC  H18Z 7480   3.360   4.353   8.509  3.5676  0.1292 -0.7185
   81SAPS     N 7481   3.124   4.781  10.919  0.2944  0.1032 -1.2283
   81SAPS   HN1 7482   3.042   4.819  10.868 -1.3345 -1.0034  0.4507
   81SAPS   HN2 7483   3.122   4.678  10.933  0.7587  0.4071  1.5644
   81SAPS   HN3 7484   3.135   4.821  11.014 -1.1799 -2.6415  0.2062
   81SAPS   C12 7485   3.254   4.807  10.850 -0.2098 -0.6909 -0.0985
   81SAPS  H12A 7486   3.238   4.791  10.745 -0.8070 -0.3449 -0.0605
   81SAPS   C13 7487   3.298   4.959  10.864  0.2684 -0.2986 -0.0403
   81SAPS  O13A 7488   3.232   5.042  10.933  0.0436  0.5216  0.0694
   81SAPS  O13B 7489   3.385   5.003  10.790 -0.2313 -0.0525  0.4249
   81SAPS   C11 7490   3.362   4.717  10.915  0.6053 -0.4451 -0.2505
   81SAPS  H11A 7491   3.375   4.745  11.022  0.1524  0.1553 -0.3501
   81SAPS  H11B 7492   3.454   4.730  10.854  0.3447  5.0025  0.0694
   81SAPS     P 7493   3.363   4.479  10.812  0.2868 -0.0221  0.3312
   81SAPS   O13 7494   3.498   4.425  10.861  0.5205  0.1443 -0.5130
   81SAPS   O14 7495   3.257   4.377  10.782 -0.0941  0.0658 -0.2765
   81SAPS   O12 7496   3.318   4.577  10.913 -0.2327 -0.6243 -0.0259
   81SAPS   O11 7497   3.386   4.561  10.681  0.0219  0.4283  0.4353
   81SAPS    C1 7498   3.376   4.500  10.556 -0.0687  0.2545  0.4773
   81SAPS    HA 7499   3.285   4.437  10.543  0.1787 -0.2741  1.2841
   81SAPS    HB 7500   3.361   4.579  10.480 -0.1499 -0.9347 -0.7934
   81SAPS    C2 7501   3.510   4.433  10.522  0.8701 -0.8590 -0.0284
   81SAPS    HS 7502   3.518   4.356  10.603  1.4782  0.1024  0.8510
   81SAPS   O21 7503   3.624   4.519  10.549  0.1606 -0.6910 -0.4850
   81SAPS   C21 7504   3.741   4.456  10.567 -0.6766 -0.1406  0.2499
   81SAPS   O22 7505   3.754   4.337  10.585 -0.2870  0.1848 -0.7296
   81SAPS   C22 7506   3.856   4.560  10.540 -0.0632  0.1337 -0.4324
   81SAPS   H2R 7507   3.817   4.619  10.455 -2.0487 -0.1150  0.2485
   81SAPS   H2S 7508   3.864   4.627  10.628 -0.7604 -0.1712 -0.1296
   81SAPS    C3 7509   3.514   4.380  10.378 -0.1296  0.7721  0.0168
   81SAPS    HX 7510   3.438   4.300  10.388 -1.1067  1.6635 -0.1087
   81SAPS    HY 7511   3.608   4.326  10.354  0.4744  1.8311 -0.0839
   81SAPS   O31 7512   3.481   4.473  10.275  0.5175  0.6254  0.0005
   81SAPS   C31 7513   3.572   4.536  10.208 -0.2691 -0.1658 -0.6731
   81SAPS   O32 7514   3.688   4.537  10.235 -0.2787  0.3528  0.4961
   81SAPS   C32 7515   3.521   4.613  10.086  0.1848  0.0520  0.5737
   81SAPS   H2X 7516   3.542   4.720  10.109  0.2506  0.6836 -2.0833
   81SAPS   H2Y 7517   3.416   4.585  10.066 -0.6772  3.2194  0.1620
   81SAPS   C23 7518   3.986   4.499  10.488  0.0383 -0.4178  0.0713
   81SAPS   H3R 7519   4.001   4.409  10.552 -0.2797  0.3337  1.2255
   81SAPS   H3S 7520   4.061   4.574  10.522  2.4129 -1.5252 -2.3526
   81SAPS   C24 7521   3.996   4.492  10.332  0.3783  0.0012 -0.2960
   81SAPS   H4R 7522   3.954   4.587  10.293 -0.3846 -0.8848 -1.7131
   81SAPS   H4S 7523   3.926   4.410  10.307 -1.8167  1.2672  1.3851
   81SAPS   C25 7524   4.137   4.468  10.288 -0.4782  0.2835 -0.1320
   81SAPS   H5R 7525   4.183   4.376  10.326  0.9658  1.2510  0.5095
   81SAPS   C26 7526   4.211   4.539  10.200  0.3985  0.2411 -0.4163
   81SAPS   H6R 7527   4.308   4.500  10.168  0.5004 -0.4735  0.6835
   81SAPS   C27 7528   4.155   4.657  10.129  0.2005 -0.6027  0.4129
   81SAPS   H7R 7529   4.239   4.694  10.066  1.3215 -3.3959  0.1044
   81SAPS   H7S 7530   4.120   4.733  10.202  2.9137 -1.4851  2.8388
   81SAPS   C28 7531   4.043   4.613  10.034  0.6579  0.0790  0.0392
   81SAPS   H8R 7532   3.951   4.580  10.085  0.4905 -1.8116 -1.3821
   81SAPS   C29 7533   4.044   4.626   9.898 -0.1230  0.4120 -0.2621
   81SAPS   H9R 7534   3.982   4.573   9.824 -0.7685  1.7854 -0.7306
   81SAPS  C210 7535   4.166   4.681   9.816  0.3200  0.1577  0.4326
   81SAPS  H10R 7536   4.221   4.600   9.763  1.8663  1.9109 -0.7609
   81SAPS  H10S 7537   4.244   4.725   9.882  0.4248  0.7008 -0.0474
   81SAPS  C211 7538   4.111   4.778   9.718  0.0357  0.2405  0.5988
   81SAPS  H11R 7539   4.070   4.861   9.776 -3.2076 -0.8083  0.0629
   81SAPS  C212 7540   4.106   4.766   9.584  0.0367  0.1592  0.3553
   81SAPS  H12R 7541   4.065   4.853   9.532  1.5359 -0.0837 -1.3396
   81SAPS  C213 7542   4.152   4.646   9.498  0.0950  0.4327 -0.1911
   81SAPS  H13R 7543   4.195   4.568   9.564  2.1911  2.7195  1.3323
   81SAPS  H13S 7544   4.238   4.677   9.434 -0.1846 -2.3717 -2.1085
   81SAPS  C214 7545   4.055   4.567   9.405  0.0201 -1.0664  0.5323
   81SAPS  H14R 7546   4.012   4.476   9.448  2.0014 -1.0254  2.7649
   81SAPS  C215 7547   4.047   4.585   9.272 -0.2338  0.0501 -0.2229
   81SAPS  H15R 7548   3.975   4.524   9.216  0.6332 -0.6055 -0.6484
   81SAPS  C216 7549   4.117   4.682   9.192  0.2540  0.2181 -0.9786
   81SAPS  H16R 7550   4.225   4.655   9.183  0.5322 -1.0878  3.9071
   81SAPS  H16S 7551   4.113   4.777   9.250  1.6729  0.0925 -0.6313
   81SAPS  C217 7552   4.047   4.707   9.056 -0.2450 -0.0298 -0.5154
   81SAPS  H17R 7553   4.095   4.806   9.039  2.0782 -0.9533  0.2021
   81SAPS  H17S 7554   3.937   4.715   9.055 -0.2776 -0.4106 -0.3456
   81SAPS  C218 7555   4.080   4.607   8.949 -0.1717 -0.0690 -0.7543
   81SAPS  H18R 7556   4.022   4.513   8.960  0.3204 -0.0661  2.7399
   81SAPS  H18S 7557   4.189   4.587   8.960 -0.5162 -1.4671  0.4038
   81SAPS  C219 7558   4.058   4.658   8.802  0.3666 -0.4356 -0.2914
   81SAPS  H19R 7559   4.134   4.740   8.804 -0.4000  0.2810  1.7876
   81SAPS  H19S 7560   3.960   4.709   8.803  0.8531  0.5377  1.2131
   81SAPS  C220 7561   4.097   4.558   8.689 -1.1203 -0.1167 -0.4023
   81SAPS  H20R 7562   4.207   4.544   8.687 -1.1868 -1.2445  1.2621
   81SAPS  H20S 7563   4.058   4.604   8.596 -1.6657 -0.7849 -0.5106
   81SAPS  H20T 7564   4.059   4.453   8.690  0.7654 -0.8679  1.9505
   81SAPS   C33 7565   3.616   4.602   9.960 -0.2968  0.1673 -0.0663
   81SAPS   H3X 7566   3.633   4.495   9.936 -0.0487  0.5788 -1.8540
   81SAPS   H3Y 7567   3.711   4.653   9.987 -1.4231  2.1886  0.2219
   81SAPS   C34 7568   3.557   4.658   9.830  0.2167 -0.2461 -0.3632
   81SAPS   H4X 7569   3.547   4.769   9.825 -0.5043 -0.3183 -0.6429
   81SAPS   H4Y 7570   3.459   4.606   9.823 -0.6072  1.2141 -0.0990
   81SAPS   C35 7571   3.652   4.633   9.708  0.3370 -0.0500  0.1542
   81SAPS   H5X 7572   3.721   4.547   9.720 -1.2874 -1.3106  0.9096
   81SAPS   H5Y 7573   3.716   4.724   9.710 -0.1299  0.2933  2.0929
   81SAPS   C36 7574   3.585   4.620   9.571 -0.5684 -0.0961 -0.2471
   81SAPS   H6X 7575   3.544   4.518   9.553 -0.2080  0.2693 -3.8225
   81SAPS   H6Y 7576   3.673   4.635   9.506 -0.0397  0.3550  0.5536
   81SAPS   C37 7577   3.476   4.719   9.543  0.3806  0.0282 -0.5650
   81SAPS   H7X 7578   3.506   4.824   9.563 -0.7833  0.5775 -1.5266
   81SAPS   H7Y 7579   3.401   4.679   9.614 -0.6104  0.1559 -1.5091
   81SAPS   C38 7580   3.401   4.701   9.412  0.4050 -0.7845  0.3305
   81SAPS   H8X 7581   3.324   4.780   9.398  1.4518  0.6274  2.1326
   81SAPS   H8Y 7582   3.348   4.603   9.421 -2.4749  0.6618  0.4723
   81SAPS   C39 7583   3.484   4.700   9.287 -0.0942 -0.1121  0.6603
   81SAPS   H9X 7584   3.571   4.632   9.299 -0.0905 -0.1309  0.5290
   81SAPS   H9Y 7585   3.533   4.796   9.261  2.3665 -1.3640  0.3929
   81SAPS  C310 7586   3.411   4.658   9.161 -0.2422  0.2794 -0.4100
   81SAPS  H10X 7587   3.323   4.726   9.154  0.2997  1.0604  0.1267
   81SAPS  H10Y 7588   3.384   4.551   9.175 -0.4084  0.5290  1.5182
   81SAPS  C311 7589   3.492   4.669   9.032  0.3076 -0.2670  0.0765
   81SAPS  H11X 7590   3.519   4.777   9.028 -1.1048  0.2927  3.0511
   81SAPS  H11Y 7591   3.430   4.657   8.940  0.6826 -1.4383 -0.0387
   81SAPS  C312 7592   3.604   4.568   9.012  0.1400 -0.7175 -0.1395
   81SAPS  H12X 7593   3.553   4.472   8.993  0.2756 -0.3807 -2.5224
   81SAPS  H12Y 7594   3.682   4.578   9.090  0.4114  2.2151 -0.6672
   81SAPS  C313 7595   3.678   4.587   8.881 -0.0798  0.1860 -0.3684
   81SAPS  H13X 7596   3.775   4.532   8.892 -0.4265 -0.3078  0.3095
   81SAPS  H13Y 7597   3.700   4.695   8.875 -1.5679  0.4970 -0.4656
   81SAPS  C314 7598   3.611   4.544   8.746  0.6519  0.6722 -0.0634
   81SAPS  H14X 7599   3.526   4.609   8.719  1.2898  1.6345  0.1851
   81SAPS  H14Y 7600   3.570   4.443   8.767  0.1885  0.4963 -1.6877
   81SAPS  C315 7601   3.713   4.554   8.632  0.1237 -0.2164  0.7561
   81SAPS  H15X 7602   3.795   4.483   8.655 -0.5258 -0.7071  1.6222
   81SAPS  H15Y 7603   3.761   4.654   8.623  0.3023 -0.3666 -0.0635
   81SAPS  C316 7604   3.638   4.525   8.498 -1.0365  0.0201 -0.1879
   81SAPS  H16X 7605   3.549   4.592   8.499 -0.2250  1.1530 -1.2581
   81SAPS  H16Y 7606   3.597   4.422   8.496 -1.4510  0.1713  0.1523
   81SAPS  C317 7607   3.728   4.551   8.375  0.2205 -0.6436 -0.6814
   81SAPS  H17X 7608   3.761   4.657   8.372  1.5710 -1.0593 -1.0723
   81SAPS  H17Y 7609   3.678   4.525   8.279  0.1399 -2.4190 -0.1793
   81SAPS  C318 7610   3.853   4.459   8.375 -0.4562 -0.8345  0.0000
   81SAPS  H18X 7611   3.902   4.478   8.473  2.1250  1.3417 -1.5584
   81SAPS  H18Y 7612   3.921   4.493   8.294 -0.7502 -0.1263  0.0401
   81SAPS  H18Z 7613   3.827   4.351   8.374 -1.9032 -0.6109  3.0695
   82SAPS     N 7614   2.487   2.921  10.794 -0.2630  0.1942 -0.4062
   82SAPS   HN1 7615   2.565   2.984  10.819  0.2742 -0.9310  0.8857
   82SAPS   HN2 7616   2.516   2.821  10.794  0.7419  0.4782 -0.5775
   82SAPS   HN3 7617   2.440   2.949  10.706 -0.5173  0.4787 -0.1818
   82SAPS   C12 7618   2.393   2.942  10.904 -0.2514  0.0814 -0.4351
   82SAPS  H12A 7619   2.316   2.869  10.885  2.4033 -2.4907 -2.1178
   82SAPS   C13 7620   2.451   2.900  11.045  0.0865 -0.0922 -0.0429
   82SAPS  O13A 7621   2.550   2.825  11.061  0.5686  0.8278  0.1724
   82SAPS  O13B 7622   2.376   2.930  11.144  0.9090  0.2750  0.1804
   82SAPS   C11 7623   2.333   3.086  10.901 -1.1510  0.5280 -0.0979
   82SAPS  H11A 7624   2.409   3.163  10.927 -0.0480 -0.6636  0.2845
   82SAPS  H11B 7625   2.260   3.094  10.984 -0.9472  0.3707  0.0962
   82SAPS     P 7626   2.152   3.196  10.751  0.3877 -0.2014 -0.0112
   82SAPS   O13 7627   2.043   3.121  10.826 -0.2345  0.5875  0.3538
   82SAPS   O14 7628   2.172   3.336  10.787  0.1737 -0.3402  0.0536
   82SAPS   O12 7629   2.284   3.114  10.767 -0.7115 -0.0315 -0.1031
   82SAPS   O11 7630   2.132   3.195  10.595 -0.1916 -0.0143  0.0913
   82SAPS    C1 7631   2.154   3.081  10.512 -0.4414  0.5245  0.3538
   82SAPS    HA 7632   2.227   3.008  10.553 -0.6098 -0.7679 -1.4957
   82SAPS    HB 7633   2.058   3.028  10.494 -0.8548  0.9170  1.3895
   82SAPS    C2 7634   2.224   3.141  10.384 -0.5928 -0.1229  0.5250
   82SAPS    HS 7635   2.309   3.206  10.414  1.6292 -1.2648 -2.8279
   82SAPS   O21 7636   2.119   3.210  10.314  0.3687 -0.3589 -0.1478
   82SAPS   C21 7637   2.155   3.312  10.240 -0.5018 -0.0902 -0.1421
   82SAPS   O22 7638   2.261   3.377  10.248 -0.0904 -0.2528  0.6956
   82SAPS   C22 7639   2.040   3.345  10.144  0.4377 -0.1969  0.2206
   82SAPS   H2R 7640   1.947   3.285  10.139  1.6569 -2.3463  1.4678
   82SAPS   H2S 7641   2.013   3.450  10.167  2.1973  0.3631 -0.0871
   82SAPS    C3 7642   2.276   3.031  10.290  0.6182 -0.1798 -1.6154
   82SAPS    HX 7643   2.193   2.962  10.265  1.7236 -1.5817 -1.5403
   82SAPS    HY 7644   2.353   2.971  10.342 -0.0846  1.7455  1.9275
   82SAPS   O31 7645   2.329   3.096  10.169 -0.4275  0.5168 -0.4758
   82SAPS   C31 7646   2.459   3.129  10.172  0.0136 -0.0424 -0.1754
   82SAPS   O32 7647   2.528   3.116  10.268 -0.1197  1.1274 -0.2074
   82SAPS   C32 7648   2.504   3.188  10.041  0.4000 -0.3676  0.2083
   82SAPS   H2X 7649   2.565   3.272  10.081  2.1642 -1.4475 -0.1213
   82SAPS   H2Y 7650   2.413   3.240  10.004 -0.8731 -1.3956  1.7391
   82SAPS   C23 7651   2.085   3.339   9.992 -0.1977 -0.0055 -0.6682
   82SAPS   H3R 7652   2.167   3.414   9.982 -3.4425  3.8128 -0.9286
   82SAPS   H3S 7653   2.007   3.390   9.931  0.7448  1.6394 -0.5550
   82SAPS   C24 7654   2.108   3.196   9.935 -0.0907  0.2156 -0.2142
   82SAPS   H4R 7655   2.211   3.159   9.955  0.3884 -0.0091 -2.7177
   82SAPS   H4S 7656   2.114   3.211   9.825  1.1322  0.1235 -0.1792
   82SAPS   C25 7657   2.006   3.088   9.967 -0.6944  0.1006  0.5843
   82SAPS   H5R 7658   1.992   3.056  10.071 -1.0436 -0.8840  0.2373
   82SAPS   C26 7659   1.914   3.033   9.882 -0.5338  0.4218  0.7994
   82SAPS   H6R 7660   1.852   2.950   9.919 -2.1091  0.7253 -0.9770
   82SAPS   C27 7661   1.907   3.072   9.732 -0.3908  0.2701  0.7155
   82SAPS   H7R 7662   1.856   2.990   9.677 -0.2222 -0.0539  1.0323
   82SAPS   H7S 7663   2.007   3.091   9.686  0.0595  0.5771  1.7884
   82SAPS   C28 7664   1.831   3.201   9.727  1.1506  0.1568  0.3800
   82SAPS   H8R 7665   1.855   3.275   9.805  0.5894 -0.7725  1.4680
   82SAPS   C29 7666   1.731   3.219   9.638 -0.3693 -0.8666 -0.7487
   82SAPS   H9R 7667   1.672   3.312   9.648 -0.0217 -0.6711 -0.4991
   82SAPS  C210 7668   1.689   3.121   9.532 -0.1719  0.3402  1.2870
   82SAPS  H10R 7669   1.581   3.127   9.508  0.6569  0.4849 -3.3314
   82SAPS  H10S 7670   1.700   3.015   9.566  1.4505 -0.0356 -0.2376
   82SAPS  C211 7671   1.774   3.144   9.410 -0.6813 -0.3613 -0.5403
   82SAPS  H11R 7672   1.877   3.106   9.419 -0.2134  0.9495 -0.0774
   82SAPS  C212 7673   1.733   3.196   9.292 -0.0035  0.6892 -0.0330
   82SAPS  H12R 7674   1.804   3.221   9.212 -1.3799  0.5727 -1.3534
   82SAPS  C213 7675   1.597   3.252   9.265  0.3451  0.1171  0.3062
   82SAPS  H13R 7676   1.612   3.331   9.188  2.3873 -1.3454 -0.9047
   82SAPS  H13S 7677   1.551   3.292   9.358  1.7633 -2.4805  2.2565
   82SAPS  C214 7678   1.506   3.150   9.218  0.5627  0.4393 -0.4508
   82SAPS  H14R 7679   1.432   3.110   9.289  1.6510 -1.8334 -0.5279
   82SAPS  C215 7680   1.520   3.077   9.106 -0.3241 -0.1572  0.5088
   82SAPS  H15R 7681   1.444   3.000   9.089 -1.4864  1.0022  0.2542
   82SAPS  C216 7682   1.631   3.078   9.001 -0.2887 -0.8950 -0.7698
   82SAPS  H16R 7683   1.668   2.974   8.989  0.3560 -0.8534  0.6239
   82SAPS  H16S 7684   1.720   3.144   9.011  0.3360 -1.7425 -0.6063
   82SAPS  C217 7685   1.561   3.124   8.869 -0.0809  0.6484  0.0698
   82SAPS  H17R 7686   1.520   3.227   8.869  0.2028  0.7742 -0.6562
   82SAPS  H17S 7687   1.486   3.048   8.841  3.0963 -3.0554  0.6875
   82SAPS  C218 7688   1.664   3.108   8.758 -0.5095  0.0128  0.4158
   82SAPS  H18R 7689   1.680   2.998   8.751 -0.5182  0.0501 -0.1955
   82SAPS  H18S 7690   1.761   3.160   8.778 -0.5795  1.1292 -1.8191
   82SAPS  C219 7691   1.613   3.156   8.621 -0.3761 -0.2442 -0.0947
   82SAPS  H19R 7692   1.523   3.097   8.592 -0.4688  0.2653 -0.8864
   82SAPS  H19S 7693   1.682   3.146   8.535  1.8620 -0.4033  1.6373
   82SAPS  C220 7694   1.572   3.304   8.622  0.3849 -0.0805  0.2006
   82SAPS  H20R 7695   1.582   3.338   8.517  0.3017 -0.1313  0.1764
   82SAPS  H20S 7696   1.633   3.377   8.680 -1.6930  0.0646  2.3871
   82SAPS  H20T 7697   1.467   3.323   8.654 -0.1763 -2.6533  0.0816
   82SAPS   C33 7698   2.583   3.092   9.952  0.2391 -0.0358  1.2958
   82SAPS   H3X 7699   2.673   3.046  10.000  0.5008  0.2616  1.0936
   82SAPS   H3Y 7700   2.629   3.149   9.869  3.3481 -2.9860  0.7621
   82SAPS   C34 7701   2.501   2.979   9.895  0.9303 -0.2322  0.8842
   82SAPS   H4X 7702   2.397   3.009   9.870  1.4048  1.0028  0.3178
   82SAPS   H4Y 7703   2.484   2.911   9.981 -0.2391 -0.5200  0.4458
   82SAPS   C35 7704   2.563   2.909   9.770 -0.5477  0.1988  0.4775
   82SAPS   H5X 7705   2.667   2.882   9.796 -0.7920 -1.7282 -0.3882
   82SAPS   H5Y 7706   2.577   2.981   9.687  1.7602 -0.2260  0.4383
   82SAPS   C36 7707   2.490   2.784   9.744  0.8028  0.5777  1.0747
   82SAPS   H6X 7708   2.417   2.751   9.822  1.2068  0.3232  1.3497
   82SAPS   H6Y 7709   2.572   2.708   9.744  1.0582  0.8259 -0.5522
   82SAPS   C37 7710   2.429   2.782   9.594 -0.4400 -0.3652 -1.0679
   82SAPS   H7X 7711   2.379   2.687   9.568 -2.2765 -0.1583  1.3976
   82SAPS   H7Y 7712   2.512   2.781   9.519 -0.0236  0.3790 -0.6312
   82SAPS   C38 7713   2.332   2.897   9.565 -0.2333 -0.2821  0.1644
   82SAPS   H8X 7714   2.388   2.990   9.544 -0.5545 -0.4669 -1.6716
   82SAPS   H8Y 7715   2.261   2.916   9.649 -0.9748 -1.2954 -0.2092
   82SAPS   C39 7716   2.257   2.893   9.428  0.3575 -0.5347 -0.6274
   82SAPS   H9X 7717   2.196   2.800   9.419 -0.2968 -0.2046  0.2597
   82SAPS   H9Y 7718   2.338   2.888   9.352  0.6855 -0.8110 -0.2640
   82SAPS  C310 7719   2.180   3.021   9.404  0.6253  0.0479 -0.8005
   82SAPS  H10X 7720   2.249   3.107   9.418 -0.7243  0.8429  1.5091
   82SAPS  H10Y 7721   2.102   3.027   9.483 -0.0808  0.8574 -1.5358
   82SAPS  C311 7722   2.111   3.021   9.263 -0.0470 -0.7919 -0.3411
   82SAPS  H11X 7723   2.044   3.109   9.268  0.5861 -0.3669  2.0839
   82SAPS  H11Y 7724   2.051   2.928   9.249 -0.2577 -1.2264  2.7290
   82SAPS  C312 7725   2.213   3.044   9.147  1.3170 -0.0973  0.7734
   82SAPS  H12X 7726   2.270   2.949   9.137 -1.6560 -1.9470  0.2359
   82SAPS  H12Y 7727   2.284   3.130   9.157  2.0128 -0.3230 -1.6289
   82SAPS  C313 7728   2.137   3.050   9.011  0.8063 -0.3155 -0.2868
   82SAPS  H13X 7729   2.029   3.030   9.030  0.0766  3.7864  0.7789
   82SAPS  H13Y 7730   2.178   2.965   8.951 -1.1162 -2.0290  0.7043
   82SAPS  C314 7731   2.152   3.182   8.939  0.5980  0.7815 -0.3895
   82SAPS  H14X 7732   2.256   3.210   8.911  0.6848 -0.7211 -1.6686
   82SAPS  H14Y 7733   2.107   3.263   9.001  0.1259 -0.1148  0.4635
   82SAPS  C315 7734   2.073   3.184   8.803 -0.0196 -0.3451  0.3618
   82SAPS  H15X 7735   1.990   3.112   8.817 -1.9133  1.5811 -0.4991
   82SAPS  H15Y 7736   2.139   3.132   8.730  1.2089  1.5337  0.0513
   82SAPS  C316 7737   2.010   3.321   8.771 -0.0485  0.7428  0.6095
   82SAPS  H16X 7738   2.061   3.407   8.819 -0.9684  1.9776 -0.5253
   82SAPS  H16Y 7739   1.907   3.321   8.813 -0.5138 -1.8420 -0.3630
   82SAPS  C317 7740   2.014   3.358   8.622 -0.3299  0.2779  0.6369
   82SAPS  H17X 7741   1.950   3.294   8.558  0.0290  0.8008 -0.2551
   82SAPS  H17Y 7742   2.119   3.355   8.587 -0.1716  1.5496  0.9202
   82SAPS  C318 7743   1.977   3.502   8.596 -0.2661  0.3117  0.3504
   82SAPS  H18X 7744   2.036   3.577   8.653 -2.0328  1.8420  0.2483
   82SAPS  H18Y 7745   1.871   3.516   8.625 -0.7017 -0.0400 -0.9962
   82SAPS  H18Z 7746   1.983   3.523   8.487 -0.5686 -1.4715 -0.0420
   83SAPS     N 7747   5.150   4.412  11.323  0.4136 -0.1175  0.1999
   83SAPS   HN1 7748   5.160   4.505  11.369 -0.4054  0.0846 -0.0197
   83SAPS   HN2 7749   5.118   4.417  11.225  0.4165 -2.1907  0.0640
   83SAPS   HN3 7750   5.089   4.347  11.377  1.1596 -1.8606 -0.9739
   83SAPS   C12 7751   5.281   4.354  11.331 -0.4384 -0.6909 -0.4645
   83SAPS  H12A 7752   5.296   4.347  11.438  0.0907 -1.2821 -0.5738
   83SAPS   C13 7753   5.304   4.206  11.283 -0.4650  0.3340  0.0297
   83SAPS  O13A 7754   5.210   4.138  11.247 -0.0363  0.2048 -0.1455
   83SAPS  O13B 7755   5.418   4.161  11.309  0.4756 -0.1260  0.9013
   83SAPS   C11 7756   5.385   4.450  11.269  0.0824 -0.3867  0.6646
   83SAPS  H11A 7757   5.343   4.467  11.168  0.2045  2.0933  0.9753
   83SAPS  H11B 7758   5.481   4.396  11.252  0.7081  0.5391  1.1664
   83SAPS     P 7759   5.343   4.705  11.299 -0.1149  0.4978 -0.1899
   83SAPS   O13 7760   5.203   4.708  11.355 -0.3790  0.0256 -0.0635
   83SAPS   O14 7761   5.431   4.814  11.336  0.1586 -0.2849  0.0568
   83SAPS   O12 7762   5.409   4.571  11.343 -0.3860  0.0885  0.6443
   83SAPS   O11 7763   5.337   4.692  11.146  0.1537 -0.0751 -0.0334
   83SAPS    C1 7764   5.447   4.754  11.068  0.4360  0.2558 -0.3343
   83SAPS    HA 7765   5.435   4.864  11.066 -1.9942  0.0750  0.7777
   83SAPS    HB 7766   5.549   4.727  11.104 -0.4090 -2.5553  0.1888
   83SAPS    C2 7767   5.439   4.713  10.916  0.6888 -0.1758 -0.1156
   83SAPS    HS 7768   5.516   4.777  10.867 -0.5526  2.1882  0.8567
   83SAPS   O21 7769   5.300   4.731  10.866  0.1711 -0.0420 -0.6767
   83SAPS   C21 7770   5.302   4.781  10.743  0.1409 -0.7827 -0.0140
   83SAPS   O22 7771   5.400   4.820  10.685 -0.2150  0.0474 -0.1704
   83SAPS   C22 7772   5.158   4.785  10.690 -0.0290  0.2533 -0.6302
   83SAPS   H2R 7773   5.130   4.677  10.682  0.8035  0.0669 -1.0636
   83SAPS   H2S 7774   5.093   4.839  10.762 -2.6331 -2.7150 -0.5063
   83SAPS    C3 7775   5.477   4.563  10.886  0.6166  0.1610 -0.2006
   83SAPS    HX 7776   5.395   4.498  10.924 -1.1400  2.0289 -0.6478
   83SAPS    HY 7777   5.570   4.537  10.939  1.0168 -1.1550 -1.4551
   83SAPS   O31 7778   5.506   4.533  10.746 -0.4124 -0.0812 -0.2600
   83SAPS   C31 7779   5.421   4.476  10.675  0.5943  0.4587 -0.0488
   83SAPS   O32 7780   5.308   4.438  10.706 -0.1574  0.0868 -0.0987
   83SAPS   C32 7781   5.481   4.444  10.543  0.2029  0.9592  0.2407
   83SAPS   H2X 7782   5.542   4.352  10.555 -0.5889  0.6228  2.1292
   83SAPS   H2Y 7783   5.549   4.528  10.516 -0.5500  1.7526  0.7756
   83SAPS   C23 7784   5.134   4.840  10.542 -0.8458  0.5391 -0.0677
   83SAPS   H3R 7785   5.199   4.793  10.467  1.2986  2.9742  0.1245
   83SAPS   H3S 7786   5.166   4.945  10.527 -2.5554  0.9155 -1.4102
   83SAPS   C24 7787   4.981   4.842  10.503  0.0423 -0.3271 -0.5772
   83SAPS   H4R 7788   4.972   4.894  10.405 -3.3008 -0.8088 -0.6501
   83SAPS   H4S 7789   4.932   4.906  10.579  0.6687  0.7574 -1.0577
   83SAPS   C25 7790   4.929   4.705  10.499 -0.4192  0.6670 -0.7706
   83SAPS   H5R 7791   4.906   4.662  10.597 -0.4880  0.6841 -0.7789
   83SAPS   C26 7792   4.903   4.637  10.388 -0.0702  1.0381  0.0938
   83SAPS   H6R 7793   4.866   4.534  10.399 -0.8638  1.1199 -1.6145
   83SAPS   C27 7794   4.913   4.693  10.248  0.0712 -0.5524  0.6178
   83SAPS   H7R 7795   4.858   4.789  10.237  2.4687  0.7263 -1.2808
   83SAPS   H7S 7796   4.869   4.627  10.171  0.3804  0.5245 -0.5229
   83SAPS   C28 7797   5.055   4.706  10.187  0.6607  0.9210 -0.4207
   83SAPS   H8R 7798   5.128   4.660  10.256 -1.0778 -0.0468  0.8568
   83SAPS   C29 7799   5.088   4.736  10.064  0.0392 -0.3219  1.4737
   83SAPS   H9R 7800   5.193   4.734  10.031  0.9347 -0.4812  4.0974
   83SAPS  C210 7801   4.980   4.764   9.957 -0.1784 -0.7625 -0.0151
   83SAPS  H10R 7802   5.006   4.843   9.884 -0.3094 -1.8911 -1.3274
   83SAPS  H10S 7803   4.886   4.798  10.005 -1.1864 -1.7969 -1.1830
   83SAPS  C211 7804   4.978   4.635   9.874  0.0926 -0.2069 -0.0986
   83SAPS  H11R 7805   4.943   4.547   9.930 -1.1033  0.0947 -0.3350
   83SAPS  C212 7806   5.021   4.630   9.748  0.0834  0.2251 -0.0828
   83SAPS  H12R 7807   5.019   4.535   9.693  2.4888 -0.1503  0.3425
   83SAPS  C213 7808   5.084   4.738   9.660  0.4749  0.1366 -0.2269
   83SAPS  H13R 7809   5.169   4.702   9.597  0.0939 -1.5342  0.1551
   83SAPS  H13S 7810   5.138   4.807   9.728 -0.0168 -0.4566  0.7937
   83SAPS  C214 7811   4.977   4.813   9.587 -0.0943 -0.9819 -0.7817
   83SAPS  H14R 7812   4.901   4.869   9.643  0.5216  1.4646 -2.2269
   83SAPS  C215 7813   4.984   4.836   9.452 -0.6939 -0.1861 -0.3737
   83SAPS  H15R 7814   4.912   4.895   9.392  1.9081  2.4171 -1.1553
   83SAPS  C216 7815   5.087   4.767   9.366  1.2092  1.0375 -0.0311
   83SAPS  H16R 7816   5.081   4.656   9.370  1.3266  0.9600 -1.5317
   83SAPS  H16S 7817   5.192   4.793   9.391  1.5813  0.6266 -1.1037
   83SAPS  C217 7818   5.073   4.786   9.206  0.0647 -0.3830  0.5406
   83SAPS  H17R 7819   4.966   4.773   9.178  0.6632 -1.5024 -1.4100
   83SAPS  H17S 7820   5.130   4.708   9.152 -2.0599 -1.2877 -0.5095
   83SAPS  C218 7821   5.103   4.928   9.145 -0.2662  0.0564  0.0209
   83SAPS  H18R 7822   5.212   4.946   9.159 -0.4570  0.8872  0.4970
   83SAPS  H18S 7823   5.038   5.010   9.185  1.1805  0.3235  1.9944
   83SAPS  C219 7824   5.075   4.929   8.994 -0.1667  0.3507 -0.6421
   83SAPS  H19R 7825   5.124   4.845   8.941 -1.3253  0.3043 -1.6632
   83SAPS  H19S 7826   5.128   5.022   8.963  2.2135 -0.7548 -0.1496
   83SAPS  C220 7827   4.930   4.941   8.936  0.0826  0.0925 -1.2489
   83SAPS  H20R 7828   4.889   5.038   8.971 -0.2061 -0.3127 -0.4431
   83SAPS  H20S 7829   4.870   4.854   8.969 -2.5452  2.7965  1.7366
   83SAPS  H20T 7830   4.942   4.948   8.826  0.9383  2.4688 -1.0696
   83SAPS   C33 7831   5.386   4.433  10.423  0.5285 -0.1233  0.2273
   83SAPS   H3X 7832   5.302   4.506  10.426 -0.6192 -1.3709 -0.2548
   83SAPS   H3Y 7833   5.325   4.339  10.426 -1.2392  0.8165 -2.3806
   83SAPS   C34 7834   5.458   4.438  10.285 -0.0897  0.3983  0.2151
   83SAPS   H4X 7835   5.528   4.352  10.283 -0.0412  0.3655 -3.3838
   83SAPS   H4Y 7836   5.531   4.521  10.285 -0.4145  0.6901  0.1507
   83SAPS   C35 7837   5.364   4.435  10.163 -0.8831  0.1813 -0.2956
   83SAPS   H5X 7838   5.273   4.498  10.175  0.5985  2.4275 -0.2872
   83SAPS   H5Y 7839   5.326   4.332  10.148  3.7147 -1.4245 -3.0549
   83SAPS   C36 7840   5.445   4.466  10.037 -0.8460  0.7560 -0.2071
   83SAPS   H6X 7841   5.533   4.398  10.037 -0.0799  1.6907 -1.4976
   83SAPS   H6Y 7842   5.489   4.568  10.037  0.3270  0.2626  0.5150
   83SAPS   C37 7843   5.368   4.444   9.901 -0.0812  0.1383  0.0887
   83SAPS   H7X 7844   5.284   4.517   9.897  0.6054  0.9032 -0.9011
   83SAPS   H7Y 7845   5.320   4.344   9.901  0.4892 -0.1704 -1.6503
   83SAPS   C38 7846   5.472   4.462   9.789  0.2330 -0.6471  1.1611
   83SAPS   H8X 7847   5.547   4.381   9.780  0.1204 -0.5331 -2.3731
   83SAPS   H8Y 7848   5.527   4.558   9.798  0.4432 -0.6943  0.4828
   83SAPS   C39 7849   5.412   4.479   9.646  0.1687 -0.6961  0.7064
   83SAPS   H9X 7850   5.335   4.555   9.672  0.2210 -1.1457  2.2386
   83SAPS   H9Y 7851   5.352   4.390   9.619  0.8414 -1.3722  1.3987
   83SAPS  C310 7852   5.513   4.526   9.541  0.0618  0.5146  0.2975
   83SAPS  H10X 7853   5.586   4.442   9.536 -1.6704 -1.0935  0.9194
   83SAPS  H10Y 7854   5.561   4.622   9.570  0.1552 -0.0221  2.0437
   83SAPS  C311 7855   5.454   4.540   9.400 -0.1777 -0.5077 -0.5930
   83SAPS  H11X 7856   5.383   4.625   9.406 -0.1959 -0.5216 -0.6076
   83SAPS  H11Y 7857   5.407   4.441   9.380 -2.2076  0.0731  0.8757
   83SAPS  C312 7858   5.555   4.558   9.282 -0.2873 -0.3413 -0.6180
   83SAPS  H12X 7859   5.631   4.477   9.284 -1.2339 -1.2225  0.8511
   83SAPS  H12Y 7860   5.611   4.651   9.306 -1.6392 -0.5552  4.5669
   83SAPS  C313 7861   5.490   4.558   9.142  0.0326  0.0040 -0.7664
   83SAPS  H13X 7862   5.411   4.635   9.134 -0.1292 -0.2618 -1.9482
   83SAPS  H13Y 7863   5.433   4.464   9.120  0.0859 -0.0860 -0.5229
   83SAPS  C314 7864   5.603   4.579   9.032 -0.3484 -0.1673  0.0566
   83SAPS  H14X 7865   5.691   4.516   9.054 -0.8307 -1.2731 -1.0869
   83SAPS  H14Y 7866   5.635   4.684   9.050  0.8164 -0.3641 -0.7983
   83SAPS  C315 7867   5.556   4.547   8.893 -0.1754 -0.6235 -0.2893
   83SAPS  H15X 7868   5.536   4.438   8.889  0.5208 -0.7259 -3.9458
   83SAPS  H15Y 7869   5.629   4.580   8.816 -0.7451 -0.0455 -0.5815
   83SAPS  C316 7870   5.425   4.624   8.862  0.4155 -0.0000  0.1806
   83SAPS  H16X 7871   5.427   4.730   8.896 -1.9474 -0.2044  1.1822
   83SAPS  H16Y 7872   5.347   4.563   8.912  0.1115  0.5058  0.3328
   83SAPS  C317 7873   5.388   4.607   8.714 -0.3486  0.2595 -0.7416
   83SAPS  H17X 7874   5.463   4.665   8.656  0.0300 -1.0569 -1.5975
   83SAPS  H17Y 7875   5.288   4.654   8.707 -2.0876 -2.8607  0.8623
   83SAPS  C318 7876   5.378   4.465   8.659  0.7178  0.0147 -0.0118
   83SAPS  H18X 7877   5.473   4.412   8.638  1.1737 -0.2059  2.3423
   83SAPS  H18Y 7878   5.325   4.465   8.561 -2.4013  0.4583  1.5454
   83SAPS  H18Z 7879   5.312   4.405   8.726  0.0384 -0.2723 -0.9107
   84SAPS     N 7880   1.358   0.424  11.116 -0.1456  0.6067  0.4037
   84SAPS   HN1 7881   1.401   0.402  11.208  1.7547  0.6151 -0.4373
   84SAPS   HN2 7882   1.261   0.389  11.099 -0.1504  0.1638  1.3125
   84SAPS   HN3 7883   1.407   0.384  11.034 -1.6280 -0.8121  0.1510
   84SAPS   C12 7884   1.355   0.570  11.136  0.0036  0.2136 -0.1523
   84SAPS  H12A 7885   1.275   0.585  11.206 -1.3889 -0.4424 -1.5436
   84SAPS   C13 7886   1.486   0.624  11.196 -0.1105  0.0251  0.8705
   84SAPS  O13A 7887   1.585   0.552  11.221 -0.6015  0.1853 -0.8297
   84SAPS  O13B 7888   1.481   0.746  11.232  0.1667  0.2974 -0.6601
   84SAPS   C11 7889   1.333   0.637  11.002 -0.2616 -0.1230 -0.7039
   84SAPS  H11A 7890   1.416   0.610  10.933 -0.0055 -1.9340  0.2676
   84SAPS  H11B 7891   1.343   0.746  11.022 -0.7541 -0.2099  0.0816
   84SAPS     P 7892   1.153   0.659  10.805 -0.0827 -0.0561  0.3337
   84SAPS   O13 7893   1.002   0.651  10.789 -0.7689  0.1156 -0.5343
   84SAPS   O14 7894   1.217   0.794  10.788  0.0639  0.3338  0.0989
   84SAPS   O12 7895   1.206   0.600  10.945  0.6087 -0.1270  0.2183
   84SAPS   O11 7896   1.220   0.575  10.684 -0.1940  0.2283 -0.2708
   84SAPS    C1 7897   1.248   0.436  10.715 -0.0376 -0.2469 -0.1733
   84SAPS    HA 7898   1.348   0.443  10.763 -0.0844 -0.5437 -0.0324
   84SAPS    HB 7899   1.176   0.392  10.786 -1.5683  2.8314  0.3778
   84SAPS    C2 7900   1.282   0.363  10.584 -0.3157 -0.3327  0.8925
   84SAPS    HS 7901   1.373   0.405  10.537 -0.1469 -2.1837 -0.5710
   84SAPS   O21 7902   1.174   0.370  10.497  0.2770  0.3158 -0.0317
   84SAPS   C21 7903   1.190   0.456  10.396 -0.4627 -0.0229  0.2172
   84SAPS   O22 7904   1.295   0.502  10.359 -0.4433 -0.3129  0.3461
   84SAPS   C22 7905   1.059   0.484  10.329 -0.4455  0.5338 -0.0076
   84SAPS   H2R 7906   0.976   0.515  10.396 -1.3927  2.2514 -1.8958
   84SAPS   H2S 7907   1.067   0.580  10.275 -0.1349  1.7432  2.0679
   84SAPS    C3 7908   1.316   0.212  10.617 -0.7817 -0.0753 -0.0053
   84SAPS    HX 7909   1.222   0.160  10.646 -0.9254  0.9238  1.4605
   84SAPS    HY 7910   1.381   0.203  10.707  0.3952 -1.7040 -0.9688
   84SAPS   O31 7911   1.401   0.155  10.512  0.0637  0.4889  1.4169
   84SAPS   C31 7912   1.322   0.095  10.414 -0.8739  0.2615 -0.0936
   84SAPS   O32 7913   1.201   0.084  10.412  0.0651  0.2790 -0.3742
   84SAPS   C32 7914   1.422   0.056  10.302 -0.3999 -0.4915  0.1820
   84SAPS   H2X 7915   1.415  -0.055  10.294 -1.3549 -0.4169 -0.2040
   84SAPS   H2Y 7916   1.527   0.083  10.325 -0.4275  1.1285 -1.4025
   84SAPS   C23 7917   1.022   0.365  10.232  0.1434 -0.5426  0.6650
   84SAPS   H3R 7918   0.916   0.380  10.201  0.9176  1.2047 -1.4146
   84SAPS   H3S 7919   1.036   0.268  10.284  0.7677 -1.5248 -1.2491
   84SAPS   C24 7920   1.095   0.363  10.098 -0.9647  0.8347  0.2812
   84SAPS   H4R 7921   1.205   0.355  10.099 -0.6591  3.1331 -2.2885
   84SAPS   H4S 7922   1.074   0.462  10.050  0.6889  0.2288 -1.8055
   84SAPS   C25 7923   1.049   0.246  10.007 -0.6853 -0.1956 -0.2454
   84SAPS   H5R 7924   1.024   0.158  10.069 -0.2175 -0.9641 -1.1350
   84SAPS   C26 7925   1.044   0.229   9.875 -0.1769 -0.2036  0.0170
   84SAPS   H6R 7926   1.002   0.138   9.830 -0.6240  0.9771 -2.0732
   84SAPS   C27 7927   1.085   0.335   9.780 -0.0654  0.9730  0.2871
   84SAPS   H7R 7928   1.163   0.402   9.825 -0.2593  1.5076 -0.1625
   84SAPS   H7S 7929   0.999   0.403   9.760 -0.4327 -0.1849 -2.4335
   84SAPS   C28 7930   1.149   0.279   9.654 -0.4004 -0.3809 -0.0512
   84SAPS   H8R 7931   1.184   0.176   9.670 -1.1395 -0.5643  0.4350
   84SAPS   C29 7932   1.174   0.342   9.539 -0.1196  0.0697  0.7001
   84SAPS   H9R 7933   1.210   0.284   9.452  0.0083  0.2194  0.6516
   84SAPS  C210 7934   1.142   0.481   9.495 -0.2069  0.3813  0.0314
   84SAPS  H10R 7935   1.072   0.533   9.564  0.7836  0.1225  1.2690
   84SAPS  H10S 7936   1.073   0.465   9.409  0.7096  2.0388 -1.0905
   84SAPS  C211 7937   1.260   0.568   9.470  0.2473 -0.2408  0.1578
   84SAPS  H11R 7938   1.305   0.617   9.558 -1.5653 -3.0783  2.8662
   84SAPS  C212 7939   1.318   0.586   9.354 -0.1524  0.0210 -0.5688
   84SAPS  H12R 7940   1.416   0.635   9.346 -0.9953  2.1749  1.3665
   84SAPS  C213 7941   1.266   0.532   9.223 -0.0599  0.5602 -0.0767
   84SAPS  H13R 7942   1.215   0.614   9.169  1.0659  1.3076 -0.0228
   84SAPS  H13S 7943   1.191   0.450   9.233  0.6248 -0.3367 -1.7603
   84SAPS  C214 7944   1.371   0.452   9.152  0.0150 -0.2503 -0.6131
   84SAPS  H14R 7945   1.405   0.375   9.223 -2.2528  0.1832  1.0191
   84SAPS  C215 7946   1.434   0.458   9.035  0.2271  0.4028 -0.2387
   84SAPS  H15R 7947   1.508   0.379   9.017 -2.2528 -2.1092  0.0264
   84SAPS  C216 7948   1.423   0.563   8.937  0.3558 -0.1583  0.0659
   84SAPS  H16R 7949   1.516   0.623   8.925  0.1214  0.5699  1.6604
   84SAPS  H16S 7950   1.354   0.640   8.976  0.9788 -0.0706  1.0354
   84SAPS  C217 7951   1.382   0.510   8.803 -0.2932  0.5828 -0.2048
   84SAPS  H17R 7952   1.304   0.432   8.804  0.0535  0.0552 -3.5410
   84SAPS  H17S 7953   1.467   0.452   8.762 -1.7655 -1.4062 -0.5873
   84SAPS  C218 7954   1.343   0.608   8.695 -0.2511 -0.3238  0.2638
   84SAPS  H18R 7955   1.413   0.691   8.671 -1.2648  0.7641  0.8935
   84SAPS  H18S 7956   1.248   0.648   8.738 -0.2132 -0.2901  0.3151
   84SAPS  C219 7957   1.302   0.540   8.571 -0.0575  0.3490 -0.9312
   84SAPS  H19R 7958   1.206   0.483   8.577 -1.1538  1.8201 -3.0250
   84SAPS  H19S 7959   1.389   0.475   8.548 -0.3250  0.2459 -1.7018
   84SAPS  C220 7960   1.279   0.626   8.453  0.0396 -0.4213 -0.1150
   84SAPS  H20R 7961   1.209   0.706   8.486 -1.4886 -1.7204 -0.1131
   84SAPS  H20S 7962   1.230   0.577   8.367 -1.3372  0.7604 -0.0455
   84SAPS  H20T 7963   1.370   0.684   8.428  2.0846 -2.6180  1.7858
   84SAPS   C33 7964   1.395   0.116  10.160 -0.2699 -0.5365 -0.1753
   84SAPS   H3X 7965   1.357   0.220  10.159  1.6416  0.2275  1.0660
   84SAPS   H3Y 7966   1.318   0.047  10.118  0.7007 -2.0407  0.4139
   84SAPS   C34 7967   1.519   0.116  10.070 -0.0515  0.0254 -0.1578
   84SAPS   H4X 7968   1.574   0.020  10.078 -1.1736 -0.7331 -1.2222
   84SAPS   H4Y 7969   1.578   0.197  10.119  1.8981 -1.2704 -0.2468
   84SAPS   C35 7970   1.473   0.155   9.928 -0.2614 -0.1844  0.3293
   84SAPS   H5X 7971   1.446   0.263   9.929 -1.8621 -0.5674  0.7288
   84SAPS   H5Y 7972   1.377   0.104   9.908 -0.9937  1.0516  0.6143
   84SAPS   C36 7973   1.569   0.108   9.815  0.1608  0.2221 -0.0917
   84SAPS   H6X 7974   1.579  -0.002   9.821 -0.0469  0.2572  1.0273
   84SAPS   H6Y 7975   1.669   0.153   9.834 -0.3332  0.5139  2.1322
   84SAPS   C37 7976   1.509   0.135   9.672  0.5747 -0.3685 -0.2223
   84SAPS   H7X 7977   1.513   0.245   9.663  3.9726 -0.0515  2.7566
   84SAPS   H7Y 7978   1.405   0.098   9.678  0.8676 -1.1522  0.3478
   84SAPS   C38 7979   1.590   0.057   9.563 -0.2355  0.0576  0.1320
   84SAPS   H8X 7980   1.566  -0.052   9.569  0.9117 -0.1411  1.4998
   84SAPS   H8Y 7981   1.699   0.067   9.579 -0.2811  0.1950  0.3512
   84SAPS   C39 7982   1.552   0.104   9.423  0.6731 -0.7081  0.0424
   84SAPS   H9X 7983   1.614   0.189   9.387  0.3184 -0.4888 -0.0609
   84SAPS   H9Y 7984   1.443   0.124   9.422  1.0447  1.7866 -1.8585
   84SAPS  C310 7985   1.563  -0.011   9.313  0.2160 -0.1102 -0.5804
   84SAPS  H10X 7986   1.503  -0.101   9.336  0.3832 -0.2949 -0.8550
   84SAPS  H10Y 7987   1.671  -0.038   9.314  0.4082  0.6401  0.6931
   84SAPS  C311 7988   1.539   0.036   9.171  0.1776  0.3541 -0.7231
   84SAPS  H11X 7989   1.588   0.135   9.159 -0.8781  1.0194  0.2350
   84SAPS  H11Y 7990   1.430   0.051   9.157  0.0329  1.3640  1.1766
   84SAPS  C312 7991   1.599  -0.061   9.062  0.5759  0.1426 -0.4116
   84SAPS  H12X 7992   1.536  -0.153   9.067  0.1614  0.5097  1.7652
   84SAPS  H12Y 7993   1.699  -0.090   9.102  1.2847  3.2068  0.2388
   84SAPS  C313 7994   1.604  -0.002   8.921  1.0106 -0.3299 -0.0358
   84SAPS  H13X 7995   1.643  -0.089   8.864  0.7253 -2.4896  2.8392
   84SAPS  H13Y 7996   1.663   0.092   8.922  0.8610 -0.2389  0.3469
   84SAPS  C314 7997   1.465   0.041   8.876 -0.4215 -0.7590  0.0239
   84SAPS  H14X 7998   1.435   0.134   8.929 -0.5566 -0.5853 -0.3541
   84SAPS  H14Y 7999   1.386  -0.028   8.914  1.6158 -1.6577  2.9881
   84SAPS  C315 8000   1.455   0.060   8.723 -0.1864  0.4696  0.6849
   84SAPS  H15X 8001   1.351   0.097   8.705 -0.1965 -0.7937 -2.4111
   84SAPS  H15Y 8002   1.470  -0.037   8.672  0.3068 -0.6444  2.8028
   84SAPS  C316 8003   1.556   0.157   8.664 -0.3076  0.0262  0.4146
   84SAPS  H16X 8004   1.658   0.127   8.696 -0.9969 -1.1251  1.6688
   84SAPS  H16Y 8005   1.539   0.253   8.717 -1.6070 -1.1667  2.2634
   84SAPS  C317 8006   1.559   0.175   8.510 -0.1869 -0.1638  0.2804
   84SAPS  H17X 8007   1.463   0.226   8.489 -0.6850 -0.6674  1.2519
   84SAPS  H17Y 8008   1.558   0.077   8.457 -1.3987  0.6317 -1.2544
   84SAPS  C318 8009   1.677   0.258   8.450 -0.0070 -0.0703 -0.3571
   84SAPS  H18X 8010   1.776   0.211   8.465 -0.9883 -2.5620 -1.1787
   84SAPS  H18Y 8011   1.659   0.359   8.495  1.4274  0.6154 -1.2573
   84SAPS  H18Z 8012   1.656   0.273   8.342 -1.4740 -1.7667 -0.3551
   85SAPS     N 8013   5.130   2.267  10.997  0.2905  0.0517 -0.1866
   85SAPS   HN1 8014   5.090   2.319  10.916  0.0662  0.2019  0.0224
   85SAPS   HN2 8015   5.219   2.308  11.033 -0.5784  0.9557  1.0296
   85SAPS   HN3 8016   5.148   2.170  10.965 -0.2436 -0.8251  1.9987
   85SAPS   C12 8017   5.032   2.266  11.106  0.3074 -0.9989  0.2370
   85SAPS  H12A 8018   5.074   2.200  11.180  0.6749  0.7533  1.6795
   85SAPS   C13 8019   5.015   2.397  11.180 -0.2956 -0.5178 -0.5977
   85SAPS  O13A 8020   5.110   2.480  11.178 -0.1244  0.1682 -0.5907
   85SAPS  O13B 8021   4.932   2.390  11.279 -0.3978 -0.6538 -0.0897
   85SAPS   C11 8022   4.894   2.220  11.054  0.4797 -0.4435  0.7051
   85SAPS  H11A 8023   4.866   2.295  10.977  1.4609  0.9776  1.6797
   85SAPS  H11B 8024   4.811   2.223  11.128 -1.1651 -4.0266 -0.7280
   85SAPS     P 8025   4.776   2.000  10.967  0.1153 -0.1349 -0.0358
   85SAPS   O13 8026   4.819   1.863  10.994 -0.2692 -0.1599 -0.1591
   85SAPS   O14 8027   4.653   2.041  11.040  0.6545  0.2553 -0.4926
   85SAPS   O12 8028   4.906   2.085  11.012 -0.7531 -0.2266  0.7611
   85SAPS   O11 8029   4.761   2.046  10.811 -0.3491 -0.1693 -0.3150
   85SAPS    C1 8030   4.887   2.052  10.735 -0.4930 -1.0481  0.2600
   85SAPS    HA 8031   4.959   2.124  10.779 -0.9108 -1.7560  2.1844
   85SAPS    HB 8032   4.936   1.953  10.726  0.6064 -1.1751  5.0672
   85SAPS    C2 8033   4.863   2.109  10.602  0.1132  0.2524  0.0179
   85SAPS    HS 8034   4.822   2.212  10.613 -0.8965 -0.1958  0.6122
   85SAPS   O21 8035   4.758   2.026  10.547 -0.2290 -0.3312 -0.3526
   85SAPS   C21 8036   4.693   2.076  10.449  0.0503 -0.4251  0.3376
   85SAPS   O22 8037   4.708   2.190  10.402  0.0405 -0.1332  0.0053
   85SAPS   C22 8038   4.583   1.982  10.405  0.1898  0.0764  0.4649
   85SAPS   H2R 8039   4.633   1.883  10.402  0.7113  0.3314  0.6458
   85SAPS   H2S 8040   4.495   1.992  10.474  1.1182  2.6499  1.4223
   85SAPS    C3 8041   4.990   2.108  10.505  0.3001 -0.2949  0.2465
   85SAPS    HX 8042   5.074   2.175  10.532  0.9991 -1.6707  1.6068
   85SAPS    HY 8043   4.962   2.170  10.417  0.0125 -1.6832 -0.6757
   85SAPS   O31 8044   5.031   1.976  10.464 -0.1338 -0.4011 -0.5419
   85SAPS   C31 8045   5.127   1.926  10.544 -0.8131 -0.6129  0.0504
   85SAPS   O32 8046   5.202   2.001  10.614  0.2730  0.0396  0.0606
   85SAPS   C32 8047   5.153   1.775  10.521 -0.0048  0.5132 -0.0674
   85SAPS   H2X 8048   5.130   1.756  10.414 -2.8986  2.9808 -0.0114
   85SAPS   H2Y 8049   5.075   1.737  10.590  0.0860  1.9207  0.8442
   85SAPS   C23 8050   4.534   2.016  10.259  0.3192  0.4027  0.0277
   85SAPS   H3R 8051   4.510   1.920  10.208 -0.7355 -0.7096  2.4420
   85SAPS   H3S 8052   4.627   2.047  10.206 -1.0186 -0.7308 -3.2383
   85SAPS   C24 8053   4.424   2.121  10.240  0.1015  0.3485 -0.9977
   85SAPS   H4R 8054   4.417   2.133  10.130 -0.3053  1.5827 -0.8586
   85SAPS   H4S 8055   4.446   2.224  10.276  2.8517 -0.7557  0.7775
   85SAPS   C25 8056   4.288   2.072  10.277 -0.7711  0.3676 -0.2864
   85SAPS   H5R 8057   4.260   2.097  10.381 -0.7447  0.0111 -0.1891
   85SAPS   C26 8058   4.207   1.986  10.214  0.4067 -0.2948  0.2083
   85SAPS   H6R 8059   4.109   1.970  10.260 -0.3214  0.7836 -0.8925
   85SAPS   C27 8060   4.210   1.930  10.076 -0.1920  0.0032  0.5546
   85SAPS   H7R 8061   4.136   1.848  10.067 -0.0790  0.1549 -2.7877
   85SAPS   H7S 8062   4.310   1.890  10.046 -1.1614 -1.2929 -1.0787
   85SAPS   C28 8063   4.185   2.044   9.976  0.1253 -0.5308 -0.3536
   85SAPS   H8R 8064   4.141   2.135  10.019 -0.8181 -1.0633 -0.1542
   85SAPS   C29 8065   4.189   2.038   9.842 -0.1985  0.5315 -0.2249
   85SAPS   H9R 8066   4.167   2.131   9.787 -1.7053  2.4731  3.3374
   85SAPS  C210 8067   4.232   1.916   9.765 -0.0762 -0.1666 -0.6742
   85SAPS  H10R 8068   4.147   1.878   9.704 -0.6694  0.8749 -0.5234
   85SAPS  H10S 8069   4.268   1.834   9.831 -1.9147 -0.0363  0.5639
   85SAPS  C211 8070   4.333   1.937   9.652 -0.6072  0.0180  0.1856
   85SAPS  H11R 8071   4.439   1.943   9.680 -0.8908 -1.3616  1.7348
   85SAPS  C212 8072   4.323   1.923   9.518  0.1119 -0.5219 -0.2159
   85SAPS  H12R 8073   4.415   1.934   9.459  1.1665 -0.0997  1.4386
   85SAPS  C213 8074   4.199   1.887   9.437  0.6646  0.2028  0.3106
   85SAPS  H13R 8075   4.124   1.840   9.505  1.2847  1.6964  2.1236
   85SAPS  H13S 8076   4.211   1.808   9.360 -0.6127 -1.9167  2.1680
   85SAPS  C214 8077   4.139   2.007   9.364  0.2856  0.1607  0.0152
   85SAPS  H14R 8078   4.078   2.075   9.425 -1.2421 -0.9167 -0.2499
   85SAPS  C215 8079   4.160   2.033   9.235  0.3212 -0.2783 -0.8657
   85SAPS  H15R 8080   4.101   2.112   9.187  0.4586  0.0462 -0.5048
   85SAPS  C216 8081   4.229   1.958   9.134 -0.1801 -0.2230  0.2493
   85SAPS  H16R 8082   4.308   1.892   9.174 -0.6228  1.4536  4.3992
   85SAPS  H16S 8083   4.277   2.035   9.070  1.5737 -0.3938  1.3077
   85SAPS  C217 8084   4.138   1.869   9.040 -0.3681 -0.0401  0.5526
   85SAPS  H17R 8085   4.086   1.790   9.096  1.5685 -0.5964  1.6413
   85SAPS  H17S 8086   4.203   1.816   8.967 -0.5084 -1.9972  1.7912
   85SAPS  C218 8087   4.028   1.943   8.949 -0.3862  0.2275 -0.5718
   85SAPS  H18R 8088   4.077   2.031   8.900  0.5493 -0.5151 -0.9988
   85SAPS  H18S 8089   3.963   1.982   9.030 -0.3049 -0.9771  0.0967
   85SAPS  C219 8090   3.967   1.844   8.844 -0.8305  0.3452 -0.6605
   85SAPS  H19R 8091   3.868   1.888   8.820 -1.6649 -1.0767  0.0648
   85SAPS  H19S 8092   3.952   1.744   8.890  0.4508  1.7032  3.1024
   85SAPS  C220 8093   4.053   1.833   8.722  0.2656 -0.7585  0.3905
   85SAPS  H20R 8094   4.091   1.929   8.683  1.1000 -1.2208  0.0378
   85SAPS  H20S 8095   3.981   1.799   8.644 -0.5292 -0.2625  0.8961
   85SAPS  H20T 8096   4.132   1.756   8.713  0.3260 -0.5078 -1.9514
   85SAPS   C33 8097   5.282   1.705  10.568  0.0441  0.8194 -0.5759
   85SAPS   H3X 8098   5.248   1.599  10.571 -0.7987  1.0898  1.1732
   85SAPS   H3Y 8099   5.292   1.724  10.677 -2.0686  0.7301 -0.3139
   85SAPS   C34 8100   5.402   1.735  10.487  0.2967 -0.4618  0.3694
   85SAPS   H4X 8101   5.493   1.691  10.533  0.8598 -0.9492 -1.1547
   85SAPS   H4Y 8102   5.407   1.844  10.507 -2.0901 -0.3624  0.7135
   85SAPS   C35 8103   5.414   1.683  10.343 -0.3146  0.4065 -0.2636
   85SAPS   H5X 8104   5.326   1.732  10.295 -0.2626  1.0255  0.2629
   85SAPS   H5Y 8105   5.404   1.572  10.344  0.6181  0.2996 -1.1061
   85SAPS   C36 8106   5.549   1.718  10.274  0.1856 -0.4629 -0.4730
   85SAPS   H6X 8107   5.627   1.661  10.329 -1.1902 -1.1756  0.8128
   85SAPS   H6Y 8108   5.573   1.825  10.260  2.7241 -0.8422  0.4473
   85SAPS   C37 8109   5.547   1.660  10.137  0.2705  0.0646  0.1451
   85SAPS   H7X 8110   5.536   1.550  10.128 -0.3199  0.2373 -1.6056
   85SAPS   H7Y 8111   5.645   1.684  10.090 -0.0081  0.8323 -0.0602
   85SAPS   C38 8112   5.437   1.714  10.045  0.1717  0.1321  0.0149
   85SAPS   H8X 8113   5.429   1.825  10.041 -2.0319  0.0387  0.4372
   85SAPS   H8Y 8114   5.343   1.683  10.095  1.6507 -0.2971  2.7636
   85SAPS   C39 8115   5.468   1.664   9.906  1.1095 -0.6226 -0.4770
   85SAPS   H9X 8116   5.491   1.555   9.912  0.4820 -0.7426 -0.0717
   85SAPS   H9Y 8117   5.550   1.725   9.864  0.4702  0.3406 -0.3542
   85SAPS  C310 8118   5.351   1.685   9.807  0.6431  0.4238 -0.5135
   85SAPS  H10X 8119   5.334   1.793   9.785 -0.1293  0.7870  1.6552
   85SAPS  H10Y 8120   5.262   1.659   9.868 -0.0969  0.6079 -1.4910
   85SAPS  C311 8121   5.368   1.614   9.666 -0.2371  0.1383 -0.8265
   85SAPS  H11X 8122   5.270   1.623   9.615 -1.1236 -1.9288  0.3865
   85SAPS  H11Y 8123   5.367   1.503   9.672 -0.8839  0.1157 -1.3434
   85SAPS  C312 8124   5.486   1.657   9.587 -0.5476  0.2111  0.5096
   85SAPS  H12X 8125   5.583   1.636   9.637  0.2080  2.3141  0.0038
   85SAPS  H12Y 8126   5.470   1.765   9.567 -1.3358  0.0618  0.2832
   85SAPS  C313 8127   5.499   1.604   9.442 -0.7195  0.4921 -0.0808
   85SAPS  H13X 8128   5.486   1.494   9.450 -0.0265  0.2567 -1.8855
   85SAPS  H13Y 8129   5.604   1.624   9.415  0.0213 -0.8401  1.5766
   85SAPS  C314 8130   5.398   1.646   9.337  0.7114 -0.3501  0.1606
   85SAPS  H14X 8131   5.397   1.756   9.320  0.8577 -0.5553 -1.3129
   85SAPS  H14Y 8132   5.301   1.602   9.370  0.3685  0.1085 -0.2361
   85SAPS  C315 8133   5.436   1.603   9.187  0.6614 -0.8609 -0.5000
   85SAPS  H15X 8134   5.438   1.492   9.178  1.3247 -1.1270  2.1883
   85SAPS  H15Y 8135   5.536   1.650   9.173  0.2988  0.0486 -0.0961
   85SAPS  C316 8136   5.338   1.667   9.093 -0.1768  0.4801 -0.7123
   85SAPS  H16X 8137   5.340   1.778   9.103  0.2865  0.7227 -2.9442
   85SAPS  H16Y 8138   5.238   1.623   9.110 -0.2406  1.5567  2.5603
   85SAPS  C317 8139   5.369   1.651   8.947 -0.2655  0.4659 -0.3257
   85SAPS  H17X 8140   5.301   1.708   8.880 -0.9207 -0.8780 -0.8408
   85SAPS  H17Y 8141   5.360   1.546   8.912  1.3964  0.4342 -0.7602
   85SAPS  C318 8142   5.507   1.702   8.901  0.2648 -0.4798 -0.0796
   85SAPS  H18X 8143   5.587   1.628   8.924 -0.0784 -1.1890 -1.0792
   85SAPS  H18Y 8144   5.526   1.802   8.945 -1.6338  0.4555 -1.2506
   85SAPS  H18Z 8145   5.504   1.705   8.790 -1.8233 -2.3595 -0.1460
   86SAPS     N 8146   5.140   0.997  10.986  0.2163  0.1245  0.0945
   86SAPS   HN1 8147   5.178   1.019  10.892 -1.3745 -0.7820 -0.7880
   86SAPS   HN2 8148   5.209   0.926  11.018  1.2965  0.4207 -1.4452
   86SAPS   HN3 8149   5.048   0.951  10.971 -0.1586  1.1838 -0.9804
   86SAPS   C12 8150   5.144   1.113  11.075 -0.4720 -0.3138  0.1506
   86SAPS  H12A 8151   5.083   1.098  11.162  1.6227 -1.8118  1.4580
   86SAPS   C13 8152   5.283   1.151  11.140  0.1845  0.7163  0.1413
   86SAPS  O13A 8153   5.380   1.075  11.113  0.0916 -0.0691 -0.1656
   86SAPS  O13B 8154   5.289   1.252  11.212 -0.3100 -0.0166 -0.0441
   86SAPS   C11 8155   5.085   1.227  10.988  0.2303 -0.3897 -0.2606
   86SAPS  H11A 8156   5.090   1.317  11.052 -0.5369  0.3530 -1.2142
   86SAPS  H11B 8157   4.983   1.205  10.951  0.0581  0.7579 -0.5046
   86SAPS     P 8158   5.184   1.390  10.810 -0.2266 -0.8305  0.2493
   86SAPS   O13 8159   5.198   1.497  10.915  0.3271 -0.2830 -0.3460
   86SAPS   O14 8160   5.293   1.391  10.711  0.0991  0.4668  0.2057
   86SAPS   O12 8161   5.170   1.246  10.869 -0.0089  0.2499 -0.2273
   86SAPS   O11 8162   5.051   1.404  10.728 -0.6482  0.3052  0.1748
   86SAPS    C1 8163   4.958   1.305  10.688  0.5959 -0.0516 -0.0693
   86SAPS    HA 8164   5.012   1.208  10.687  2.2184  0.7603  1.6824
   86SAPS    HB 8165   4.868   1.298  10.753  0.2696  1.2955 -0.3541
   86SAPS    C2 8166   4.910   1.327  10.542  0.4835  0.0006  0.5192
   86SAPS    HS 8167   4.856   1.234  10.517 -1.7339  0.8499  1.8563
   86SAPS   O21 8168   5.021   1.357  10.457  0.6602  0.1890 -0.4509
   86SAPS   C21 8169   5.086   1.262  10.408  0.7246  0.4362 -0.8193
   86SAPS   O22 8170   5.052   1.143  10.415 -0.0988 -0.4951 -0.2944
   86SAPS   C22 8171   5.206   1.316  10.334  0.1479  0.1069  0.8095
   86SAPS   H2R 8172   5.153   1.388  10.266 -0.5268  2.2246  3.4000
   86SAPS   H2S 8173   5.263   1.379  10.406 -0.2599  0.5694  0.7384
   86SAPS    C3 8174   4.806   1.441  10.538  0.4896  0.2993  0.3058
   86SAPS    HX 8175   4.870   1.526  10.568 -0.1772  1.0756 -0.4099
   86SAPS    HY 8176   4.744   1.436  10.630 -0.7397 -1.9329 -0.5605
   86SAPS   O31 8177   4.725   1.459  10.418  0.3414 -0.3071 -0.0384
   86SAPS   C31 8178   4.600   1.437  10.432 -0.0668 -0.0909  0.5328
   86SAPS   O32 8179   4.543   1.380  10.523  0.2973  0.2418 -0.0294
   86SAPS   C32 8180   4.534   1.501  10.314  0.5872 -0.1759  0.0557
   86SAPS   H2X 8181   4.590   1.472  10.223 -1.5621 -2.8578 -0.5398
   86SAPS   H2Y 8182   4.553   1.610  10.323 -0.2530 -0.1432  2.0799
   86SAPS   C23 8183   5.292   1.214  10.257  0.2163  0.5203 -0.5062
   86SAPS   H3R 8184   5.228   1.126  10.236  0.8766  0.3244 -1.7396
   86SAPS   H3S 8185   5.371   1.182  10.328  0.0265  0.2171 -0.4281
   86SAPS   C24 8186   5.363   1.259  10.127  0.5432  0.3374  0.2025
   86SAPS   H4R 8187   5.427   1.174  10.096  0.9446  0.7368 -0.0767
   86SAPS   H4S 8188   5.412   1.355  10.152  1.1286  0.2493 -0.5641
   86SAPS   C25 8189   5.276   1.271  10.006 -0.2329  0.0283  0.5829
   86SAPS   H5R 8190   5.236   1.369   9.976  1.3520  0.3257 -0.6775
   86SAPS   C26 8191   5.249   1.176   9.917  0.2282 -0.0489 -0.5322
   86SAPS   H6R 8192   5.180   1.199   9.834 -0.6666  2.6887  0.8411
   86SAPS   C27 8193   5.304   1.035   9.915  0.0863  0.6245 -0.5249
   86SAPS   H7R 8194   5.333   1.004  10.018  0.8175  1.9503 -0.3049
   86SAPS   H7S 8195   5.400   1.033   9.860 -0.1412  1.2919 -0.9587
   86SAPS   C28 8196   5.214   0.935   9.844 -0.3432 -0.1924 -0.2682
   86SAPS   H8R 8197   5.150   0.877   9.912 -0.6291 -2.9037 -2.6763
   86SAPS   C29 8198   5.228   0.898   9.714  0.4837 -0.3774 -0.9110
   86SAPS   H9R 8199   5.149   0.828   9.684 -0.2591 -0.6878  1.5417
   86SAPS  C210 8200   5.319   0.947   9.617 -0.7789 -0.8072 -0.1164
   86SAPS  H10R 8201   5.362   0.858   9.566 -0.4404  0.2110 -1.6813
   86SAPS  H10S 8202   5.401   0.999   9.669 -1.4599  0.9616 -0.7145
   86SAPS  C211 8203   5.273   1.038   9.506 -0.7202 -0.1596 -0.1338
   86SAPS  H11R 8204   5.279   1.145   9.530 -1.5877 -0.0630 -0.3297
   86SAPS  C212 8205   5.230   1.005   9.379 -0.3051  0.0071  0.7139
   86SAPS  H12R 8206   5.208   1.088   9.309 -2.2191 -2.0794 -1.3253
   86SAPS  C213 8207   5.227   0.867   9.322  0.1684  0.0788 -0.2179
   86SAPS  H13R 8208   5.247   0.792   9.401 -0.1876  1.3667  1.1591
   86SAPS  H13S 8209   5.309   0.857   9.248  1.0449  0.3796  0.6878
   86SAPS  C214 8210   5.096   0.839   9.251 -0.5724 -0.1336 -0.1006
   86SAPS  H14R 8211   5.056   0.930   9.203 -1.1301 -0.4313 -0.2045
   86SAPS  C215 8212   5.028   0.724   9.243  0.0853 -0.7559 -0.8645
   86SAPS  H15R 8213   4.935   0.725   9.183 -1.3393  0.0567  1.2337
   86SAPS  C216 8214   5.061   0.593   9.298 -0.1560 -0.3481  0.0039
   86SAPS  H16R 8215   5.002   0.574   9.390 -0.4496 -1.7606 -0.4558
   86SAPS  H16S 8216   5.167   0.596   9.332 -0.1265  1.3224 -0.1705
   86SAPS  C217 8217   5.039   0.474   9.206  0.2716  0.0192  0.0599
   86SAPS  H17R 8218   5.108   0.390   9.231 -0.3808 -1.6743 -3.2397
   86SAPS  H17S 8219   5.070   0.515   9.107 -1.5144 -1.6969 -1.2961
   86SAPS  C218 8220   4.897   0.412   9.197  0.5653 -0.0591  0.4928
   86SAPS  H18R 8221   4.898   0.340   9.111  3.1629  0.7692 -0.2632
   86SAPS  H18S 8222   4.824   0.492   9.172  0.1501 -0.0519  1.6720
   86SAPS  C219 8223   4.847   0.355   9.334 -0.6627 -0.6169 -0.2586
   86SAPS  H19R 8224   4.755   0.306   9.297 -0.7437  1.4560 -3.1081
   86SAPS  H19S 8225   4.834   0.436   9.409 -0.3147 -0.0391 -0.8094
   86SAPS  C220 8226   4.931   0.240   9.390  0.1746 -0.2529  0.2745
   86SAPS  H20R 8227   4.952   0.174   9.304 -1.7031  0.6560 -0.9615
   86SAPS  H20S 8228   4.878   0.175   9.463  0.9832  0.8061  1.8743
   86SAPS  H20T 8229   5.022   0.275   9.443  0.6570  0.9871 -1.3105
   86SAPS   C33 8230   4.378   1.468  10.312 -0.4000 -0.1668  0.3291
   86SAPS   H3X 8231   4.330   1.517  10.399  0.3783  0.9154  0.1655
   86SAPS   H3Y 8232   4.368   1.357  10.319  1.7196 -0.3518  1.2854
   86SAPS   C34 8233   4.310   1.526  10.187  0.3036 -0.0219  0.5198
   86SAPS   H4X 8234   4.319   1.635  10.202  1.1052  0.0339 -0.3036
   86SAPS   H4Y 8235   4.209   1.483  10.207  0.4399 -0.0416  1.1989
   86SAPS   C35 8236   4.358   1.466  10.050  0.3870 -0.5804 -0.6166
   86SAPS   H5X 8237   4.359   1.355  10.047 -0.5573 -0.5733 -3.0100
   86SAPS   H5Y 8238   4.463   1.500  10.033  0.7692 -1.5613 -0.3004
   86SAPS   C36 8239   4.274   1.516   9.927  0.4138 -0.5848  0.4293
   86SAPS   H6X 8240   4.242   1.623   9.933  0.9622 -0.4366  0.7607
   86SAPS   H6Y 8241   4.174   1.471   9.946 -1.3469  1.5144 -2.7625
   86SAPS   C37 8242   4.320   1.489   9.786 -0.2601  0.4829 -0.7286
   86SAPS   H7X 8243   4.368   1.389   9.783 -2.5583 -0.7523  0.5967
   86SAPS   H7Y 8244   4.402   1.560   9.765  0.9119 -0.2152  1.2638
   86SAPS   C38 8245   4.219   1.508   9.677  0.0507  0.5894  0.2773
   86SAPS   H8X 8246   4.148   1.591   9.699  2.3986  2.3436  1.5947
   86SAPS   H8Y 8247   4.159   1.414   9.682 -2.6627  2.1340 -0.8614
   86SAPS   C39 8248   4.293   1.507   9.536 -0.1162  0.2435  0.1225
   86SAPS   H9X 8249   4.368   1.425   9.525  0.8754  1.2297 -0.8711
   86SAPS   H9Y 8250   4.358   1.597   9.535 -0.2033  0.3047 -0.8458
   86SAPS  C310 8251   4.202   1.494   9.412 -0.2216  0.4125  0.5527
   86SAPS  H10X 8252   4.135   1.582   9.418  1.4670  1.7796 -0.0177
   86SAPS  H10Y 8253   4.131   1.409   9.423 -1.4181  1.4286  0.8644
   86SAPS  C311 8254   4.272   1.488   9.272 -0.1619  1.0075  0.0107
   86SAPS  H11X 8255   4.355   1.414   9.269 -0.8378  0.2500 -0.2760
   86SAPS  H11Y 8256   4.309   1.592   9.261  0.4932  0.8031  0.2129
   86SAPS  C312 8257   4.172   1.467   9.155 -0.5079  0.4159 -0.0215
   86SAPS  H12X 8258   4.108   1.558   9.148  0.1289  0.9155  0.4917
   86SAPS  H12Y 8259   4.115   1.373   9.172  2.0245 -1.7127 -2.4834
   86SAPS  C313 8260   4.250   1.448   9.025  0.7733 -0.1187  0.1870
   86SAPS  H13X 8261   4.316   1.359   9.034  1.2506  0.2840  0.7199
   86SAPS  H13Y 8262   4.314   1.539   9.021  0.5768  0.1644  2.3152
   86SAPS  C314 8263   4.151   1.424   8.911 -0.2881  0.3973  0.9990
   86SAPS  H14X 8264   4.120   1.526   8.880 -0.7903 -0.6276 -2.2297
   86SAPS  H14Y 8265   4.063   1.363   8.938 -0.1832 -1.0695 -1.6727
   86SAPS  C315 8266   4.230   1.374   8.782 -0.2290 -0.4200 -0.0731
   86SAPS  H15X 8267   4.288   1.291   8.827 -0.6654 -0.9649 -0.5033
   86SAPS  H15Y 8268   4.297   1.453   8.741  0.5466 -0.0639  1.7968
   86SAPS  C316 8269   4.140   1.336   8.662 -0.1395  0.1893  0.5318
   86SAPS  H16X 8270   4.062   1.264   8.696  0.2145 -0.9254 -0.8797
   86SAPS  H16Y 8271   4.203   1.283   8.587 -0.2711 -1.0823  1.2959
   86SAPS  C317 8272   4.078   1.455   8.589 -0.1765 -0.0304 -0.1939
   86SAPS  H17X 8273   4.165   1.522   8.572 -1.4480  2.3811  2.0324
   86SAPS  H17Y 8274   4.001   1.518   8.639 -0.6312 -1.1768  0.6036
   86SAPS  C318 8275   4.022   1.423   8.451 -0.3100  0.7378  0.3906
   86SAPS  H18X 8276   4.092   1.364   8.387 -1.4738 -0.8233  0.4876
   86SAPS  H18Y 8277   4.007   1.522   8.402 -1.5526  0.4702  0.1777
   86SAPS  H18Z 8278   3.924   1.373   8.470  0.8941 -0.7888  3.0720
   87SAPS     N 8279   5.562   1.015  10.932  0.0104 -0.4389  0.2760
   87SAPS   HN1 8280   5.493   1.019  11.010 -0.4199  0.8738 -0.1443
   87SAPS   HN2 8281   5.573   1.115  10.906  1.0760 -0.4931  0.4637
   87SAPS   HN3 8282   5.528   0.954  10.854  0.1878  1.7342 -1.5856
   87SAPS   C12 8283   5.690   0.971  10.988  0.6647  0.2073  1.0364
   87SAPS  H12A 8284   5.726   1.038  11.065  0.3736 -0.4537  1.7539
   87SAPS   C13 8285   5.685   0.845  11.054 -1.2342  0.3626  0.1735
   87SAPS  O13A 8286   5.581   0.776  11.068 -0.6081  0.3466 -0.2566
   87SAPS  O13B 8287   5.794   0.802  11.095  0.0392  0.5281 -0.7330
   87SAPS   C11 8288   5.798   0.978  10.873 -0.7794  0.3000 -0.3873
   87SAPS  H11A 8289   5.770   0.898  10.801 -1.4937 -1.6611  1.9600
   87SAPS  H11B 8290   5.897   0.957  10.919 -0.2548 -0.7229 -1.8794
   87SAPS     P 8291   5.874   1.148  10.685 -0.0989 -0.0487 -0.0169
   87SAPS   O13 8292   5.776   1.230  10.611  0.0841  0.6768 -0.0859
   87SAPS   O14 8293   6.005   1.207  10.716  0.1302  0.5573  0.5807
   87SAPS   O12 8294   5.805   1.110  10.822  0.2503  0.3171 -0.2981
   87SAPS   O11 8295   5.891   1.007  10.617  0.2673  0.0989  0.1142
   87SAPS    C1 8296   5.798   0.940  10.528 -0.2534  0.5645 -0.2139
   87SAPS    HA 8297   5.811   0.832  10.549  1.3995  1.0119  1.3002
   87SAPS    HB 8298   5.691   0.966  10.545 -0.3304  1.0584 -1.3680
   87SAPS    C2 8299   5.835   0.977  10.387 -1.2256  0.0631  0.4215
   87SAPS    HS 8300   5.940   0.942  10.373 -1.7492 -1.3074 -0.2019
   87SAPS   O21 8301   5.822   1.114  10.368  0.0252  0.0233 -0.5652
   87SAPS   C21 8302   5.936   1.185  10.354  0.1810  0.4860  0.4014
   87SAPS   O22 8303   6.053   1.153  10.359 -0.1476 -0.0534 -0.4399
   87SAPS   C22 8304   5.879   1.313  10.289  0.2486 -0.6547  0.4341
   87SAPS   H2R 8305   5.788   1.292  10.228  0.8460 -0.5950 -0.4977
   87SAPS   H2S 8306   5.850   1.386  10.368  0.9303  1.4485 -1.1557
   87SAPS    C3 8307   5.748   0.904  10.284 -0.2831 -0.2685 -0.2952
   87SAPS    HX 8308   5.645   0.943  10.297 -0.7790 -2.0931  1.8643
   87SAPS    HY 8309   5.753   0.797  10.313  2.0680  0.2701  1.7226
   87SAPS   O31 8310   5.796   0.931  10.153 -0.0810  0.0553  0.0630
   87SAPS   C31 8311   5.708   0.952  10.054 -0.0343  0.1955  0.1114
   87SAPS   O32 8312   5.587   0.935  10.071  0.1069 -0.0481 -0.1657
   87SAPS   C32 8313   5.777   0.998   9.932  0.1719  0.2914 -0.2311
   87SAPS   H2X 8314   5.785   0.905   9.872  1.1379  0.5649 -0.5316
   87SAPS   H2Y 8315   5.871   1.051   9.957 -0.1718 -0.1790  2.4278
   87SAPS   C23 8316   5.985   1.373  10.200  0.1043  0.3066  0.0286
   87SAPS   H3R 8317   6.042   1.309  10.128 -0.2415  0.5229 -0.4463
   87SAPS   H3S 8318   6.061   1.419  10.266 -1.2247  0.3607  1.5744
   87SAPS   C24 8319   5.920   1.486  10.121  0.4090  0.2746  0.0631
   87SAPS   H4R 8320   5.997   1.555  10.081  1.3911 -0.1498  1.1623
   87SAPS   H4S 8321   5.875   1.560  10.191  2.3788  1.7369 -0.1338
   87SAPS   C25 8322   5.811   1.451  10.017 -0.2887  1.0559 -0.3067
   87SAPS   H5R 8323   5.730   1.395  10.066  0.4221  0.4772  0.2281
   87SAPS   C26 8324   5.807   1.485   9.886 -0.4221 -0.0847 -0.0353
   87SAPS   H6R 8325   5.726   1.451   9.820 -0.2919  0.5533 -0.5431
   87SAPS   C27 8326   5.918   1.558   9.814 -0.0390  0.7240 -0.0161
   87SAPS   H7R 8327   5.994   1.612   9.875  0.3233  4.5140 -3.4403
   87SAPS   H7S 8328   5.878   1.630   9.739  1.1527 -0.2448 -1.6424
   87SAPS   C28 8329   6.008   1.453   9.747  0.6201 -0.0768 -0.0457
   87SAPS   H8R 8330   6.030   1.364   9.807  0.7592 -0.3618 -0.5141
   87SAPS   C29 8331   6.067   1.465   9.628 -0.8362 -0.9104  0.7663
   87SAPS   H9R 8332   6.119   1.377   9.586 -2.0430 -1.0266 -0.5870
   87SAPS  C210 8333   6.054   1.578   9.525 -0.5606 -0.7400  0.0453
   87SAPS  H10R 8334   6.146   1.587   9.464  0.0937  2.0964  1.2826
   87SAPS  H10S 8335   6.052   1.673   9.584 -0.2929  0.8156 -2.3015
   87SAPS  C211 8336   5.925   1.575   9.455  0.2632  0.3297  0.0391
   87SAPS  H11R 8337   5.834   1.567   9.517  0.3118  2.3738  0.4252
   87SAPS  C212 8338   5.910   1.573   9.324 -0.1114 -0.1570  0.2142
   87SAPS  H12R 8339   5.810   1.573   9.277 -0.4505 -2.0293  0.8642
   87SAPS  C213 8340   6.025   1.595   9.229  0.6146 -0.8019 -0.1755
   87SAPS  H13R 8341   6.121   1.619   9.277 -0.5993 -2.7517  3.6135
   87SAPS  H13S 8342   6.006   1.689   9.172 -0.0770 -0.7386  0.1399
   87SAPS  C214 8343   6.044   1.485   9.130 -0.3735  0.6143 -0.1754
   87SAPS  H14R 8344   6.076   1.389   9.172 -0.4171  0.3000 -0.8500
   87SAPS  C215 8345   6.000   1.475   9.005  0.2689  0.0899  0.4583
   87SAPS  H15R 8346   6.029   1.383   8.952  0.6591  0.1568  0.5511
   87SAPS  C216 8347   5.917   1.583   8.936  0.0668  1.0679  0.5494
   87SAPS  H16R 8348   5.899   1.675   8.995 -1.0029  1.5308 -0.4512
   87SAPS  H16S 8349   5.820   1.533   8.915  1.5203 -0.9842 -1.9076
   87SAPS  C217 8350   5.970   1.627   8.791 -0.2618 -0.5451 -0.0745
   87SAPS  H17R 8351   6.081   1.635   8.782 -0.1782 -0.1299  1.0962
   87SAPS  H17S 8352   5.937   1.729   8.762  3.4747  0.5298 -1.0844
   87SAPS  C218 8353   5.934   1.529   8.687 -0.2292 -0.3723  0.3170
   87SAPS  H18R 8354   5.824   1.514   8.691 -0.2127 -1.2048 -1.5497
   87SAPS  H18S 8355   5.983   1.431   8.702 -3.5962 -2.3777 -0.7564
   87SAPS  C219 8356   5.959   1.579   8.539 -0.0411 -0.8486 -0.0569
   87SAPS  H19R 8357   6.069   1.598   8.533 -0.4777  2.0520 -0.4436
   87SAPS  H19S 8358   5.922   1.684   8.538  4.8656  1.1806  0.4796
   87SAPS  C220 8359   5.909   1.494   8.425  0.1137  0.6213 -0.3034
   87SAPS  H20R 8360   5.800   1.505   8.408 -0.6575 -1.8977  2.2238
   87SAPS  H20S 8361   5.914   1.385   8.448  1.0723  0.4564 -1.2221
   87SAPS  H20T 8362   5.973   1.495   8.334  1.3729  1.0234  0.5595
   87SAPS   C33 8363   5.697   1.088   9.830  0.1056  0.5287  0.1541
   87SAPS   H3X 8364   5.631   1.168   9.870 -2.5913 -0.5559 -1.8342
   87SAPS   H3Y 8365   5.624   1.023   9.778 -3.0284  3.5566  0.3933
   87SAPS   C34 8366   5.780   1.143   9.715  0.0770  0.0745  0.0926
   87SAPS   H4X 8367   5.833   1.065   9.657  1.1722 -0.5206  1.8282
   87SAPS   H4Y 8368   5.859   1.216   9.742 -0.6879  0.8234  0.3653
   87SAPS   C35 8369   5.698   1.223   9.606  0.1283 -0.4976  0.8322
   87SAPS   H5X 8370   5.669   1.321   9.650 -0.3789 -0.1507 -0.2523
   87SAPS   H5Y 8371   5.608   1.166   9.575  0.2809 -0.1159 -0.3516
   87SAPS   C36 8372   5.777   1.258   9.470  0.2631 -0.1043 -0.0980
   87SAPS   H6X 8373   5.880   1.291   9.494 -0.1402  0.3335  1.1195
   87SAPS   H6Y 8374   5.730   1.339   9.410 -1.3994 -0.7876  0.2301
   87SAPS   C37 8375   5.786   1.131   9.379 -0.3215 -0.1900 -0.0294
   87SAPS   H7X 8376   5.844   1.055   9.434 -1.4328 -2.1166 -1.4031
   87SAPS   H7Y 8377   5.853   1.163   9.296  0.7382 -2.4902 -0.1180
   87SAPS   C38 8378   5.654   1.083   9.325 -1.0335 -0.3421 -0.2470
   87SAPS   H8X 8379   5.587   1.066   9.412  0.2915  1.3875  1.1891
   87SAPS   H8Y 8380   5.662   0.979   9.287  0.5841 -0.3818  0.1624
   87SAPS   C39 8381   5.586   1.168   9.222 -0.1323  0.1030  0.7153
   87SAPS   H9X 8382   5.549   1.257   9.278 -1.5436  0.1419 -0.2196
   87SAPS   H9Y 8383   5.494   1.109   9.200  0.1247 -1.1349  2.6484
   87SAPS  C310 8384   5.655   1.218   9.097 -0.5196 -0.2968  0.1206
   87SAPS  H10X 8385   5.737   1.278   9.142  0.5566 -2.1519  0.7867
   87SAPS  H10Y 8386   5.595   1.290   9.038 -0.6710  0.1492  0.8132
   87SAPS  C311 8387   5.711   1.108   9.012  0.3858 -0.2967  0.5466
   87SAPS  H11X 8388   5.635   1.042   8.965  0.3103  0.3192 -0.2319
   87SAPS  H11Y 8389   5.778   1.049   9.078  0.5874  0.6175  1.1734
   87SAPS  C312 8390   5.786   1.164   8.892  0.3688 -0.1007  0.4481
   87SAPS  H12X 8391   5.877   1.213   8.933  0.4488 -0.5589  0.8245
   87SAPS  H12Y 8392   5.736   1.247   8.837  1.3970 -1.3782 -2.5815
   87SAPS  C313 8393   5.829   1.058   8.788  0.3307 -0.0215  0.8971
   87SAPS  H13X 8394   5.739   1.009   8.745  0.4485  1.6271 -1.4058
   87SAPS  H13Y 8395   5.884   0.975   8.838  0.1452  1.1447  3.1547
   87SAPS  C314 8396   5.901   1.119   8.667  0.4777 -0.3635  0.2637
   87SAPS  H14X 8397   5.842   1.212   8.650 -0.9412 -0.7657  2.5581
   87SAPS  H14Y 8398   5.892   1.051   8.579  3.2445 -0.7967  0.2329
   87SAPS  C315 8399   6.048   1.151   8.683  0.8587 -0.3401 -0.2283
   87SAPS  H15X 8400   6.100   1.054   8.694  0.6000 -0.5504 -0.8066
   87SAPS  H15Y 8401   6.054   1.214   8.774 -1.9752  1.7169 -1.3004
   87SAPS  C316 8402   6.119   1.216   8.561  0.6382 -0.4527  0.8900
   87SAPS  H16X 8403   6.227   1.219   8.588  1.2457  0.5913 -1.4179
   87SAPS  H16Y 8404   6.087   1.321   8.548  2.4192  0.2146  1.5482
   87SAPS  C317 8405   6.101   1.145   8.423 -0.1375  0.0678 -0.9496
   87SAPS  H17X 8406   5.998   1.104   8.419 -0.8137  0.9494  2.9710
   87SAPS  H17Y 8407   6.160   1.051   8.417  1.8955  1.2584 -0.4907
   87SAPS  C318 8408   6.138   1.234   8.304 -0.1110 -0.1568  0.0484
   87SAPS  H18X 8409   6.128   1.181   8.207 -1.2335  1.2484 -0.6387
   87SAPS  H18Y 8410   6.239   1.281   8.307 -0.8675  1.5494 -0.0783
   87SAPS  H18Z 8411   6.067   1.319   8.296  0.1696  0.1480  0.6787
   88SAPS     N 8412   1.602   6.767  11.070 -0.1323  0.3606 -0.1619
   88SAPS   HN1 8413   1.530   6.824  11.120  0.7062  0.9225  0.4170
   88SAPS   HN2 8414   1.622   6.687  11.134 -0.5704  1.6077  1.6105
   88SAPS   HN3 8415   1.688   6.824  11.069 -0.6895  1.4904  3.4030
   88SAPS   C12 8416   1.554   6.726  10.932  1.0834 -0.3492 -0.4085
   88SAPS  H12A 8417   1.630   6.672  10.877 -0.1265 -1.9581 -0.5640
   88SAPS   C13 8418   1.443   6.624  10.940  0.4631  0.2224  0.4087
   88SAPS  O13A 8419   1.366   6.608  11.038 -0.0649  0.0908  0.1441
   88SAPS  O13B 8420   1.418   6.565  10.833  0.0823  0.8307 -0.1296
   88SAPS   C11 8421   1.515   6.853  10.860 -0.6778 -0.0955 -0.1075
   88SAPS  H11A 8422   1.429   6.895  10.917 -0.4696 -0.0197  0.1522
   88SAPS  H11B 8423   1.487   6.839  10.753 -1.1944  3.3602 -0.5505
   88SAPS     P 8424   1.627   7.089  10.857 -0.2459  0.4998 -0.1527
   88SAPS   O13 8425   1.499   7.134  10.917  0.2665  0.4422 -0.1529
   88SAPS   O14 8426   1.751   7.141  10.916  0.2711  0.2054  0.5824
   88SAPS   O12 8427   1.634   6.933  10.863  0.0581  0.1182  0.2930
   88SAPS   O11 8428   1.624   7.120  10.700 -0.1238 -0.2323  0.5927
   88SAPS    C1 8429   1.721   7.060  10.609  0.3626 -0.4304  0.0045
   88SAPS    HA 8430   1.778   6.982  10.664 -0.9646 -0.7066  1.0412
   88SAPS    HB 8431   1.655   7.007  10.537  0.1364  1.2926 -1.1235
   88SAPS    C2 8432   1.802   7.152  10.520 -0.3274 -0.6124  0.3137
   88SAPS    HS 8433   1.841   7.234  10.585 -0.6083  1.6358 -2.1476
   88SAPS   O21 8434   1.712   7.198  10.420 -0.0317 -0.2471  0.2107
   88SAPS   C21 8435   1.764   7.306  10.362  1.1073 -0.5130 -0.6741
   88SAPS   O22 8436   1.856   7.377  10.404  0.2961  0.5672 -0.0464
   88SAPS   C22 8437   1.678   7.328  10.238  0.0260  0.3770  0.5297
   88SAPS   H2R 8438   1.674   7.236  10.174 -1.8000  0.6233  0.2269
   88SAPS   H2S 8439   1.572   7.352  10.263 -0.5793 -0.4331 -1.1040
   88SAPS    C3 8440   1.922   7.087  10.449 -0.0553  0.0783 -0.1700
   88SAPS    HX 8441   1.960   7.010  10.520 -1.1679 -0.8115 -0.5088
   88SAPS    HY 8442   1.997   7.167  10.433  0.3706 -0.5392 -1.4215
   88SAPS   O31 8443   1.880   7.031  10.326 -0.6486 -0.4912 -0.0665
   88SAPS   C31 8444   1.948   6.933  10.276 -0.4874  0.1918 -0.4750
   88SAPS   O32 8445   2.042   6.885  10.337  0.5579  0.4550  0.3352
   88SAPS   C32 8446   1.905   6.899  10.133  0.0293  0.3627 -0.6489
   88SAPS   H2X 8447   1.857   6.989  10.090 -3.6017 -0.1231  1.9594
   88SAPS   H2Y 8448   1.835   6.813  10.134 -0.1354  0.3314  3.3642
   88SAPS   C23 8449   1.717   7.454  10.165  0.9372 -0.3346 -0.2898
   88SAPS   H3R 8450   1.823   7.430  10.139  1.0574 -4.4727  2.8946
   88SAPS   H3S 8451   1.716   7.555  10.211 -1.5729  0.3972 -1.8019
   88SAPS   C24 8452   1.620   7.482  10.045 -0.3333  0.0320  0.0376
   88SAPS   H4R 8453   1.526   7.524  10.087 -1.2143 -2.0652  0.3164
   88SAPS   H4S 8454   1.584   7.379  10.022  2.2547 -0.4902 -2.2000
   88SAPS   C25 8455   1.670   7.563   9.924 -0.5522  0.2908 -0.6546
   88SAPS   H5R 8456   1.654   7.670   9.941  1.8340  0.2961  2.3717
   88SAPS   C26 8457   1.715   7.519   9.806  0.2638 -0.2402  0.4801
   88SAPS   H6R 8458   1.741   7.588   9.724 -0.7773 -1.8252 -1.2589
   88SAPS   C27 8459   1.740   7.374   9.773 -0.4738 -1.0327 -0.1133
   88SAPS   H7R 8460   1.751   7.311   9.864  0.8328 -2.0161 -0.9123
   88SAPS   H7S 8461   1.833   7.354   9.715 -1.2275 -0.2680 -1.6696
   88SAPS   C28 8462   1.631   7.323   9.689  0.1484  0.3532  0.4901
   88SAPS   H8R 8463   1.534   7.325   9.740 -0.0206  1.9504  0.1707
   88SAPS   C29 8464   1.632   7.283   9.559 -0.2037  0.0432  0.5160
   88SAPS   H9R 8465   1.539   7.245   9.513  1.1138  0.7624 -3.0647
   88SAPS  C210 8466   1.745   7.289   9.460 -0.6634  0.1591 -0.5375
   88SAPS  H10R 8467   1.773   7.184   9.438 -0.7832  0.4550 -2.2232
   88SAPS  H10S 8468   1.836   7.336   9.506  0.5881 -2.0291 -0.6566
   88SAPS  C211 8469   1.717   7.353   9.332  0.1624  0.5799  0.2271
   88SAPS  H11R 8470   1.627   7.417   9.335 -0.9115 -0.9217  1.2282
   88SAPS  C212 8471   1.789   7.340   9.217  0.4518 -0.0006 -0.1762
   88SAPS  H12R 8472   1.771   7.406   9.130 -0.8185  0.0433  0.1082
   88SAPS  C213 8473   1.908   7.251   9.201 -0.3222 -0.1342  0.1698
   88SAPS  H13R 8474   1.968   7.243   9.294 -1.0323 -0.0834  0.6374
   88SAPS  H13S 8475   1.971   7.304   9.127  0.5560 -0.0900  0.9406
   88SAPS  C214 8476   1.870   7.111   9.157 -0.2065  0.2306  0.5054
   88SAPS  H14R 8477   1.818   7.064   9.242  0.5066  4.2755  3.4860
   88SAPS  C215 8478   1.882   7.053   9.038  0.2191  0.1980  0.2317
   88SAPS  H15R 8479   1.842   6.953   9.017 -2.6478  1.2655  0.1928
   88SAPS  C216 8480   1.938   7.128   8.919  0.4081 -0.5356  0.0230
   88SAPS  H16R 8481   1.981   7.050   8.853 -0.8216 -1.5552  0.3983
   88SAPS  H16S 8482   2.014   7.200   8.957 -0.1304  0.1947 -0.2542
   88SAPS  C217 8483   1.839   7.216   8.834  0.8091  1.2908 -0.5857
   88SAPS  H17R 8484   1.791   7.289   8.902  0.1768  2.5792 -2.3332
   88SAPS  H17S 8485   1.763   7.147   8.792  1.8154 -0.2619  0.0383
   88SAPS  C218 8486   1.906   7.280   8.718 -0.5603 -0.0136  0.4637
   88SAPS  H18R 8487   1.954   7.210   8.647  1.3567  2.3269 -0.6894
   88SAPS  H18S 8488   1.983   7.347   8.762 -1.8289  0.0164  2.8295
   88SAPS  C219 8489   1.809   7.371   8.637 -0.4640  0.2200  0.2813
   88SAPS  H19R 8490   1.706   7.329   8.640 -0.8510  1.1279  0.0802
   88SAPS  H19S 8491   1.834   7.365   8.529 -1.4249  0.7400  0.0220
   88SAPS  C220 8492   1.822   7.516   8.683 -0.0562 -0.0676  0.0592
   88SAPS  H20R 8493   1.914   7.563   8.642  0.2932 -0.5538  0.2740
   88SAPS  H20S 8494   1.839   7.524   8.792  1.3141 -0.8452 -0.0719
   88SAPS  H20T 8495   1.734   7.573   8.646  0.8206  0.5662 -1.1212
   88SAPS   C33 8496   2.026   6.841  10.051  0.1760  0.4373 -0.0888
   88SAPS   H3X 8497   2.043   6.735  10.079  2.8990  1.2419  1.6645
   88SAPS   H3Y 8498   2.120   6.893  10.078 -1.3099  3.3666 -0.2545
   88SAPS   C34 8499   2.003   6.851   9.900  0.4100  0.6921 -0.2954
   88SAPS   H4X 8500   1.898   6.820   9.883 -0.3857  2.5268  0.9181
   88SAPS   H4Y 8501   2.067   6.775   9.851  0.5643  1.6143 -1.5947
   88SAPS   C35 8502   2.034   6.993   9.849 -0.1366  0.8460 -0.2188
   88SAPS   H5X 8503   2.140   7.028   9.860 -0.4815  1.1837  3.4314
   88SAPS   H5Y 8504   1.987   7.073   9.910  3.3545  1.0245  2.6436
   88SAPS   C36 8505   1.987   6.992   9.703 -0.3359  0.0410 -0.3562
   88SAPS   H6X 8506   2.020   7.090   9.662  0.1346  1.9594  4.1188
   88SAPS   H6Y 8507   1.876   6.994   9.706 -0.3416 -0.6672  0.1146
   88SAPS   C37 8508   2.030   6.878   9.614 -0.4667 -0.3132  0.4501
   88SAPS   H7X 8509   1.995   6.775   9.636  2.3651 -1.2998  0.7991
   88SAPS   H7Y 8510   2.139   6.866   9.632 -0.5297  0.7794  1.6289
   88SAPS   C38 8511   2.011   6.904   9.461 -0.5993 -0.1583 -0.1813
   88SAPS   H8X 8512   2.057   7.002   9.433  0.5823 -0.8489 -0.7460
   88SAPS   H8Y 8513   1.903   6.911   9.436 -0.8626 -2.4514  0.1170
   88SAPS   C39 8514   2.053   6.781   9.377  0.4460  0.3747 -0.4956
   88SAPS   H9X 8515   2.014   6.696   9.437  0.2761  3.1676  3.8569
   88SAPS   H9Y 8516   2.162   6.770   9.392  0.3269 -0.1732  0.0046
   88SAPS  C310 8517   2.027   6.781   9.224 -0.3754  0.0246 -0.4526
   88SAPS  H10X 8518   2.080   6.870   9.184  2.9733 -0.9358  1.4543
   88SAPS  H10Y 8519   1.917   6.786   9.208 -0.4360 -1.8308 -0.7278
   88SAPS  C311 8520   2.084   6.652   9.168  0.1538  0.2971  0.1756
   88SAPS  H11X 8521   2.041   6.565   9.221 -0.3703  0.3195 -0.2008
   88SAPS  H11Y 8522   2.191   6.667   9.194 -0.4373  1.2366  2.2494
   88SAPS  C312 8523   2.065   6.634   9.021 -0.6941 -1.1603  0.9374
   88SAPS  H12X 8524   1.958   6.640   8.994 -0.4601 -0.1978  0.1516
   88SAPS  H12Y 8525   2.097   6.532   8.990 -0.5377 -0.7583 -0.2485
   88SAPS  C313 8526   2.130   6.740   8.931 -0.3259 -0.0787  0.9738
   88SAPS  H13X 8527   2.233   6.756   8.970 -0.1056  1.6389 -0.1956
   88SAPS  H13Y 8528   2.085   6.838   8.954  1.8340  1.0107  0.8237
   88SAPS  C314 8529   2.124   6.708   8.779  0.9511 -0.1507 -0.2554
   88SAPS  H14X 8530   2.106   6.600   8.760 -2.9760  0.3253 -0.0248
   88SAPS  H14Y 8531   2.226   6.728   8.739  0.4728 -1.8292 -2.5307
   88SAPS  C315 8532   2.019   6.796   8.694 -0.3872 -0.3188 -0.6984
   88SAPS  H15X 8533   2.069   6.895   8.693  0.9182 -0.9292 -2.1864
   88SAPS  H15Y 8534   1.924   6.801   8.751  0.6931 -1.7285  1.3253
   88SAPS  C316 8535   1.994   6.745   8.552  0.2166 -0.0764 -0.7326
   88SAPS  H16X 8536   2.079   6.754   8.481  0.9829  1.9019  0.3680
   88SAPS  H16Y 8537   1.912   6.810   8.513  0.1795  0.3118 -0.0184
   88SAPS  C317 8538   1.923   6.607   8.539  0.2640 -0.0842 -0.0818
   88SAPS  H17X 8539   1.850   6.606   8.622 -0.0681 -1.2688 -0.3653
   88SAPS  H17Y 8540   2.000   6.530   8.562 -0.4290 -0.3593  1.4138
   88SAPS  C318 8541   1.850   6.578   8.403 -0.7525 -0.0869 -0.4766
   88SAPS  H18X 8542   1.762   6.643   8.386 -1.8385 -0.6873  2.3319
   88SAPS  H18Y 8543   1.815   6.473   8.411  1.0221 -0.6712  0.2365
   88SAPS  H18Z 8544   1.932   6.590   8.329 -0.9256  0.0902 -0.6390
   89SAPS     N 8545   0.386   2.925  10.929  0.2078 -0.1071 -0.3979
   89SAPS   HN1 8546   0.290   2.889  10.911 -0.7451  0.3964  3.0036
   89SAPS   HN2 8547   0.454   2.868  10.874 -0.2654 -0.8117 -0.2783
   89SAPS   HN3 8548   0.415   2.905  11.027 -0.4373 -1.5260 -0.4711
   89SAPS   C12 8549   0.398   3.067  10.901  0.1723  0.4767  0.2066
   89SAPS  H12A 8550   0.362   3.118  10.990  2.5490  1.4226  0.6936
   89SAPS   C13 8551   0.535   3.131  10.872 -0.1361 -0.3094  0.1038
   89SAPS  O13A 8552   0.640   3.062  10.884 -0.4782 -0.7083  0.2951
   89SAPS  O13B 8553   0.541   3.258  10.871  0.3675 -0.0164  0.1567
   89SAPS   C11 8554   0.301   3.108  10.782  0.5640  0.1947 -0.0010
   89SAPS  H11A 8555   0.321   3.053  10.687 -1.8382 -0.2330 -0.3229
   89SAPS  H11B 8556   0.302   3.216  10.754 -1.2222  0.6160  1.3687
   89SAPS     P 8557   0.028   3.110  10.733 -0.6204  0.1949 -0.5212
   89SAPS   O13 8558  -0.066   3.003  10.767 -0.0245  0.2724 -0.3530
   89SAPS   O14 8559  -0.015   3.248  10.768  0.0097  0.8869  0.2516
   89SAPS   O12 8560   0.163   3.080  10.816  0.4151  0.0810  0.3675
   89SAPS   O11 8561   0.062   3.102  10.581  0.1704  0.3457  0.0945
   89SAPS    C1 8562   0.091   2.968  10.533  0.1214 -0.1461 -0.0676
   89SAPS    HA 8563   0.163   2.912  10.597  1.4624  0.5751 -0.8947
   89SAPS    HB 8564  -0.003   2.911  10.519  1.1820 -1.6255 -1.6413
   89SAPS    C2 8565   0.170   2.969  10.396  0.8615  0.3857  0.1331
   89SAPS    HS 8566   0.272   2.999  10.427  0.7531  0.4482  0.4314
   89SAPS   O21 8567   0.111   3.064  10.310 -0.1611  0.0198  0.4237
   89SAPS   C21 8568   0.193   3.126  10.229 -0.6470 -0.5826  0.2316
   89SAPS   O22 8569   0.317   3.109  10.229  0.3266 -0.6237 -0.7552
   89SAPS   C22 8570   0.116   3.211  10.127  0.5298 -0.2996 -1.0955
   89SAPS   H2R 8571   0.019   3.157  10.115 -0.8670  1.1688  2.3855
   89SAPS   H2S 8572   0.101   3.310  10.175  2.8282  0.1240 -1.1427
   89SAPS    C3 8573   0.172   2.820  10.334  0.0137  0.0797 -0.0328
   89SAPS    HX 8574   0.231   2.752  10.399  2.1484  1.6064 -0.2521
   89SAPS    HY 8575   0.224   2.833  10.237  0.3613  1.2542  0.2928
   89SAPS   O31 8576   0.042   2.771  10.314 -0.1361  0.2543  0.2711
   89SAPS   C31 8577   0.042   2.664  10.238 -0.3582 -0.7151 -0.4551
   89SAPS   O32 8578   0.142   2.620  10.185  0.8346  0.0519  0.3505
   89SAPS   C32 8579  -0.095   2.592  10.227 -0.1952 -0.5519 -0.6384
   89SAPS   H2X 8580  -0.127   2.550  10.325 -0.0310  0.6748 -0.0296
   89SAPS   H2Y 8581  -0.077   2.500  10.168  0.2202 -1.6152  1.0588
   89SAPS   C23 8582   0.186   3.224   9.999  0.9431  0.5188  0.0302
   89SAPS   H3R 8583   0.295   3.232  10.018  0.6448  1.4719  1.3867
   89SAPS   H3S 8584   0.160   3.321   9.951 -1.6968 -0.9468 -1.8199
   89SAPS   C24 8585   0.154   3.112   9.890  0.1916 -0.5203 -0.4173
   89SAPS   H4R 8586   0.199   3.016   9.923  0.2433 -0.3005  0.1585
   89SAPS   H4S 8587   0.189   3.136   9.788 -1.1150  1.3629 -0.4849
   89SAPS   C25 8588   0.012   3.080   9.874  0.8456 -0.6336 -0.0011
   89SAPS   H5R 8589  -0.052   3.079   9.964  0.1805 -0.1696 -0.4624
   89SAPS   C26 8590  -0.055   3.065   9.758 -0.7484  0.2450  0.3297
   89SAPS   H6R 8591  -0.157   3.026   9.767 -0.2835 -1.5110 -1.3820
   89SAPS   C27 8592  -0.002   3.070   9.612  0.2170 -0.3341  0.2068
   89SAPS   H7R 8593   0.060   3.161   9.594  1.8825 -1.1743  1.4450
   89SAPS   H7S 8594  -0.083   3.072   9.537  1.4614 -1.1620 -1.2200
   89SAPS   C28 8595   0.101   2.967   9.582  0.5605  1.0169  0.0723
   89SAPS   H8R 8596   0.142   2.931   9.677 -1.5467  0.6600  0.9120
   89SAPS   C29 8597   0.140   2.932   9.463  0.1548  0.4814  0.7858
   89SAPS   H9R 8598   0.211   2.849   9.454  1.5594  1.6927  0.2445
   89SAPS  C210 8599   0.101   2.979   9.327 -0.7418  0.6049 -0.2319
   89SAPS  H10R 8600   0.055   3.080   9.342  0.9503  1.2346  1.0579
   89SAPS  H10S 8601   0.018   2.923   9.281 -0.5702  1.5156 -1.7236
   89SAPS  C211 8602   0.227   2.988   9.246  0.4210  0.3173  0.3964
   89SAPS  H11R 8603   0.317   2.962   9.305 -0.8995 -1.0327  1.9582
   89SAPS  C212 8604   0.239   3.017   9.117  0.5560  0.1869  0.0076
   89SAPS  H12R 8605   0.343   3.023   9.080 -0.1816  0.0318 -2.2713
   89SAPS  C213 8606   0.141   3.040   9.010 -0.2888  0.6279 -0.5787
   89SAPS  H13R 8607   0.042   3.053   9.059  0.5174 -0.5540  1.5035
   89SAPS  H13S 8608   0.144   2.951   8.944  2.0156  0.1768  0.0654
   89SAPS  C214 8609   0.174   3.165   8.935 -0.4615 -0.0394 -0.1101
   89SAPS  H14R 8610   0.255   3.218   8.986  0.0667 -1.6076  0.7591
   89SAPS  C215 8611   0.124   3.214   8.816  0.2407 -0.2615  0.3405
   89SAPS  H15R 8612   0.156   3.312   8.777 -2.8393  1.3271  1.5042
   89SAPS  C216 8613   0.014   3.149   8.732 -0.0006  0.3327  0.6342
   89SAPS  H16R 8614  -0.080   3.199   8.762 -0.8016 -0.9062  0.2752
   89SAPS  H16S 8615  -0.011   3.044   8.761 -3.3552  1.2884  1.7489
   89SAPS  C217 8616   0.016   3.156   8.577 -0.0274  0.2833 -0.0453
   89SAPS  H17R 8617   0.030   3.263   8.549 -1.0260  0.0845 -1.3599
   89SAPS  H17S 8618  -0.079   3.114   8.539 -0.0909 -1.0852  1.5266
   89SAPS  C218 8619   0.134   3.082   8.520 -0.5705  0.0627  0.2378
   89SAPS  H18R 8620   0.105   3.067   8.413  0.2617  0.4858 -0.0632
   89SAPS  H18S 8621   0.145   2.978   8.558 -1.0532 -0.2159 -0.3738
   89SAPS  C219 8622   0.278   3.159   8.535 -0.1915  0.4414 -0.0397
   89SAPS  H19R 8623   0.314   3.170   8.640 -0.2071 -0.6420  0.0910
   89SAPS  H19S 8624   0.257   3.261   8.497 -2.4834  0.1164  0.2568
   89SAPS  C220 8625   0.388   3.097   8.445 -0.5219  0.5568 -0.4797
   89SAPS  H20R 8626   0.390   2.990   8.473 -2.0400 -0.1708 -2.9210
   89SAPS  H20S 8627   0.492   3.138   8.449 -0.8451  1.4208 -0.8773
   89SAPS  H20T 8628   0.355   3.107   8.340 -0.1566 -0.5654 -0.7134
   89SAPS   C33 8629  -0.207   2.675  10.155 -0.0569 -0.4709 -0.2881
   89SAPS   H3X 8630  -0.219   2.775  10.202  0.8173 -0.6511  0.3300
   89SAPS   H3Y 8631  -0.297   2.613  10.176 -0.4602  0.3517  0.4950
   89SAPS   C34 8632  -0.183   2.685  10.012  0.4026  0.3417  0.4097
   89SAPS   H4X 8633  -0.118   2.605   9.969  2.1329  1.2205  1.2754
   89SAPS   H4Y 8634  -0.122   2.776   9.990 -0.1725  0.3235 -1.4384
   89SAPS   C35 8635  -0.311   2.683   9.928  0.2591 -0.2992  0.3666
   89SAPS   H5X 8636  -0.380   2.758   9.973 -2.1573 -2.2685  0.1591
   89SAPS   H5Y 8637  -0.373   2.590   9.930 -0.0981 -0.1569 -1.8584
   89SAPS   C36 8638  -0.286   2.723   9.781  0.4961  0.4196 -0.2003
   89SAPS   H6X 8639  -0.257   2.633   9.723 -1.0313 -0.4736  0.3533
   89SAPS   H6Y 8640  -0.198   2.791   9.776 -0.2210  1.2700 -2.3014
   89SAPS   C37 8641  -0.411   2.778   9.715 -0.7751 -0.5064 -0.4874
   89SAPS   H7X 8642  -0.459   2.859   9.774  0.4681 -1.0487  1.3746
   89SAPS   H7Y 8643  -0.480   2.693   9.698 -1.1550 -0.5548  1.1463
   89SAPS   C38 8644  -0.377   2.840   9.576 -0.1282  0.0624  0.5749
   89SAPS   H8X 8645  -0.292   2.911   9.590  0.7205 -0.8287  0.0538
   89SAPS   H8Y 8646  -0.468   2.889   9.536 -0.8935 -0.5465  1.5511
   89SAPS   C39 8647  -0.335   2.737   9.466 -0.6001 -0.4776  0.5042
   89SAPS   H9X 8648  -0.437   2.704   9.435 -0.4537 -0.1303 -0.3561
   89SAPS   H9Y 8649  -0.276   2.650   9.503  0.6913 -1.1562 -2.8318
   89SAPS  C310 8650  -0.264   2.799   9.346  0.7679 -0.0174 -0.4914
   89SAPS  H10X 8651  -0.232   2.718   9.277  0.7234 -1.8802  1.5713
   89SAPS  H10Y 8652  -0.168   2.835   9.391  0.3340  1.6670 -0.8283
   89SAPS  C311 8653  -0.333   2.907   9.272  0.0829 -0.1235  0.2609
   89SAPS  H11X 8654  -0.319   2.997   9.336  0.3478 -1.0751  1.5863
   89SAPS  H11Y 8655  -0.441   2.884   9.268  0.4409 -2.1884  1.2640
   89SAPS  C312 8656  -0.285   2.937   9.126  0.3706  0.4688 -0.6330
   89SAPS  H12X 8657  -0.288   2.839   9.074  2.3916  0.0432 -0.0192
   89SAPS  H12Y 8658  -0.181   2.971   9.142 -0.1644  2.0334 -0.2643
   89SAPS  C313 8659  -0.369   3.043   9.056 -0.5023  0.5257  0.9530
   89SAPS  H13X 8660  -0.345   3.142   9.100  1.1247  0.4333  0.3661
   89SAPS  H13Y 8661  -0.477   3.026   9.071 -0.3791 -1.3185  0.0492
   89SAPS  C314 8662  -0.347   3.050   8.901  0.4464  0.0025  0.8955
   89SAPS  H14X 8663  -0.381   2.954   8.855  0.1401  0.6716 -0.3231
   89SAPS  H14Y 8664  -0.242   3.078   8.880  0.5384  0.7792  2.2761
   89SAPS  C315 8665  -0.450   3.148   8.845  0.2415 -0.6360  1.1681
   89SAPS  H15X 8666  -0.464   3.233   8.915 -3.3300  0.3271 -0.5094
   89SAPS  H15Y 8667  -0.552   3.105   8.843 -0.4388  0.8785  1.2458
   89SAPS  C316 8668  -0.402   3.208   8.707 -0.2410 -0.0049  0.2323
   89SAPS  H16X 8669  -0.372   3.115   8.655  0.5830  0.4410 -0.1033
   89SAPS  H16Y 8670  -0.309   3.267   8.720  0.2362 -0.7398  0.2241
   89SAPS  C317 8671  -0.505   3.290   8.627  0.8931 -0.0683  0.2144
   89SAPS  H17X 8672  -0.529   3.371   8.698  0.9325  0.2606 -0.1447
   89SAPS  H17Y 8673  -0.597   3.230   8.609 -1.1093  2.7478  0.3352
   89SAPS  C318 8674  -0.449   3.340   8.491 -0.5889  0.2348 -0.3539
   89SAPS  H18X 8675  -0.363   3.409   8.504  1.0546 -1.5886 -0.9551
   89SAPS  H18Y 8676  -0.523   3.393   8.428  2.3347  1.3436 -3.1139
   89SAPS  H18Z 8677  -0.397   3.257   8.438  0.2788 -0.0089  0.8157
   90SAPS     N 8678   1.951   0.766  11.044  0.1132 -0.1513  0.1466
   90SAPS   HN1 8679   1.937   0.686  10.978  2.9307 -0.5489 -0.0871
   90SAPS   HN2 8680   1.985   0.733  11.136  0.0979 -0.1030  0.1695
   90SAPS   HN3 8681   1.852   0.796  11.057  0.3468  0.3699  0.7497
   90SAPS   C12 8682   2.040   0.871  10.979  0.8201  0.5943  0.5115
   90SAPS  H12A 8683   1.983   0.907  10.894  0.0608 -0.1283  0.6951
   90SAPS   C13 8684   2.089   0.989  11.069 -0.0451  0.0658  0.3049
   90SAPS  O13A 8685   2.048   1.009  11.191  0.2913  0.7387  1.0126
   90SAPS  O13B 8686   2.173   1.071  11.025  0.0024 -0.5073 -0.1011
   90SAPS   C11 8687   2.165   0.804  10.910  0.0838  0.0288 -0.5119
   90SAPS  H11A 8688   2.239   0.768  10.985  0.8168  1.5059 -0.4867
   90SAPS  H11B 8689   2.217   0.883  10.853  1.4229 -0.7649 -0.4335
   90SAPS     P 8690   2.250   0.627  10.735 -0.1826  0.3205  0.0171
   90SAPS   O13 8691   2.382   0.648  10.794 -0.4602  0.4928  0.3748
   90SAPS   O14 8692   2.203   0.490  10.712 -0.3289 -0.4703  0.1047
   90SAPS   O12 8693   2.139   0.696  10.824  0.4550 -0.2992 -0.5691
   90SAPS   O11 8694   2.246   0.706  10.597  0.1918  0.1104 -0.3106
   90SAPS    C1 8695   2.129   0.673  10.514 -0.0960  0.2119  0.6338
   90SAPS    HA 8696   2.129   0.564  10.493  1.7366 -0.0611  1.8179
   90SAPS    HB 8697   2.035   0.703  10.565  0.6371 -0.7168  2.5955
   90SAPS    C2 8698   2.142   0.755  10.386 -0.1440 -0.6784 -0.0984
   90SAPS    HS 8699   2.040   0.752  10.342  0.1632 -1.5971 -0.7842
   90SAPS   O21 8700   2.233   0.692  10.291 -0.0634 -0.1318  0.3429
   90SAPS   C21 8701   2.189   0.583  10.221  0.7234  0.1974 -0.4137
   90SAPS   O22 8702   2.072   0.550  10.223 -0.3346 -0.4439  0.3585
   90SAPS   C22 8703   2.301   0.502  10.164  0.4187  0.8082  0.5668
   90SAPS   H2R 8704   2.368   0.570  10.106 -0.6063  1.4356  0.0819
   90SAPS   H2S 8705   2.357   0.460  10.250  2.1641  0.9309 -0.4593
   90SAPS    C3 8706   2.186   0.904  10.427  0.1434  0.1916 -0.1805
   90SAPS    HX 8707   2.266   0.891  10.502 -0.1832 -0.3367  0.0806
   90SAPS    HY 8708   2.099   0.944  10.485 -0.5028 -1.0734 -0.2480
   90SAPS   O31 8709   2.223   1.001  10.317  0.0060 -0.3688  0.5894
   90SAPS   C31 8710   2.343   0.989  10.259 -0.7397  0.3655 -0.2102
   90SAPS   O32 8711   2.432   0.913  10.295 -0.7184 -0.1012  0.2235
   90SAPS   C32 8712   2.355   1.081  10.133 -0.0053  0.2160 -0.5413
   90SAPS   H2X 8713   2.414   1.172  10.159  0.1144 -0.0457  0.1284
   90SAPS   H2Y 8714   2.255   1.111  10.096 -0.8998 -1.5713  0.3114
   90SAPS   C23 8715   2.247   0.383  10.071  0.5191 -0.3749  0.0956
   90SAPS   H3R 8716   2.194   0.422   9.981  0.3396  0.5952  0.6069
   90SAPS   H3S 8717   2.168   0.319  10.116  1.0044  0.4637  2.2524
   90SAPS   C24 8718   2.362   0.290  10.031 -0.7322 -0.4902  0.1258
   90SAPS   H4R 8719   2.321   0.203   9.975  2.5751 -2.4718  0.4676
   90SAPS   H4S 8720   2.395   0.256  10.132 -1.3498 -3.0996 -0.4651
   90SAPS   C25 8721   2.472   0.352   9.946  0.1121 -0.3901  0.6203
   90SAPS   H5R 8722   2.564   0.377  10.001  0.2304 -1.1081  0.7541
   90SAPS   C26 8723   2.472   0.371   9.812  0.0886  0.4048  0.4465
   90SAPS   H6R 8724   2.555   0.431   9.772  2.4829 -1.8478  1.7120
   90SAPS   C27 8725   2.365   0.332   9.709  0.0876 -0.4820 -0.0416
   90SAPS   H7R 8726   2.319   0.430   9.687  1.2526 -0.0792 -0.7800
   90SAPS   H7S 8727   2.281   0.274   9.753 -1.3319  0.4282 -1.4311
   90SAPS   C28 8728   2.407   0.271   9.580 -0.4495  0.4354 -0.1522
   90SAPS   H8R 8729   2.394   0.161   9.583 -0.8095  0.4798  2.6577
   90SAPS   C29 8730   2.464   0.330   9.474  0.2051 -0.3671 -0.0964
   90SAPS   H9R 8731   2.476   0.279   9.378  0.1804 -2.1098  0.7989
   90SAPS  C210 8732   2.493   0.474   9.472  0.2958  0.2257  0.9411
   90SAPS  H10R 8733   2.604   0.471   9.470  0.3599 -1.2825  3.1041
   90SAPS  H10S 8734   2.455   0.527   9.563  1.8565  2.5457  0.3295
   90SAPS  C211 8735   2.444   0.547   9.352  0.5281 -0.4888 -0.4371
   90SAPS  H11R 8736   2.371   0.491   9.291 -2.0805  1.5589  0.5985
   90SAPS  C212 8737   2.459   0.678   9.323  0.9340 -0.5657 -0.2972
   90SAPS  H12R 8738   2.434   0.725   9.227  0.2909  1.1259  0.6525
   90SAPS  C213 8739   2.533   0.784   9.410  0.3139  0.6428  0.8722
   90SAPS  H13R 8740   2.537   0.749   9.515 -0.0888  1.4201  1.1472
   90SAPS  H13S 8741   2.487   0.885   9.409 -0.6604  0.2130 -0.4135
   90SAPS  C214 8742   2.683   0.782   9.380  0.1896 -0.7841 -0.3824
   90SAPS  H14R 8743   2.721   0.695   9.324  0.1797 -1.0566  0.0321
   90SAPS  C215 8744   2.761   0.891   9.411  0.3586  0.3569  0.4028
   90SAPS  H15R 8745   2.869   0.891   9.387  0.9808 -4.2190  2.2505
   90SAPS  C216 8746   2.702   1.013   9.481 -0.4496  0.1870 -0.2954
   90SAPS  H16R 8747   2.608   1.051   9.435  0.1418 -0.8885 -2.5429
   90SAPS  H16S 8748   2.782   1.090   9.475  0.5397 -0.9043 -2.2340
   90SAPS  C217 8749   2.682   0.977   9.631  0.0967 -0.5180  0.2440
   90SAPS  H17R 8750   2.624   0.886   9.653  0.6209 -0.6158  1.2912
   90SAPS  H17S 8751   2.633   1.067   9.675  0.1767  0.5139 -1.6359
   90SAPS  C218 8752   2.814   0.952   9.707 -0.2027  0.7864 -0.3953
   90SAPS  H18R 8753   2.891   1.031   9.695  0.1214  0.7349  1.1351
   90SAPS  H18S 8754   2.864   0.860   9.672  1.7353  1.8507 -0.5952
   90SAPS  C219 8755   2.786   0.938   9.854 -0.1913 -0.1584 -0.4968
   90SAPS  H19R 8756   2.704   0.862   9.856  0.0042 -0.3601  0.9191
   90SAPS  H19S 8757   2.752   1.035   9.897  1.8662  0.4884 -0.2398
   90SAPS  C220 8758   2.900   0.891   9.945  0.4414 -0.0795 -0.0413
   90SAPS  H20R 8759   2.948   0.795   9.913  1.7671  0.3032  0.7355
   90SAPS  H20S 8760   2.869   0.864  10.048 -1.0319 -0.7596 -0.6347
   90SAPS  H20T 8761   2.980   0.967   9.958  0.2673 -0.0560  1.0237
   90SAPS   C33 8762   2.421   1.008  10.011  0.6369 -0.0905  0.1754
   90SAPS   H3X 8763   2.509   0.952  10.052  1.2694  0.8911  0.1783
   90SAPS   H3Y 8764   2.444   1.077   9.928 -0.2325  0.4277  0.3576
   90SAPS   C34 8765   2.322   0.907   9.941 -0.0545 -0.0192  0.0604
   90SAPS   H4X 8766   2.231   0.960   9.908  0.7575 -0.9053 -4.1677
   90SAPS   H4Y 8767   2.290   0.829  10.014  1.7481 -0.3551  0.5568
   90SAPS   C35 8768   2.375   0.849   9.808  0.3919  0.6109 -0.2100
   90SAPS   H5X 8769   2.477   0.809   9.829  0.8190  1.7927  0.0821
   90SAPS   H5Y 8770   2.390   0.929   9.732  1.8457  0.9451  0.3920
   90SAPS   C36 8771   2.301   0.736   9.738  0.0095 -0.4290  0.9534
   90SAPS   H6X 8772   2.295   0.640   9.794  1.8581 -0.1718  1.6744
   90SAPS   H6Y 8773   2.343   0.721   9.636 -0.7537  1.7235  0.2634
   90SAPS   C37 8774   2.157   0.762   9.693 -0.5344 -0.1121 -0.3578
   90SAPS   H7X 8775   2.136   0.869   9.672  0.5780  0.6436  2.0181
   90SAPS   H7Y 8776   2.090   0.736   9.777 -0.4032 -2.2707 -0.8521
   90SAPS   C38 8777   2.110   0.666   9.582  0.0247  0.2518 -0.2940
   90SAPS   H8X 8778   2.002   0.654   9.604 -0.0824  2.4412  0.5677
   90SAPS   H8Y 8779   2.150   0.562   9.592 -2.1977 -0.4822  2.0132
   90SAPS   C39 8780   2.138   0.727   9.444 -0.3059  0.0143 -0.1874
   90SAPS   H9X 8781   2.108   0.656   9.363  0.1108  0.9327 -1.1796
   90SAPS   H9Y 8782   2.245   0.754   9.436  0.2027 -0.7175  3.0262
   90SAPS  C310 8783   2.048   0.847   9.411  0.4294  0.5279 -0.2515
   90SAPS  H10X 8784   2.049   0.923   9.492  2.1714  0.8164 -0.5000
   90SAPS  H10Y 8785   1.947   0.803   9.398  1.3374 -1.0183 -2.6985
   90SAPS  C311 8786   2.092   0.917   9.286  0.5052 -0.3103  0.2960
   90SAPS  H11X 8787   2.201   0.940   9.297  0.1499  1.0528  1.2847
   90SAPS  H11Y 8788   2.056   1.019   9.265 -1.4430 -1.0702 -0.2272
   90SAPS  C312 8789   2.064   0.835   9.157  0.2102 -0.2355 -0.6175
   90SAPS  H12X 8790   1.954   0.819   9.169 -0.1579  2.8262  1.5087
   90SAPS  H12Y 8791   2.119   0.739   9.163 -0.5456 -0.9150 -3.1707
   90SAPS  C313 8792   2.106   0.907   9.031  0.6501 -0.2425 -0.9225
   90SAPS  H13X 8793   2.054   1.005   9.023  0.4265 -0.1427  1.1922
   90SAPS  H13Y 8794   2.076   0.847   8.943 -1.4521  0.0268 -0.4510
   90SAPS  C314 8795   2.255   0.939   9.020 -0.1817 -0.6225 -0.7383
   90SAPS  H14X 8796   2.314   0.848   9.039  0.0964 -0.2457  0.2176
   90SAPS  H14Y 8797   2.283   1.015   9.096 -0.2044 -0.4248 -0.9241
   90SAPS  C315 8798   2.280   1.001   8.887  0.1084  0.2230 -0.1402
   90SAPS  H15X 8799   2.247   1.107   8.883 -0.0897  0.2182  1.0810
   90SAPS  H15Y 8800   2.230   0.951   8.801 -0.8323  2.6798 -1.1186
   90SAPS  C316 8801   2.432   0.997   8.838  0.0381  0.3017  0.5152
   90SAPS  H16X 8802   2.449   1.078   8.763  0.4353  0.5118  0.8290
   90SAPS  H16Y 8803   2.436   0.894   8.798 -1.3507 -0.0402  1.1659
   90SAPS  C317 8804   2.547   1.019   8.939 -0.6389 -0.8733 -0.2677
   90SAPS  H17X 8805   2.646   0.984   8.899  0.8550  0.3511  2.1497
   90SAPS  H17Y 8806   2.524   0.950   9.023 -1.4208 -0.8276 -0.4388
   90SAPS  C318 8807   2.561   1.162   8.994  0.1211  0.3792  0.0153
   90SAPS  H18X 8808   2.463   1.208   9.019 -1.2009 -2.0643 -0.2759
   90SAPS  H18Y 8809   2.612   1.226   8.919  1.3722 -1.7880 -1.1107
   90SAPS  H18Z 8810   2.617   1.165   9.090  0.4431 -0.0034 -0.1549
   91SAPS     N 8811   4.746   3.749   5.831  0.4842 -0.1108 -0.0798
   91SAPS   HN1 8812   4.781   3.836   5.876  0.1271 -0.6299  1.2309
   91SAPS   HN2 8813   4.659   3.765   5.776  0.2150 -0.0576  0.3580
   91SAPS   HN3 8814   4.714   3.692   5.912 -2.8866 -0.5483 -1.5386
   91SAPS   C12 8815   4.848   3.679   5.737  0.2956  0.4476  0.2022
   91SAPS  H12A 8816   4.811   3.578   5.721  1.1342  0.0098  0.9389
   91SAPS   C13 8817   4.854   3.748   5.595  0.4437 -0.1016 -0.0844
   91SAPS  O13A 8818   4.777   3.837   5.564  0.3662  0.1611  0.1201
   91SAPS  O13B 8819   4.906   3.673   5.508  0.7331 -0.9144  0.4170
   91SAPS   C11 8820   4.982   3.669   5.814 -0.2684  0.2935  0.1296
   91SAPS  H11A 8821   5.054   3.597   5.769  0.4880  1.1513 -0.0595
   91SAPS  H11B 8822   4.965   3.627   5.916  0.9623  0.8845  0.5979
   91SAPS     P 8823   5.047   3.890   5.950  0.4347  0.0479  0.1519
   91SAPS   O13 8824   5.124   4.012   5.927 -0.0005  0.1597  0.8773
   91SAPS   O14 8825   4.906   3.914   5.992  0.5499 -0.5260 -0.6598
   91SAPS   O12 8826   5.042   3.799   5.820 -0.3824 -0.6431  0.3669
   91SAPS   O11 8827   5.119   3.788   6.050 -0.5146 -0.3445  0.0871
   91SAPS    C1 8828   5.059   3.718   6.154  0.7165  0.3062  0.1258
   91SAPS    HA 8829   4.949   3.730   6.147  0.6381  1.4242  2.2831
   91SAPS    HB 8830   5.087   3.611   6.157 -1.0270 -0.1748  0.3105
   91SAPS    C2 8831   5.101   3.789   6.287 -0.1089  0.0689 -0.0068
   91SAPS    HS 8832   5.054   3.889   6.282 -1.2305 -0.4699 -0.7174
   91SAPS   O21 8833   5.239   3.782   6.287 -0.4787 -0.3850 -0.2002
   91SAPS   C21 8834   5.299   3.880   6.357  0.0422  0.0087 -0.5957
   91SAPS   O22 8835   5.243   3.976   6.406 -0.4948  0.3663  0.3121
   91SAPS   C22 8836   5.451   3.866   6.368 -0.0530  0.1348 -0.1027
   91SAPS   H2R 8837   5.482   3.847   6.263 -3.0212 -0.8025 -0.8877
   91SAPS   H2S 8838   5.489   3.963   6.409  1.1199 -0.5256  0.4292
   91SAPS    C3 8839   5.032   3.714   6.401 -0.0081  0.3956  0.4525
   91SAPS    HX 8840   5.043   3.607   6.372 -2.0755  0.4110 -0.5509
   91SAPS    HY 8841   4.921   3.724   6.405 -0.2550 -1.6846  0.2819
   91SAPS   O31 8842   5.088   3.754   6.529 -0.0929  0.3217 -0.4839
   91SAPS   C31 8843   5.038   3.860   6.580 -0.4069  0.4179 -1.0784
   91SAPS   O32 8844   4.933   3.914   6.545 -0.7541  0.2217  0.2723
   91SAPS   C32 8845   5.125   3.904   6.693 -1.1983 -1.1174  0.0737
   91SAPS   H2X 8846   5.149   4.012   6.685  0.8989 -1.6102 -0.9978
   91SAPS   H2Y 8847   5.218   3.843   6.694  0.1920  0.8923  1.0280
   91SAPS   C23 8848   5.493   3.748   6.453 -0.0016 -0.1808  0.3420
   91SAPS   H3R 8849   5.445   3.651   6.424 -2.7750  0.1454  3.3045
   91SAPS   H3S 8850   5.444   3.765   6.551 -0.5991 -1.0980  0.2243
   91SAPS   C24 8851   5.649   3.722   6.456 -0.5999 -0.2317  0.1332
   91SAPS   H4R 8852   5.692   3.811   6.506 -0.5385 -0.2727  0.1535
   91SAPS   H4S 8853   5.696   3.712   6.356  1.4426  1.3765  0.8730
   91SAPS   C25 8854   5.675   3.592   6.535  0.5083 -0.0350  0.1268
   91SAPS   H5R 8855   5.702   3.500   6.481  1.0628  0.6506 -0.8025
   91SAPS   C26 8856   5.674   3.582   6.666  0.0180  0.3337 -0.5242
   91SAPS   H6R 8857   5.691   3.482   6.709  0.0504 -0.1610 -1.6428
   91SAPS   C27 8858   5.636   3.688   6.761 -0.8937  0.1078 -0.5997
   91SAPS   H7R 8859   5.627   3.794   6.730  1.6484  1.3643  2.4100
   91SAPS   H7S 8860   5.724   3.695   6.828  0.3880 -2.7022 -1.8442
   91SAPS   C28 8861   5.520   3.645   6.845  0.1985  0.5871 -0.3216
   91SAPS   H8R 8862   5.448   3.583   6.791 -0.3807  1.0130 -0.0496
   91SAPS   C29 8863   5.497   3.679   6.975  0.5228 -0.7816  0.7448
   91SAPS   H9R 8864   5.404   3.643   7.022  1.0415 -2.9032  0.2678
   91SAPS  C210 8865   5.578   3.767   7.070  0.1602 -0.5311  0.4235
   91SAPS  H10R 8866   5.517   3.817   7.148 -0.1832 -1.0741  0.5060
   91SAPS  H10S 8867   5.613   3.852   7.007 -0.3466  0.4684  1.4511
   91SAPS  C211 8868   5.692   3.687   7.138  0.0549 -0.6370  0.0046
   91SAPS  H11R 8869   5.755   3.629   7.069  3.6403  2.1949  0.5844
   91SAPS  C212 8870   5.711   3.683   7.271 -0.4015 -0.3864  0.4892
   91SAPS  H12R 8871   5.795   3.626   7.313 -0.8377 -1.5407 -0.1631
   91SAPS  C213 8872   5.633   3.757   7.371 -1.2279  0.3953  0.1930
   91SAPS  H13R 8873   5.525   3.750   7.345 -1.4891 -4.2746  1.5039
   91SAPS  H13S 8874   5.671   3.859   7.393  1.0344 -0.5981  1.2582
   91SAPS  C214 8875   5.635   3.677   7.502  0.4321 -0.4731  0.0530
   91SAPS  H14R 8876   5.574   3.586   7.487 -2.1216  1.1981 -0.3000
   91SAPS  C215 8877   5.679   3.718   7.622  0.0953  0.1785 -0.2616
   91SAPS  H15R 8878   5.677   3.649   7.707  0.1776  0.0046 -0.3995
   91SAPS  C216 8879   5.756   3.843   7.654 -0.4085 -0.5139 -0.0647
   91SAPS  H16R 8880   5.694   3.934   7.638  0.1117 -0.1696 -0.1667
   91SAPS  H16S 8881   5.848   3.850   7.591 -0.6066  0.7848 -0.2401
   91SAPS  C217 8882   5.808   3.845   7.803 -0.7172 -0.5134 -0.2299
   91SAPS  H17R 8883   5.859   3.750   7.829 -0.1005 -0.6659 -1.8419
   91SAPS  H17S 8884   5.723   3.867   7.871  1.4616 -0.8989  2.8160
   91SAPS  C218 8885   5.910   3.964   7.821  0.3327 -0.0939 -0.6773
   91SAPS  H18R 8886   5.856   4.058   7.795 -0.5280 -0.0192  1.2428
   91SAPS  H18S 8887   6.001   3.945   7.760  1.1794  3.4259 -0.7143
   91SAPS  C219 8888   5.964   3.951   7.960 -0.2263 -0.3429 -0.2935
   91SAPS  H19R 8889   6.000   3.847   7.974 -0.9758 -1.0511 -3.0306
   91SAPS  H19S 8890   5.880   3.964   8.032 -0.1559  2.1703 -0.5723
   91SAPS  C220 8891   6.070   4.060   8.005 -0.0215 -0.0929 -0.2245
   91SAPS  H20R 8892   6.104   4.047   8.110 -0.9472  2.4926  0.4468
   91SAPS  H20S 8893   6.023   4.160   7.993  0.4571  0.1197 -0.3510
   91SAPS  H20T 8894   6.152   4.053   7.930 -0.8143 -0.1408 -1.0974
   91SAPS   C33 8895   5.073   3.877   6.839  0.3077 -0.4023  0.0771
   91SAPS   H3X 8896   5.024   3.778   6.837 -0.4089 -0.0396 -0.8392
   91SAPS   H3Y 8897   5.000   3.954   6.872 -1.6110 -2.4456  0.8317
   91SAPS   C34 8898   5.171   3.858   6.955 -0.2402 -0.1755  0.3235
   91SAPS   H4X 8899   5.253   3.933   6.953  0.1638 -0.5783 -2.7939
   91SAPS   H4Y 8900   5.230   3.768   6.928 -0.0731  0.2111 -0.6416
   91SAPS   C35 8901   5.107   3.847   7.092  0.4556 -0.0011 -0.9401
   91SAPS   H5X 8902   5.028   3.769   7.100  1.6922 -1.3339 -1.3249
   91SAPS   H5Y 8903   5.068   3.945   7.128  1.2441 -0.1596  0.4054
   91SAPS   C36 8904   5.207   3.813   7.204 -0.1709  0.2124 -0.1661
   91SAPS   H6X 8905   5.282   3.895   7.210  1.8087 -1.5513  1.0772
   91SAPS   H6Y 8906   5.259   3.718   7.179 -0.0945 -0.0446  0.9238
   91SAPS   C37 8907   5.139   3.812   7.336  0.8130  0.1126  0.3746
   91SAPS   H7X 8908   5.075   3.721   7.342 -0.0702  0.6359 -0.8062
   91SAPS   H7Y 8909   5.089   3.909   7.350  1.7814  0.7407 -0.3551
   91SAPS   C38 8910   5.246   3.793   7.442 -0.1709 -0.3368 -0.2415
   91SAPS   H8X 8911   5.315   3.880   7.447 -0.5117 -0.0664 -0.1230
   91SAPS   H8Y 8912   5.298   3.696   7.428 -1.4398 -0.9402 -0.9769
   91SAPS   C39 8913   5.177   3.772   7.581 -0.2397  1.1235  0.3693
   91SAPS   H9X 8914   5.102   3.690   7.573  0.9931  0.1286 -1.8005
   91SAPS   H9Y 8915   5.115   3.859   7.611  0.0369  1.0065  1.3215
   91SAPS  C310 8916   5.271   3.739   7.697 -0.1476 -0.1781 -0.2671
   91SAPS  H10X 8917   5.366   3.795   7.713  0.8590 -1.9517  0.3024
   91SAPS  H10Y 8918   5.306   3.638   7.666  2.4505  0.9981 -1.5433
   91SAPS  C311 8919   5.187   3.745   7.828  0.8108  0.4801 -0.3081
   91SAPS  H11X 8920   5.101   3.676   7.819  0.0742  1.2236  0.8363
   91SAPS  H11Y 8921   5.160   3.853   7.832 -1.8443  0.0760 -3.4465
   91SAPS  C312 8922   5.266   3.684   7.943 -0.1773 -0.5034 -0.2635
   91SAPS  H12X 8923   5.324   3.594   7.912  1.8270 -0.0001  1.7426
   91SAPS  H12Y 8924   5.195   3.658   8.024  2.0654 -2.0841  1.3538
   91SAPS  C313 8925   5.363   3.785   8.007 -0.2845  0.6943  0.2585
   91SAPS  H13X 8926   5.297   3.851   8.068  2.0778  1.0793  2.6098
   91SAPS  H13Y 8927   5.414   3.836   7.923  0.8807  0.6613  0.9359
   91SAPS  C314 8928   5.470   3.725   8.107 -0.3072  0.2491  0.3498
   91SAPS  H14X 8929   5.506   3.637   8.049  0.1394  1.0429 -0.6114
   91SAPS  H14Y 8930   5.419   3.682   8.196  1.2129 -1.9616  0.2260
   91SAPS  C315 8931   5.585   3.811   8.151 -0.4899  0.1809 -0.2500
   91SAPS  H15X 8932   5.542   3.879   8.228  0.9170 -0.0707  0.7910
   91SAPS  H15Y 8933   5.619   3.863   8.059  1.9631 -0.7831  0.0516
   91SAPS  C316 8934   5.696   3.740   8.229  0.2003  0.3769  0.1342
   91SAPS  H16X 8935   5.646   3.689   8.315  0.3907 -0.9080 -0.4935
   91SAPS  H16Y 8936   5.757   3.810   8.289  0.0069  2.2445 -1.7244
   91SAPS  C317 8937   5.766   3.629   8.141 -0.8108  0.1482 -0.0545
   91SAPS  H17X 8938   5.858   3.680   8.107  1.5759 -3.3257  0.6812
   91SAPS  H17Y 8939   5.705   3.617   8.048 -0.4079  4.1775 -1.0301
   91SAPS  C318 8940   5.780   3.502   8.219 -0.1762  0.1319  0.3545
   91SAPS  H18X 8941   5.683   3.473   8.264  0.1340  1.4463  1.9612
   91SAPS  H18Y 8942   5.853   3.501   8.303 -0.1802 -4.7243  0.5728
   91SAPS  H18Z 8943   5.814   3.418   8.155  1.3869  0.9841  0.0239
   92SAPS     N 8944   5.846   6.246   6.415 -0.1370  0.2407 -0.1838
   92SAPS   HN1 8945   5.928   6.202   6.370  2.0542  3.7509 -0.0174
   92SAPS   HN2 8946   5.879   6.292   6.502  0.4929  2.7877 -1.6575
   92SAPS   HN3 8947   5.777   6.172   6.439 -0.8817  0.9252 -0.1764
   92SAPS   C12 8948   5.786   6.355   6.329  0.6228  0.1535  0.3566
   92SAPS  H12A 8949   5.811   6.336   6.226 -2.7415  0.6255 -0.6631
   92SAPS   C13 8950   5.629   6.353   6.324  0.0898 -0.2578 -0.2352
   92SAPS  O13A 8951   5.564   6.282   6.407 -0.6879  0.0191 -0.1818
   92SAPS  O13B 8952   5.561   6.429   6.243  0.0307 -0.5208  0.3390
   92SAPS   C11 8953   5.842   6.496   6.373  0.4349 -0.4232 -0.9123
   92SAPS  H11A 8954   5.820   6.520   6.479 -0.5063  0.8315 -1.3643
   92SAPS  H11B 8955   5.791   6.576   6.316 -0.9271 -0.9570 -0.4921
   92SAPS     P 8956   6.067   6.590   6.268 -0.7990  0.3904  0.3216
   92SAPS   O13 8957   6.160   6.502   6.188 -0.1005  0.1442 -0.1667
   92SAPS   O14 8958   5.975   6.680   6.195 -0.3999  0.8770  0.1766
   92SAPS   O12 8959   5.982   6.501   6.357 -0.7813 -0.0633  0.0535
   92SAPS   O11 8960   6.165   6.675   6.367 -0.1255  0.6903 -0.1849
   92SAPS    C1 8961   6.133   6.736   6.488 -0.4280  0.7216  0.6189
   92SAPS    HA 8962   6.162   6.843   6.482  1.9608  0.1180  0.1769
   92SAPS    HB 8963   6.023   6.741   6.500 -0.3814  0.4140  1.2514
   92SAPS    C2 8964   6.207   6.662   6.596 -0.9094 -0.2532  0.2230
   92SAPS    HS 8965   6.179   6.554   6.595 -0.3624 -0.4543  2.3589
   92SAPS   O21 8966   6.178   6.727   6.721  0.1976 -0.2773  0.2540
   92SAPS   C21 8967   6.083   6.663   6.797 -0.1977 -0.6335  0.0400
   92SAPS   O22 8968   6.009   6.574   6.752 -0.3901  0.3838 -0.6549
   92SAPS   C22 8969   6.064   6.725   6.936  0.4260 -0.1313 -0.0945
   92SAPS   H2R 8970   6.008   6.817   6.909  1.5169  0.3128 -0.9326
   92SAPS   H2S 8971   6.004   6.656   6.997 -1.3656 -0.0098 -1.6146
   92SAPS    C3 8972   6.357   6.665   6.567 -0.1976 -0.5054  0.3764
   92SAPS    HX 8973   6.391   6.759   6.518 -0.0496 -0.3526  0.7691
   92SAPS    HY 8974   6.376   6.596   6.482  0.5657  0.5078 -0.2967
   92SAPS   O31 8975   6.443   6.625   6.676 -0.5457 -0.7042  0.6333
   92SAPS   C31 8976   6.506   6.722   6.733  0.5356  0.3707 -0.4687
   92SAPS   O32 8977   6.501   6.840   6.709 -0.5277 -0.8764 -0.2673
   92SAPS   C32 8978   6.575   6.664   6.862 -0.3166 -0.8972  0.4120
   92SAPS   H2X 8979   6.649   6.590   6.825 -0.4345 -0.4059 -0.8619
   92SAPS   H2Y 8980   6.500   6.601   6.917 -0.1109 -2.0068 -0.5355
   92SAPS   C23 8981   6.199   6.782   6.992  0.1981  0.3039  0.7392
   92SAPS   H3R 8982   6.250   6.839   6.913  1.1346 -0.9604  0.3964
   92SAPS   H3S 8983   6.268   6.696   7.006  3.1044  2.6518  1.9617
   92SAPS   C24 8984   6.191   6.854   7.129  0.5121  0.2786 -0.5985
   92SAPS   H4R 8985   6.142   6.953   7.121  0.9849  0.5811  0.1748
   92SAPS   H4S 8986   6.293   6.880   7.164  0.3629 -1.3142  1.1263
   92SAPS   C25 8987   6.121   6.769   7.230  0.2254 -0.0219 -0.5241
   92SAPS   H5R 8988   6.011   6.768   7.220  0.0340 -0.5380  1.2230
   92SAPS   C26 8989   6.173   6.709   7.339  0.1857 -0.1944  0.1372
   92SAPS   H6R 8990   6.114   6.641   7.402  1.5491 -1.8657 -0.3265
   92SAPS   C27 8991   6.317   6.700   7.386  0.2589 -0.0614  0.3181
   92SAPS   H7R 8992   6.376   6.780   7.337 -0.0524  0.9264  1.5164
   92SAPS   H7S 8993   6.356   6.598   7.368 -1.7868 -1.0695  1.2670
   92SAPS   C28 8994   6.321   6.732   7.530 -0.4220 -0.0510  0.7878
   92SAPS   H8R 8995   6.350   6.835   7.555  3.1293 -0.7719  0.1658
   92SAPS   C29 8996   6.319   6.647   7.634  0.0486  0.0608  0.2201
   92SAPS   H9R 8997   6.315   6.695   7.733  0.7282  3.0695 -1.1026
   92SAPS  C210 8998   6.285   6.501   7.638 -0.4262  0.2016  0.2395
   92SAPS  H10R 8999   6.275   6.468   7.532 -1.8853 -0.3977  0.5463
   92SAPS  H10S 9000   6.187   6.486   7.689 -0.3572  1.8698  0.9255
   92SAPS  C211 9001   6.403   6.431   7.707  0.2907 -0.2607 -0.5530
   92SAPS  H11R 9002   6.488   6.434   7.637  1.4107 -0.4841  0.7578
   92SAPS  C212 9003   6.410   6.365   7.823  0.2090  0.4194  0.2604
   92SAPS  H12R 9004   6.510   6.335   7.856  1.2567  1.7600 -1.5502
   92SAPS  C213 9005   6.299   6.333   7.917  0.2885  0.3285 -0.9531
   92SAPS  H13R 9006   6.199   6.347   7.871 -0.9301  0.2660  1.5433
   92SAPS  H13S 9007   6.291   6.404   8.002 -0.1201 -0.2079 -0.5445
   92SAPS  C214 9008   6.329   6.201   7.972 -0.1142  0.1017  0.5547
   92SAPS  H14R 9009   6.343   6.132   7.888 -2.0941  1.5247 -1.0369
   92SAPS  C215 9010   6.323   6.168   8.105 -0.3926  0.3911  1.0724
   92SAPS  H15R 9011   6.379   6.077   8.129 -0.2962  0.5977  1.6318
   92SAPS  C216 9012   6.295   6.252   8.235 -0.1348 -0.6882 -0.1649
   92SAPS  H16R 9013   6.221   6.334   8.223  0.5249 -0.0701 -0.1008
   92SAPS  H16S 9014   6.386   6.305   8.271  0.7214 -1.5549 -1.0190
   92SAPS  C217 9015   6.258   6.172   8.362  0.4127  0.2026 -0.6905
   92SAPS  H17R 9016   6.161   6.121   8.346 -0.2288  0.3243  2.1737
   92SAPS  H17S 9017   6.245   6.249   8.441 -0.7973  0.3968 -1.0654
   92SAPS  C218 9018   6.370   6.087   8.419  0.0724  0.0124  0.5559
   92SAPS  H18R 9019   6.462   6.146   8.402  0.0923 -0.0366  0.4901
   92SAPS  H18S 9020   6.359   5.995   8.357  0.8071  0.3003 -0.0161
   92SAPS  C219 9021   6.362   6.048   8.568  0.5473 -0.9380 -1.4821
   92SAPS  H19R 9022   6.368   6.145   8.621 -1.8979 -1.2564 -0.4699
   92SAPS  H19S 9023   6.440   5.976   8.601 -1.0214 -1.0198  2.6511
   92SAPS  C220 9024   6.220   5.990   8.610  0.5400 -0.1439 -0.5146
   92SAPS  H20R 9025   6.135   6.045   8.564  2.5956  0.2668 -4.1887
   92SAPS  H20S 9026   6.199   5.979   8.719 -2.5545  0.5937 -0.9447
   92SAPS  H20T 9027   6.215   5.889   8.564  1.3566 -0.6033  0.3799
   92SAPS   C33 9028   6.638   6.766   6.961  0.1667 -0.0253  0.0712
   92SAPS   H3X 9029   6.572   6.851   6.989 -1.6143 -1.0058 -0.9563
   92SAPS   H3Y 9030   6.736   6.797   6.921  0.3018  0.1444  0.5309
   92SAPS   C34 9031   6.650   6.700   7.101  0.6599  0.4041  0.0442
   92SAPS   H4X 9032   6.717   6.612   7.102 -0.0178 -0.1191  1.1308
   92SAPS   H4Y 9033   6.551   6.659   7.129  0.9325 -2.5761 -2.8446
   92SAPS   C35 9034   6.697   6.792   7.224 -0.8646 -0.2822  0.1531
   92SAPS   H5X 9035   6.630   6.879   7.243  0.4217  1.2552 -1.9069
   92SAPS   H5Y 9036   6.799   6.836   7.213 -1.8132  2.4872  1.6019
   92SAPS   C36 9037   6.686   6.709   7.354 -0.5272 -0.1530  0.4744
   92SAPS   H6X 9038   6.745   6.616   7.334 -0.0864  0.6290 -2.2836
   92SAPS   H6Y 9039   6.580   6.693   7.381 -0.5614 -0.0616  0.3923
   92SAPS   C37 9040   6.732   6.790   7.487  0.6732  0.7538  0.3118
   92SAPS   H7X 9041   6.668   6.877   7.513 -2.9243 -2.0920  1.8542
   92SAPS   H7Y 9042   6.837   6.821   7.472  0.7238  1.4937  1.9765
   92SAPS   C38 9043   6.732   6.693   7.606 -0.4166 -0.7128  0.0718
   92SAPS   H8X 9044   6.646   6.624   7.593  1.4803 -2.8465 -2.3585
   92SAPS   H8Y 9045   6.731   6.743   7.705  1.0006  1.0999 -0.7802
   92SAPS   C39 9046   6.851   6.601   7.603  0.0823  0.4382  0.3984
   92SAPS   H9X 9047   6.951   6.644   7.625  2.5423 -3.3483 -2.0582
   92SAPS   H9Y 9048   6.865   6.560   7.501  0.9941 -2.4287  1.5634
   92SAPS  C310 9049   6.832   6.465   7.676  0.4611  0.3718 -0.6331
   92SAPS  H10X 9050   6.916   6.394   7.666 -0.7814 -1.3186  0.4786
   92SAPS  H10Y 9051   6.745   6.412   7.632  1.0117 -0.3132 -0.9140
   92SAPS  C311 9052   6.806   6.493   7.823 -0.0251  0.4892 -0.8007
   92SAPS  H11X 9053   6.708   6.539   7.848  1.2037  2.2932  1.0138
   92SAPS  H11Y 9054   6.883   6.568   7.850 -0.3797  0.7674 -0.5451
   92SAPS  C312 9055   6.815   6.370   7.913 -0.7069 -0.5362 -0.5211
   92SAPS  H12X 9056   6.914   6.325   7.891 -0.2348  0.8104 -1.2838
   92SAPS  H12Y 9057   6.736   6.292   7.907  0.1748 -1.6857  1.7242
   92SAPS  C313 9058   6.801   6.408   8.058  0.3223  0.0110 -0.1550
   92SAPS  H13X 9059   6.822   6.316   8.116  1.4814  1.8098  2.4627
   92SAPS  H13Y 9060   6.697   6.440   8.081  0.3053 -0.1249 -0.0416
   92SAPS  C314 9061   6.886   6.524   8.115  0.3100  0.1786 -0.1197
   92SAPS  H14X 9062   6.848   6.609   8.055 -1.0077 -1.0407 -1.0870
   92SAPS  H14Y 9063   6.993   6.509   8.091  0.6387 -0.1783  1.4304
   92SAPS  C315 9064   6.868   6.553   8.267  0.2331  0.7198  0.3456
   92SAPS  H15X 9065   6.909   6.473   8.332 -0.1153 -0.4947 -0.8868
   92SAPS  H15Y 9066   6.761   6.564   8.294  0.4787 -1.6315  2.6590
   92SAPS  C316 9067   6.948   6.678   8.296  0.7289 -0.3844  0.3745
   92SAPS  H16X 9068   6.898   6.767   8.253  0.8838  0.1508  1.2675
   92SAPS  H16Y 9069   7.050   6.657   8.257 -0.5979 -1.0668 -3.0077
   92SAPS  C317 9070   6.966   6.702   8.450  0.5538  0.5362  0.2879
   92SAPS  H17X 9071   6.866   6.743   8.476  1.4661  2.0630  1.5294
   92SAPS  H17Y 9072   7.041   6.783   8.446  2.9296 -1.5653 -2.1866
   92SAPS  C318 9073   7.014   6.592   8.543 -0.1443  0.1687 -0.6787
   92SAPS  H18X 9074   7.104   6.536   8.509 -2.4055 -3.7448 -0.8091
   92SAPS  H18Y 9075   6.931   6.518   8.545 -2.0344  2.1868  0.7529
   92SAPS  H18Z 9076   7.022   6.624   8.649  0.5575 -0.4269 -0.5408
   93SAPS     N 9077   5.869   0.101   6.128  0.0173 -0.1956 -0.3155
   93SAPS   HN1 9078   5.916   0.120   6.037  1.6216 -2.3239 -0.0223
   93SAPS   HN2 9079   5.903   0.179   6.187 -1.8017  2.1236 -2.1378
   93SAPS   HN3 9080   5.873   0.001   6.156 -1.8027 -0.3301 -0.4482
   93SAPS   C12 9081   5.722   0.117   6.099 -0.1399  0.1841  0.2053
   93SAPS  H12A 9082   5.701   0.223   6.100 -1.4809 -0.0391 -1.2017
   93SAPS   C13 9083   5.683   0.073   5.954 -0.0878 -0.1640  0.8272
   93SAPS  O13A 9084   5.769   0.017   5.877 -0.0087 -0.4189  0.4345
   93SAPS  O13B 9085   5.559   0.082   5.924 -0.0768  0.3260 -0.5310
   93SAPS   C11 9086   5.643   0.023   6.197  0.7705  0.7057  0.0932
   93SAPS  H11A 9087   5.656  -0.086   6.179 -2.2288  0.1611  0.6052
   93SAPS  H11B 9088   5.535   0.047   6.182  1.3251  2.1214 -2.0476
   93SAPS     P 9089   5.637   0.179   6.414  0.4117 -0.0296  0.1472
   93SAPS   O13 9090   5.543   0.263   6.331 -0.0995 -0.0935 -0.0015
   93SAPS   O14 9091   5.578   0.132   6.545  0.0446 -0.2168  0.0168
   93SAPS   O12 9092   5.680   0.053   6.334  0.7752  0.3656 -0.3591
   93SAPS   O11 9093   5.770   0.254   6.445  0.0866 -0.1661 -0.5488
   93SAPS    C1 9094   5.858   0.230   6.555  0.9592  0.1269  0.0533
   93SAPS    HA 9095   5.853   0.126   6.595  0.0616  0.2266  0.2366
   93SAPS    HB 9096   5.963   0.235   6.520  0.6015 -1.7745 -1.4257
   93SAPS    C2 9097   5.833   0.334   6.669  0.1282 -0.2178 -0.0192
   93SAPS    HS 9098   5.925   0.336   6.731  0.4557  1.9999 -0.5159
   93SAPS   O21 9099   5.712   0.317   6.740 -0.3963  0.5786  0.1204
   93SAPS   C21 9100   5.702   0.204   6.808 -0.2734 -0.0429 -0.0109
   93SAPS   O22 9101   5.786   0.119   6.817 -0.0413  0.4016 -0.3184
   93SAPS   C22 9102   5.575   0.215   6.905 -0.1720 -0.4769  0.2378
   93SAPS   H2R 9103   5.611   0.274   6.992 -0.3445 -1.6572  1.1352
   93SAPS   H2S 9104   5.495   0.280   6.863  1.9617  2.1031 -0.1290
   93SAPS    C3 9105   5.838   0.476   6.621  0.3439 -0.8789  0.1874
   93SAPS    HX 9106   5.750   0.499   6.557 -0.5337 -2.5151  0.7543
   93SAPS    HY 9107   5.930   0.488   6.560 -0.5540 -2.0244 -1.4733
   93SAPS   O31 9108   5.851   0.570   6.729 -0.5865 -0.3115 -0.2768
   93SAPS   C31 9109   5.737   0.615   6.784  0.3574 -0.0330 -0.2661
   93SAPS   O32 9110   5.624   0.590   6.739  0.0764  0.4694  0.3426
   93SAPS   C32 9111   5.770   0.700   6.914 -0.3301 -0.0871  0.3620
   93SAPS   H2X 9112   5.698   0.784   6.916  1.5166  1.5778 -0.4034
   93SAPS   H2Y 9113   5.874   0.738   6.909  0.3801 -1.8205  0.8935
   93SAPS   C23 9114   5.517   0.072   6.943  0.0886  0.0675  0.3669
   93SAPS   H3R 9115   5.605   0.004   6.937  0.0078  0.0319 -0.4871
   93SAPS   H3S 9116   5.451   0.043   6.859 -0.6816 -2.9186  1.8339
   93SAPS   C24 9117   5.459   0.054   7.082  0.3299 -0.2480  0.9494
   93SAPS   H4R 9118   5.357   0.097   7.082  0.2711 -0.3718  0.2871
   93SAPS   H4S 9119   5.512   0.108   7.163 -0.8078  0.9607  0.9139
   93SAPS   C25 9120   5.444  -0.091   7.120 -0.9364  0.5024  0.6666
   93SAPS   H5R 9121   5.391  -0.149   7.043 -0.2329  1.5749 -0.6724
   93SAPS   C26 9122   5.490  -0.152   7.229 -0.5500 -0.2339 -0.2984
   93SAPS   H6R 9123   5.459  -0.256   7.247  1.3393 -0.8017 -0.0989
   93SAPS   C27 9124   5.560  -0.087   7.344 -0.1865  0.5266  0.1250
   93SAPS   H7R 9125   5.491  -0.008   7.381 -2.4211 -1.1528 -0.2435
   93SAPS   H7S 9126   5.653  -0.043   7.303 -0.3517  0.6842 -0.0793
   93SAPS   C28 9127   5.580  -0.180   7.458 -0.0414 -0.7630  0.0030
   93SAPS   H8R 9128   5.637  -0.268   7.426 -1.9951 -1.5877 -1.4683
   93SAPS   C29 9129   5.520  -0.186   7.581 -0.7897 -0.2111 -0.4198
   93SAPS   H9R 9130   5.553  -0.267   7.648 -0.9155  0.2127  0.1673
   93SAPS  C210 9131   5.433  -0.087   7.649  0.1289  0.5035  0.2107
   93SAPS  H10R 9132   5.334  -0.123   7.685  0.5650 -1.0142 -0.0500
   93SAPS  H10S 9133   5.397  -0.007   7.580  2.5664  2.6029  1.1996
   93SAPS  C211 9134   5.510  -0.009   7.755  0.1555  0.8463  1.0725
   93SAPS  H11R 9135   5.574   0.065   7.705  1.5959 -1.7473 -1.2525
   93SAPS  C212 9136   5.502  -0.010   7.891  0.5386 -0.0726  0.5013
   93SAPS  H12R 9137   5.565   0.061   7.946  0.1956  0.5173  0.1491
   93SAPS  C213 9138   5.419  -0.098   7.978 -0.5625 -0.0292 -0.4015
   93SAPS  H13R 9139   5.482  -0.128   8.065  0.0654  0.7567 -0.5740
   93SAPS  H13S 9140   5.393  -0.190   7.921  1.1839  0.2293 -1.7239
   93SAPS  C214 9141   5.295  -0.036   8.032  0.5656 -0.7052 -0.2162
   93SAPS  H14R 9142   5.206  -0.031   7.967  1.4881 -1.3546 -1.5730
   93SAPS  C215 9143   5.289   0.025   8.155 -0.0089 -0.7954 -0.0312
   93SAPS  H15R 9144   5.193   0.076   8.171 -0.0783  1.1747 -4.8277
   93SAPS  C216 9145   5.394   0.048   8.256 -0.5077 -0.2226 -0.4972
   93SAPS  H16R 9146   5.494   0.015   8.220 -0.4439 -0.3756 -0.1757
   93SAPS  H16S 9147   5.383  -0.011   8.349  0.0019  1.7007  0.8628
   93SAPS  C217 9148   5.409   0.194   8.292  0.0678 -0.4506 -0.2575
   93SAPS  H17R 9149   5.412   0.256   8.199 -2.0218 -0.0584 -0.1047
   93SAPS  H17S 9150   5.493   0.210   8.362 -1.2090 -1.0998  1.4851
   93SAPS  C218 9151   5.292   0.251   8.379  0.4909 -0.5375  0.7475
   93SAPS  H18R 9152   5.298   0.199   8.477 -0.3909 -1.4169  0.3615
   93SAPS  H18S 9153   5.195   0.222   8.332  0.9325 -1.6291  0.4756
   93SAPS  C219 9154   5.293   0.408   8.370 -0.2645  0.0772  0.0201
   93SAPS  H19R 9155   5.293   0.442   8.265 -0.0786 -1.4645 -0.5014
   93SAPS  H19S 9156   5.388   0.440   8.418 -0.1801  0.7812 -0.5985
   93SAPS  C220 9157   5.181   0.470   8.447 -0.4580 -0.1287  0.1732
   93SAPS  H20R 9158   5.086   0.435   8.401 -0.3337  0.4983 -0.5936
   93SAPS  H20S 9159   5.188   0.580   8.427 -1.1509 -0.1787 -0.3605
   93SAPS  H20T 9160   5.179   0.443   8.555 -0.6235  0.1448  0.2407
   93SAPS   C33 9161   5.749   0.616   7.041  0.4103  0.3290 -0.3509
   93SAPS   H3X 9162   5.648   0.569   7.049 -1.1167  3.6269  1.8595
   93SAPS   H3Y 9163   5.750   0.693   7.121 -1.5842  0.2353 -0.1824
   93SAPS   C34 9164   5.851   0.506   7.061 -0.0260 -0.2390  0.1128
   93SAPS   H4X 9165   5.957   0.540   7.057 -0.3624  0.8503 -3.5435
   93SAPS   H4Y 9166   5.843   0.432   6.979  1.7775 -0.8279  0.4253
   93SAPS   C35 9167   5.826   0.426   7.188  0.6320 -0.0182 -0.2819
   93SAPS   H5X 9168   5.724   0.383   7.176 -0.0592  1.9245 -1.7461
   93SAPS   H5Y 9169   5.830   0.494   7.276 -0.0721  2.1916 -1.8693
   93SAPS   C36 9170   5.915   0.299   7.198 -0.0253 -0.0834  0.0474
   93SAPS   H6X 9171   6.023   0.323   7.200 -0.3642  1.8948 -1.6180
   93SAPS   H6Y 9172   5.894   0.241   7.106 -0.4824 -1.0993  0.7649
   93SAPS   C37 9173   5.861   0.205   7.308  0.5069  0.2105  0.1387
   93SAPS   H7X 9174   5.892   0.101   7.285 -0.8508 -0.3228  0.6251
   93SAPS   H7Y 9175   5.750   0.205   7.304  0.4232 -1.5733  1.4350
   93SAPS   C38 9176   5.923   0.234   7.446  0.7179  0.1714  0.1347
   93SAPS   H8X 9177   5.890   0.334   7.481 -1.8500 -0.3391 -0.5816
   93SAPS   H8Y 9178   6.033   0.248   7.449  0.8887 -1.1182  1.0343
   93SAPS   C39 9179   5.883   0.126   7.545  0.0043 -0.4956  0.0273
   93SAPS   H9X 9180   5.932   0.033   7.509  0.2829 -1.8924  3.6221
   93SAPS   H9Y 9181   5.773   0.115   7.556 -0.5259  1.6560 -2.2443
   93SAPS  C310 9182   5.953   0.146   7.683  0.3370  0.4317 -0.5429
   93SAPS  H10X 9183   5.943   0.249   7.721  0.8719 -0.6464  2.8906
   93SAPS  H10Y 9184   6.062   0.130   7.670  0.6547  2.4224 -0.5842
   93SAPS  C311 9185   5.902   0.037   7.790 -0.1228 -0.2391  0.2588
   93SAPS  H11X 9186   5.792   0.031   7.799 -0.1484 -0.4537 -0.1838
   93SAPS  H11Y 9187   5.946   0.075   7.885 -0.5960 -0.6726  0.6573
   93SAPS  C312 9188   5.964  -0.105   7.770  0.1447 -0.5723 -1.0194
   93SAPS  H12X 9189   6.074  -0.090   7.776  0.3642 -2.1282 -0.6100
   93SAPS  H12Y 9190   5.936  -0.154   7.675  1.6801 -1.0868 -1.2367
   93SAPS  C313 9191   5.918  -0.197   7.891  0.2123 -0.2214 -0.0901
   93SAPS  H13X 9192   5.959  -0.298   7.869  1.3053  0.6417 -2.3366
   93SAPS  H13Y 9193   5.807  -0.207   7.903  0.2319 -0.1557  0.1474
   93SAPS  C314 9194   5.986  -0.164   8.024 -0.2780  0.5287 -0.1128
   93SAPS  H14X 9195   5.954  -0.061   8.053 -0.3360  0.0753  1.4942
   93SAPS  H14Y 9196   6.096  -0.157   8.008 -0.1804  2.0661  0.9678
   93SAPS  C315 9197   5.968  -0.269   8.133  0.0913 -0.6090  0.1662
   93SAPS  H15X 9198   5.979  -0.368   8.084  3.7068 -0.1253 -0.3146
   93SAPS  H15Y 9199   5.870  -0.253   8.183 -0.8000 -0.6726 -1.4879
   93SAPS  C316 9200   6.069  -0.251   8.245  0.2067 -0.5669 -0.1252
   93SAPS  H16X 9201   6.168  -0.225   8.200  1.4625 -1.0756  2.1699
   93SAPS  H16Y 9202   6.084  -0.346   8.300 -0.3472  0.7412  2.4242
   93SAPS  C317 9203   6.046  -0.150   8.358  0.1005 -0.1475  0.8316
   93SAPS  H17X 9204   5.944  -0.167   8.397 -0.1447 -0.7509 -0.0375
   93SAPS  H17Y 9205   6.038  -0.048   8.317  0.9695 -0.3632  0.0731
   93SAPS  C318 9206   6.152  -0.162   8.464 -0.6937 -0.0167 -0.6003
   93SAPS  H18X 9207   6.127  -0.095   8.549 -1.9970 -0.4003 -0.6568
   93SAPS  H18Y 9208   6.253  -0.139   8.423 -0.2425  0.5096  0.7567
   93SAPS  H18Z 9209   6.160  -0.264   8.507  1.8063  0.1439 -0.5680
   94SAPS     N 9210   4.532   4.305   5.737 -0.0610  1.4136 -0.1166
   94SAPS   HN1 9211   4.571   4.209   5.746 -1.8998  0.8569  3.7116
   94SAPS   HN2 9212   4.444   4.297   5.791 -1.1272 -0.6725 -2.0143
   94SAPS   HN3 9213   4.509   4.311   5.635 -1.2901  1.5458  0.1605
   94SAPS   C12 9214   4.643   4.398   5.768  0.2129 -0.5002 -0.2972
   94SAPS  H12A 9215   4.737   4.343   5.764  2.1701  2.4591  1.3701
   94SAPS   C13 9216   4.655   4.511   5.662  0.1249  0.3802 -0.4285
   94SAPS  O13A 9217   4.581   4.504   5.557  0.6004 -0.4785  0.0274
   94SAPS  O13B 9218   4.739   4.604   5.677 -0.1094  0.3471 -0.3769
   94SAPS   C11 9219   4.615   4.459   5.906  0.0342  0.0967 -0.7396
   94SAPS  H11A 9220   4.529   4.529   5.895  0.0240  0.0392 -1.0388
   94SAPS  H11B 9221   4.706   4.516   5.933  1.3828 -1.5186 -1.6699
   94SAPS     P 9222   4.450   4.317   6.061  0.4243  0.5764 -0.2159
   94SAPS   O13 9223   4.376   4.268   5.943  0.1193  0.3777 -0.0508
   94SAPS   O14 9224   4.470   4.218   6.172  0.0503  0.1239 -0.0490
   94SAPS   O12 9225   4.592   4.369   6.016 -0.0658 -0.7353  0.3061
   94SAPS   O11 9226   4.386   4.452   6.111  0.4594  0.1699 -0.2308
   94SAPS    C1 9227   4.457   4.547   6.195 -0.6325  0.7988  0.1897
   94SAPS    HA 9228   4.537   4.593   6.134 -2.2102 -0.4576 -3.0606
   94SAPS    HB 9229   4.385   4.621   6.236  0.2180  1.3072  0.7918
   94SAPS    C2 9230   4.518   4.485   6.321 -0.5025 -0.2036 -0.0445
   94SAPS    HS 9231   4.602   4.422   6.284 -0.4484  0.2721 -0.7495
   94SAPS   O21 9232   4.423   4.400   6.383 -0.2057 -0.4034 -0.0454
   94SAPS   C21 9233   4.466   4.298   6.459  0.0723 -0.5380  0.2177
   94SAPS   O22 9234   4.583   4.269   6.479  0.0732  0.2582  0.3002
   94SAPS   C22 9235   4.352   4.232   6.540  0.3687 -0.4925 -0.7381
   94SAPS   H2R 9236   4.278   4.191   6.468 -1.5128 -0.1211  0.8846
   94SAPS   H2S 9237   4.395   4.145   6.594 -0.2672 -0.5819 -0.3622
   94SAPS    C3 9238   4.582   4.594   6.419  0.2006  0.6081  0.8428
   94SAPS    HX 9239   4.498   4.658   6.452 -0.8226  0.7833 -1.7790
   94SAPS    HY 9240   4.641   4.673   6.367 -2.0538  1.1684 -1.0414
   94SAPS   O31 9241   4.641   4.526   6.526  0.2602  0.1910 -0.6220
   94SAPS   C31 9242   4.770   4.499   6.526  0.4715  0.0786 -0.2516
   94SAPS   O32 9243   4.840   4.524   6.431  0.5557  0.2727  0.2876
   94SAPS   C32 9244   4.812   4.444   6.664  1.1177 -0.2558 -0.2374
   94SAPS   H2X 9245   4.722   4.428   6.727  1.1068  1.1288  0.1297
   94SAPS   H2Y 9246   4.867   4.526   6.714  0.6628  0.2172 -0.5080
   94SAPS   C23 9247   4.291   4.330   6.646  0.0609 -0.0572  0.0039
   94SAPS   H3R 9248   4.207   4.269   6.686  0.4446  0.0691  1.0315
   94SAPS   H3S 9249   4.246   4.418   6.597  1.0125 -0.1782 -1.1044
   94SAPS   C24 9250   4.378   4.376   6.771  0.5867  0.1900 -0.2742
   94SAPS   H4R 9251   4.315   4.418   6.852 -0.6342  1.5524 -1.8428
   94SAPS   H4S 9252   4.442   4.458   6.733 -0.6455  0.9983 -0.6771
   94SAPS   C25 9253   4.473   4.276   6.831  0.2998  0.8986 -0.1423
   94SAPS   H5R 9254   4.530   4.218   6.757 -2.7230 -0.0228 -1.9520
   94SAPS   C26 9255   4.498   4.264   6.965 -0.1948 -0.2205  0.3435
   94SAPS   H6R 9256   4.573   4.188   6.992  1.0563  0.1583 -1.8118
   94SAPS   C27 9257   4.448   4.359   7.073  0.5595  0.6499 -0.3292
   94SAPS   H7R 9258   4.370   4.312   7.136  2.0051 -0.7861  0.4757
   94SAPS   H7S 9259   4.408   4.442   7.012 -1.9674 -1.3211 -1.5101
   94SAPS   C28 9260   4.551   4.430   7.159  0.2659  0.4731  0.6447
   94SAPS   H8R 9261   4.597   4.518   7.112 -1.3146  2.0449  1.9104
   94SAPS   C29 9262   4.585   4.395   7.283 -0.0814  0.0407  0.3191
   94SAPS   H9R 9263   4.656   4.459   7.338 -0.9818  1.4076 -0.0551
   94SAPS  C210 9264   4.536   4.274   7.366 -0.3023  0.2698 -0.5095
   94SAPS  H10R 9265   4.630   4.223   7.395 -1.4650 -0.7466  1.8161
   94SAPS  H10S 9266   4.481   4.195   7.311 -0.9657  0.4304 -0.0920
   94SAPS  C211 9267   4.464   4.311   7.499  0.7254 -0.0930  0.6101
   94SAPS  H11R 9268   4.356   4.324   7.489  0.8541  1.7390  1.2836
   94SAPS  C212 9269   4.520   4.328   7.619  0.6126 -0.4484 -0.3529
   94SAPS  H12R 9270   4.454   4.349   7.704 -0.1139 -1.0721 -0.7605
   94SAPS  C213 9271   4.668   4.336   7.651 -0.4117  0.3957 -0.1166
   94SAPS  H13R 9272   4.722   4.375   7.562 -0.5529  1.2699  0.1695
   94SAPS  H13S 9273   4.706   4.233   7.669 -1.5544 -0.0032  0.0875
   94SAPS  C214 9274   4.712   4.436   7.749  0.8215 -0.5532 -0.6940
   94SAPS  H14R 9275   4.737   4.539   7.720  1.5056 -0.8596 -1.2250
   94SAPS  C215 9276   4.726   4.412   7.882 -0.1186 -0.2841  0.3723
   94SAPS  H15R 9277   4.773   4.493   7.940 -0.0462  0.8956 -1.2584
   94SAPS  C216 9278   4.698   4.282   7.947 -0.3325 -0.0885  0.1737
   94SAPS  H16R 9279   4.772   4.281   8.030  0.9526  2.8731 -0.8118
   94SAPS  H16S 9280   4.704   4.190   7.885 -1.0568  1.1921 -1.8681
   94SAPS  C217 9281   4.564   4.285   8.025 -0.3870  0.6166 -0.5281
   94SAPS  H17R 9282   4.558   4.182   8.067 -1.1555  1.1556  0.7242
   94SAPS  H17S 9283   4.480   4.301   7.954 -1.2905 -3.0994 -0.5082
   94SAPS  C218 9284   4.567   4.389   8.134  0.0048 -0.0069  0.1474
   94SAPS  H18R 9285   4.569   4.488   8.085  0.5389  0.0827  0.3402
   94SAPS  H18S 9286   4.669   4.377   8.177 -0.4140  0.0280  1.1722
   94SAPS  C219 9287   4.472   4.383   8.252  0.2732 -0.2144 -0.3225
   94SAPS  H19R 9288   4.495   4.469   8.319  3.5092 -1.6638  0.6288
   94SAPS  H19S 9289   4.478   4.290   8.312 -2.5292  0.2751  0.8565
   94SAPS  C220 9290   4.327   4.390   8.198 -0.1066  0.1749 -0.4063
   94SAPS  H20R 9291   4.291   4.292   8.160 -1.5315  0.2393  0.6986
   94SAPS  H20S 9292   4.326   4.463   8.114 -0.9000 -0.4697 -0.9719
   94SAPS  H20T 9293   4.252   4.425   8.272 -0.9551 -2.4363  0.0753
   94SAPS   C33 9294   4.907   4.317   6.661  0.4424 -0.8488  0.0910
   94SAPS   H3X 9295   5.003   4.355   6.618  0.7461  0.8827  2.1391
   94SAPS   H3Y 9296   4.876   4.238   6.589 -0.3672  0.2151 -0.7777
   94SAPS   C34 9297   4.929   4.255   6.799  0.4271 -0.1637 -0.2877
   94SAPS   H4X 9298   4.990   4.163   6.797  0.5766 -0.0731  0.0622
   94SAPS   H4Y 9299   4.829   4.231   6.842 -0.0725 -1.0181 -1.8469
   94SAPS   C35 9300   4.990   4.326   6.928  0.3546 -0.4757  0.2456
   94SAPS   H5X 9301   4.926   4.414   6.953 -0.5673 -0.5807 -1.5953
   94SAPS   H5Y 9302   5.094   4.364   6.923 -0.2752  1.3340  0.1602
   94SAPS   C36 9303   4.976   4.228   7.043  0.8511  0.0154  0.2219
   94SAPS   H6X 9304   5.036   4.137   7.025  1.7048  0.4786  0.6913
   94SAPS   H6Y 9305   4.870   4.194   7.041  1.2973 -1.4918  0.8853
   94SAPS   C37 9306   5.013   4.296   7.172  0.9858 -0.0041 -0.4009
   94SAPS   H7X 9307   4.936   4.373   7.192  0.8600 -0.2708  0.1664
   94SAPS   H7Y 9308   5.115   4.338   7.170  1.3583 -0.8992 -1.6614
   94SAPS   C38 9309   5.010   4.201   7.289 -0.3857 -0.1630 -0.3119
   94SAPS   H8X 9310   5.089   4.126   7.309 -0.9064 -0.7965 -0.5745
   94SAPS   H8Y 9311   4.915   4.144   7.301 -0.9281  0.6088 -0.7927
   94SAPS   C39 9312   5.020   4.280   7.417  0.1009  0.1593  0.5169
   94SAPS   H9X 9313   4.954   4.369   7.422 -1.7255 -1.0779 -0.2297
   94SAPS   H9Y 9314   5.121   4.325   7.410  0.0842  0.0310 -0.9968
   94SAPS  C310 9315   5.009   4.204   7.540 -0.1961 -0.3065  0.0139
   94SAPS  H10X 9316   5.079   4.118   7.530  0.8941  0.5248  0.1887
   94SAPS  H10Y 9317   4.902   4.175   7.541 -1.1661  2.7583 -1.6918
   94SAPS  C311 9318   5.054   4.295   7.658  0.5719  0.9202 -0.4245
   94SAPS  H11X 9319   4.989   4.385   7.672 -3.1038 -1.7350  1.1388
   94SAPS  H11Y 9320   5.160   4.327   7.648  0.0896  3.2485  0.8903
   94SAPS  C312 9321   5.017   4.212   7.782  0.3555 -0.0649 -0.7333
   94SAPS  H12X 9322   5.080   4.121   7.792 -1.5269 -1.2429  1.2608
   94SAPS  H12Y 9323   4.916   4.166   7.776 -0.4781  0.8030  3.3221
   94SAPS  C313 9324   5.058   4.283   7.918  0.2655  0.0734  0.3784
   94SAPS  H13X 9325   4.975   4.356   7.925  0.1166 -0.0518 -0.0305
   94SAPS  H13Y 9326   5.151   4.344   7.921 -0.6355  1.4506  1.3455
   94SAPS  C314 9327   5.058   4.191   8.043  0.2189  0.0847 -0.4718
   94SAPS  H14X 9328   5.152   4.131   8.041 -0.5166 -1.0961 -0.3035
   94SAPS  H14Y 9329   4.980   4.113   8.046  2.2405 -2.0453 -0.6505
   94SAPS  C315 9330   5.067   4.274   8.175 -0.2621  0.4615  0.5415
   94SAPS  H15X 9331   4.975   4.337   8.180 -1.8427 -1.5468 -1.2785
   94SAPS  H15Y 9332   5.153   4.342   8.156 -0.2277  0.6352  1.2800
   94SAPS  C316 9333   5.091   4.190   8.300  0.5933  0.1804  0.1786
   94SAPS  H16X 9334   5.190   4.141   8.286 -0.2299 -0.9923 -1.8857
   94SAPS  H16Y 9335   5.012   4.111   8.302  0.5590  0.2190  0.3644
   94SAPS  C317 9336   5.073   4.273   8.423  0.0832 -0.0648 -0.4746
   94SAPS  H17X 9337   4.974   4.325   8.423  0.4403  0.6931  1.3975
   94SAPS  H17Y 9338   5.144   4.358   8.422 -0.0071  0.0988  2.2145
   94SAPS  C318 9339   5.085   4.187   8.549  0.3254 -0.1117 -0.4421
   94SAPS  H18X 9340   5.174   4.120   8.541  1.3445  0.8268  1.9184
   94SAPS  H18Y 9341   4.995   4.125   8.568 -0.2183  0.7630 -0.1318
   94SAPS  H18Z 9342   5.093   4.249   8.641  0.2954  0.1349 -0.6045
   95SAPS     N 9343   2.753   5.973   5.817  0.3010  0.3126  0.2439
   95SAPS   HN1 9344   2.768   6.011   5.721 -0.5325  1.2644  0.4760
   95SAPS   HN2 9345   2.659   5.932   5.836 -0.1918  0.2660 -2.0393
   95SAPS   HN3 9346   2.771   6.049   5.886  2.8086 -1.7409  2.0529
   95SAPS   C12 9347   2.858   5.869   5.844  0.3815 -0.0996  0.2697
   95SAPS  H12A 9348   2.840   5.781   5.783 -1.0880  0.1216  0.3542
   95SAPS   C13 9349   2.999   5.926   5.813 -0.6700 -0.5533 -0.0436
   95SAPS  O13A 9350   3.009   6.047   5.786 -0.9183  0.1783 -0.4880
   95SAPS  O13B 9351   3.098   5.853   5.850  0.2375  0.2800  0.3137
   95SAPS   C11 9352   2.851   5.806   5.989 -0.5788 -0.6133 -0.0129
   95SAPS  H11A 9353   2.841   5.895   6.055 -0.0402 -2.4962  2.8253
   95SAPS  H11B 9354   2.952   5.768   6.015 -0.1762 -0.5534 -1.4177
   95SAPS     P 9355   2.767   5.564   6.027  0.6832 -0.6152  0.0333
   95SAPS   O13 9356   2.640   5.495   6.042 -0.7456  0.5199 -0.4074
   95SAPS   O14 9357   2.848   5.518   5.911 -0.2767 -0.0294  0.8468
   95SAPS   O12 9358   2.735   5.724   6.010  0.5002  0.4645 -0.2046
   95SAPS   O11 9359   2.838   5.548   6.167 -0.0172 -0.1432  0.1385
   95SAPS    C1 9360   2.795   5.631   6.281 -0.6089 -0.1340  0.5263
   95SAPS    HA 9361   2.829   5.729   6.241 -0.2070 -0.5203 -0.0912
   95SAPS    HB 9362   2.684   5.628   6.286 -0.7303  0.6640 -1.0456
   95SAPS    C2 9363   2.834   5.596   6.426 -0.1679 -0.2020 -0.3051
   95SAPS    HS 9364   2.944   5.611   6.437  0.1612 -2.6217  0.4280
   95SAPS   O21 9365   2.801   5.460   6.457  0.5797 -0.3674 -0.3942
   95SAPS   C21 9366   2.883   5.406   6.539  0.9375 -0.2294 -0.1574
   95SAPS   O22 9367   2.974   5.457   6.597  0.3560 -0.0298  0.2929
   95SAPS   C22 9368   2.851   5.262   6.555 -0.0364  0.5869 -0.4037
   95SAPS   H2R 9369   2.744   5.233   6.559  0.4690 -1.8684 -2.2649
   95SAPS   H2S 9370   2.886   5.213   6.462  1.2330 -0.6111  0.6523
   95SAPS    C3 9371   2.759   5.686   6.529  0.2119  0.2621  0.2348
   95SAPS    HX 9372   2.651   5.697   6.505  0.1152  2.4616  1.4565
   95SAPS    HY 9373   2.811   5.784   6.520 -1.5480  1.1004 -1.5392
   95SAPS   O31 9374   2.778   5.631   6.663  0.3243  0.5062  1.2256
   95SAPS   C31 9375   2.769   5.718   6.760  0.2687  0.3208 -0.5057
   95SAPS   O32 9376   2.737   5.839   6.755 -0.0831  0.0926 -0.0525
   95SAPS   C32 9377   2.802   5.647   6.890 -0.1412 -0.7228  0.2893
   95SAPS   H2X 9378   2.868   5.565   6.855  0.5385  0.2901 -0.8797
   95SAPS   H2Y 9379   2.704   5.614   6.931 -1.5967  1.1435 -1.4540
   95SAPS   C23 9380   2.921   5.197   6.682 -0.3737  0.8584  0.4082
   95SAPS   H3R 9381   2.905   5.247   6.780 -0.5874  1.7318 -0.0607
   95SAPS   H3S 9382   3.030   5.212   6.667  0.0422 -2.9160 -1.6030
   95SAPS   C24 9383   2.898   5.049   6.689  0.3035 -0.3022  0.1489
   95SAPS   H4R 9384   2.793   5.024   6.715  0.0373  0.3954 -0.2219
   95SAPS   H4S 9385   2.952   5.016   6.781 -2.8131  1.7095  2.9178
   95SAPS   C25 9386   2.945   4.960   6.582  0.0119  0.1727  0.1805
   95SAPS   H5R 9387   2.900   4.985   6.484  0.6811 -2.9187 -1.0278
   95SAPS   C26 9388   3.024   4.850   6.591 -0.1977 -0.1902  0.4866
   95SAPS   H6R 9389   3.061   4.804   6.498 -0.1509  1.3059 -0.2768
   95SAPS   C27 9390   3.074   4.788   6.721  1.1798 -0.1489  0.2213
   95SAPS   H7R 9391   2.986   4.792   6.789  0.8715 -0.8563 -0.1264
   95SAPS   H7S 9392   3.153   4.845   6.775  0.4402  1.4931 -0.3497
   95SAPS   C28 9393   3.108   4.643   6.693 -0.7119 -0.6174 -0.1026
   95SAPS   H8R 9394   3.119   4.612   6.588  1.3094  1.1060 -0.4603
   95SAPS   C29 9395   3.115   4.555   6.790 -0.3452  0.1814  0.0207
   95SAPS   H9R 9396   3.136   4.453   6.752 -0.5932  0.6549 -1.4694
   95SAPS  C210 9397   3.083   4.577   6.935 -0.0700  0.1630 -1.1672
   95SAPS  H10R 9398   3.149   4.659   6.973  1.3267 -1.0598 -0.8853
   95SAPS  H10S 9399   3.109   4.484   6.989  1.5599  0.9253 -0.5421
   95SAPS  C211 9400   2.937   4.590   6.953 -0.2357  0.2509  0.1889
   95SAPS  H11R 9401   2.874   4.630   6.872 -1.9990 -1.7694  0.4529
   95SAPS  C212 9402   2.867   4.556   7.063 -0.0553  0.0597  0.0451
   95SAPS  H12R 9403   2.758   4.566   7.065 -0.1126 -0.2232 -1.1326
   95SAPS  C213 9404   2.933   4.501   7.186 -0.4534 -0.0146 -0.1562
   95SAPS  H13R 9405   3.043   4.495   7.188 -0.4697 -0.7380 -0.8801
   95SAPS  H13S 9406   2.901   4.395   7.194 -0.0166 -0.0114  2.9618
   95SAPS  C214 9407   2.875   4.569   7.313 -0.4995  0.1259  0.7746
   95SAPS  H14R 9408   2.821   4.661   7.287 -0.0383  0.7706  2.0548
   95SAPS  C215 9409   2.905   4.536   7.440 -0.0065 -0.0400  0.4414
   95SAPS  H15R 9410   2.858   4.584   7.528  0.2398 -1.6042  1.4731
   95SAPS  C216 9411   2.984   4.420   7.489 -0.5399 -0.4812 -0.1537
   95SAPS  H16R 9412   3.091   4.450   7.480 -0.0973 -1.4954  1.3827
   95SAPS  H16S 9413   2.977   4.336   7.416  1.2476 -0.2058 -0.7031
   95SAPS  C217 9414   2.952   4.381   7.631  0.1094 -0.0669 -0.0567
   95SAPS  H17R 9415   3.013   4.289   7.646 -1.8276 -1.7912 -2.0948
   95SAPS  H17S 9416   2.845   4.358   7.649 -0.2702  1.2263 -0.5274
   95SAPS  C218 9417   3.007   4.464   7.745 -0.5397 -0.0723  1.2396
   95SAPS  H18R 9418   2.943   4.554   7.754  0.2811  1.0768 -2.7313
   95SAPS  H18S 9419   3.104   4.493   7.699 -1.6673 -0.6824 -1.7564
   95SAPS  C219 9420   3.032   4.382   7.874 -0.8704 -0.0107 -0.1461
   95SAPS  H19R 9421   3.092   4.422   7.958 -1.8976 -2.3372  1.8480
   95SAPS  H19S 9422   3.093   4.293   7.847 -0.4288  0.1207  0.4134
   95SAPS  C220 9423   2.900   4.328   7.921 -0.4320  0.1244  0.4354
   95SAPS  H20R 9424   2.832   4.411   7.947 -0.7512  0.4754 -1.4228
   95SAPS  H20S 9425   2.917   4.273   8.016  2.2077 -0.2488 -0.1711
   95SAPS  H20T 9426   2.854   4.256   7.850  3.5675 -2.6110  0.2063
   95SAPS   C33 9427   2.878   5.730   6.998 -0.4471  0.6460 -0.1634
   95SAPS   H3X 9428   2.834   5.831   7.011  0.0840  0.8209  0.3004
   95SAPS   H3Y 9429   2.987   5.729   6.978 -0.0355  1.4284  1.8460
   95SAPS   C34 9430   2.871   5.664   7.131 -0.2133  0.0610 -0.0140
   95SAPS   H4X 9431   2.933   5.723   7.201 -1.3136  1.7328 -0.3890
   95SAPS   H4Y 9432   2.947   5.583   7.124  2.0767  1.9992  0.8966
   95SAPS   C35 9433   2.732   5.635   7.188 -0.2951  0.4000 -0.0935
   95SAPS   H5X 9434   2.672   5.562   7.130 -1.6180 -0.4338  2.1791
   95SAPS   H5Y 9435   2.692   5.738   7.179  1.2729  0.9184 -1.9001
   95SAPS   C36 9436   2.742   5.599   7.336 -0.1063  0.4609 -0.6928
   95SAPS   H6X 9437   2.836   5.642   7.378 -1.6027  2.9318  0.3632
   95SAPS   H6Y 9438   2.751   5.488   7.333  1.6446  0.4930  1.0341
   95SAPS   C37 9439   2.622   5.661   7.423  0.0138  0.1855  0.3566
   95SAPS   H7X 9440   2.528   5.616   7.382  1.2345 -0.8720 -1.4562
   95SAPS   H7Y 9441   2.613   5.771   7.423  2.2479  0.4232  2.3269
   95SAPS   C38 9442   2.612   5.620   7.568  0.5978  0.0361 -0.0166
   95SAPS   H8X 9443   2.712   5.641   7.613  0.6193  0.2008 -0.1429
   95SAPS   H8Y 9444   2.578   5.515   7.577 -1.4418  0.6109 -0.6573
   95SAPS   C39 9445   2.505   5.696   7.646 -0.3158 -0.3008  0.0256
   95SAPS   H9X 9446   2.409   5.663   7.600 -0.2486  0.5126 -0.7314
   95SAPS   H9Y 9447   2.500   5.804   7.620  1.9310 -0.3497 -0.8426
   95SAPS  C310 9448   2.499   5.675   7.801  0.3093  0.5047 -0.1495
   95SAPS  H10X 9449   2.435   5.757   7.841 -0.2829 -1.5014  3.4095
   95SAPS  H10Y 9450   2.595   5.687   7.855  0.2303 -1.0149  0.3607
   95SAPS  C311 9451   2.432   5.540   7.839 -0.0453  0.2593 -0.7234
   95SAPS  H11X 9452   2.496   5.454   7.811  1.5748  1.1145  0.2158
   95SAPS  H11Y 9453   2.344   5.534   7.771  0.3561  1.3706 -1.3515
   95SAPS  C312 9454   2.386   5.535   7.987  1.0351 -0.0283  0.4989
   95SAPS  H12X 9455   2.334   5.438   8.001  3.1653 -1.2285  0.5064
   95SAPS  H12Y 9456   2.313   5.616   8.009  0.6529 -0.3604  0.4764
   95SAPS  C313 9457   2.502   5.533   8.088 -0.0244  0.3472 -0.0686
   95SAPS  H13X 9458   2.534   5.637   8.069 -2.5892  0.6712 -3.8663
   95SAPS  H13Y 9459   2.576   5.464   8.042  0.0028  1.2724 -1.4698
   95SAPS  C314 9460   2.457   5.506   8.233  0.8352  0.0390  0.3677
   95SAPS  H14X 9461   2.390   5.417   8.232  0.0527  0.6134  0.0494
   95SAPS  H14Y 9462   2.396   5.594   8.263 -2.2041 -2.1166  1.0937
   95SAPS  C315 9463   2.580   5.494   8.333 -0.4166  0.5117 -0.5814
   95SAPS  H15X 9464   2.639   5.588   8.325  0.1728  0.3594  1.5457
   95SAPS  H15Y 9465   2.639   5.405   8.302 -1.3512 -0.4029  0.1964
   95SAPS  C316 9466   2.535   5.468   8.471  0.6995  0.1445  0.1076
   95SAPS  H16X 9467   2.616   5.469   8.547 -0.4150  2.5947  1.3860
   95SAPS  H16Y 9468   2.499   5.363   8.467  0.8778  0.1027 -0.4068
   95SAPS  C317 9469   2.425   5.568   8.516 -0.1315  0.3120 -0.1982
   95SAPS  H17X 9470   2.398   5.541   8.620  2.7129  0.6598  0.7189
   95SAPS  H17Y 9471   2.337   5.567   8.448  0.5065 -0.4397 -1.0379
   95SAPS  C318 9472   2.477   5.714   8.522  0.2763 -0.1783  0.1532
   95SAPS  H18X 9473   2.403   5.781   8.572  2.2121  1.7717  0.5426
   95SAPS  H18Y 9474   2.483   5.765   8.424 -0.3219 -0.9249 -0.2808
   95SAPS  H18Z 9475   2.576   5.735   8.569  0.8893  0.6307 -1.4470
   96SAPS     N 9476   6.328   2.733   5.970 -0.2359  0.3347  0.8590
   96SAPS   HN1 9477   6.381   2.758   6.057 -1.6628  0.2852  1.7747
   96SAPS   HN2 9478   6.287   2.817   5.926 -0.2524  0.8883  1.8977
   96SAPS   HN3 9479   6.252   2.673   6.008  0.2171 -1.3042 -0.6909
   96SAPS   C12 9480   6.421   2.661   5.874  0.5405 -0.7878 -0.5584
   96SAPS  H12A 9481   6.373   2.584   5.816 -0.5391  0.2740 -1.1142
   96SAPS   C13 9482   6.476   2.759   5.772  0.6099 -0.5487 -0.4280
   96SAPS  O13A 9483   6.453   2.886   5.768 -0.1215 -0.1038  0.3810
   96SAPS  O13B 9484   6.537   2.708   5.679 -0.1079 -0.4905 -0.0078
   96SAPS   C11 9485   6.531   2.596   5.960  0.0036  0.3441  0.2271
   96SAPS  H11A 9486   6.600   2.668   6.009 -0.1555  1.4652 -1.1374
   96SAPS  H11B 9487   6.589   2.540   5.883 -2.3545 -1.8363 -0.1068
   96SAPS     P 9488   6.571   2.400   6.122 -0.1714 -0.8930  0.0257
   96SAPS   O13 9489   6.491   2.308   6.206  0.3634 -0.7341 -0.0083
   96SAPS   O14 9490   6.649   2.340   6.013 -0.4351  0.5220 -0.7077
   96SAPS   O12 9491   6.475   2.505   6.058  0.3045  0.3454  0.0737
   96SAPS   O11 9492   6.677   2.488   6.206  1.0257 -0.2874  0.2913
   96SAPS    C1 9493   6.627   2.575   6.304  0.1504 -0.0166  0.0140
   96SAPS    HA 9494   6.574   2.664   6.262 -0.9013 -0.9359 -0.6753
   96SAPS    HB 9495   6.556   2.522   6.372  3.0068 -1.5031  2.0467
   96SAPS    C2 9496   6.745   2.614   6.394 -0.1235 -0.1627  0.4495
   96SAPS    HS 9497   6.814   2.659   6.319 -0.6937 -0.8801 -0.5240
   96SAPS   O21 9498   6.815   2.497   6.445  0.6333 -0.2838 -0.5026
   96SAPS   C21 9499   6.919   2.516   6.516 -0.4281 -0.2528 -0.4265
   96SAPS   O22 9500   6.997   2.611   6.516  0.8980 -0.5957 -0.4030
   96SAPS   C22 9501   6.930   2.401   6.609  0.2492  0.1217  0.8461
   96SAPS   H2R 9502   6.829   2.371   6.644  0.1354  2.5881  2.8688
   96SAPS   H2S 9503   6.964   2.314   6.549  0.8335 -0.1472  1.5536
   96SAPS    C3 9504   6.706   2.706   6.502 -0.1308 -0.6409 -0.2522
   96SAPS    HX 9505   6.662   2.795   6.452  0.2479 -1.0798 -1.4090
   96SAPS    HY 9506   6.798   2.739   6.555  0.1875  0.6733 -1.5527
   96SAPS   O31 9507   6.604   2.644   6.584 -0.2299 -0.2616  0.2369
   96SAPS   C31 9508   6.637   2.623   6.706 -0.2226 -0.7004 -0.2425
   96SAPS   O32 9509   6.740   2.661   6.765  0.6292  0.6341  0.0675
   96SAPS   C32 9510   6.523   2.553   6.765  0.4344 -0.0660 -0.2606
   96SAPS   H2X 9511   6.500   2.465   6.701  0.7847  0.9319 -1.8250
   96SAPS   H2Y 9512   6.437   2.623   6.759 -1.0290 -1.8260 -0.7682
   96SAPS   C23 9513   7.029   2.413   6.721  0.0325 -0.2876  0.0273
   96SAPS   H3R 9514   7.004   2.343   6.803 -0.2736 -0.4471 -0.2033
   96SAPS   H3S 9515   7.019   2.513   6.767  1.4148 -0.4977  0.8667
   96SAPS   C24 9516   7.167   2.371   6.672 -0.4737 -0.6332  0.7311
   96SAPS   H4R 9517   7.201   2.454   6.606  1.8073  0.0420  2.6131
   96SAPS   H4S 9518   7.172   2.278   6.611  1.6307  0.6247 -1.1977
   96SAPS   C25 9519   7.253   2.353   6.791 -0.3947 -0.2565  0.8957
   96SAPS   H5R 9520   7.270   2.245   6.803 -1.1188 -0.3332  1.2768
   96SAPS   C26 9521   7.307   2.439   6.880 -0.3111  0.5103 -0.6103
   96SAPS   H6R 9522   7.366   2.388   6.958 -1.2404 -1.1381 -0.9354
   96SAPS   C27 9523   7.282   2.587   6.877 -0.1098 -0.1286 -0.2970
   96SAPS   H7R 9524   7.254   2.624   6.776 -1.7390  1.9589  0.8459
   96SAPS   H7S 9525   7.371   2.650   6.896 -0.2605 -0.8273  3.3892
   96SAPS   C28 9526   7.180   2.629   6.978  0.0493 -0.6619  0.4963
   96SAPS   H8R 9527   7.083   2.663   6.939  1.6800  2.0059 -1.6282
   96SAPS   C29 9528   7.198   2.638   7.115 -0.3657 -0.3521 -0.0143
   96SAPS   H9R 9529   7.115   2.673   7.178  0.3329 -0.3805  0.9357
   96SAPS  C210 9530   7.324   2.608   7.196 -0.0173  1.7805 -1.1594
   96SAPS  H10R 9531   7.340   2.683   7.276  0.1137  1.3700 -0.7965
   96SAPS  H10S 9532   7.414   2.620   7.132  0.0554  0.6769 -1.2807
   96SAPS  C211 9533   7.297   2.462   7.257 -1.1174 -0.0143  0.2901
   96SAPS  H11R 9534   7.259   2.384   7.188  1.7174 -1.9326  0.7580
   96SAPS  C212 9535   7.312   2.431   7.380 -0.1205  0.0243  0.0082
   96SAPS  H12R 9536   7.273   2.331   7.402  1.5363 -0.8059 -0.6646
   96SAPS  C213 9537   7.352   2.518   7.504  0.0469  0.4219 -0.1786
   96SAPS  H13R 9538   7.450   2.563   7.478  0.9074 -1.1521  0.1989
   96SAPS  H13S 9539   7.379   2.455   7.592 -1.8282  1.8410  1.5259
   96SAPS  C214 9540   7.245   2.610   7.555  0.2686  0.5393  0.7182
   96SAPS  H14R 9541   7.149   2.563   7.583  0.4739  1.1177  2.5025
   96SAPS  C215 9542   7.252   2.741   7.562 -1.4567 -0.2532  0.1587
   96SAPS  H15R 9543   7.171   2.805   7.600 -0.3099  1.1205  0.3727
   96SAPS  C216 9544   7.379   2.821   7.542  0.3335  0.8860 -0.0799
   96SAPS  H16R 9545   7.361   2.895   7.460 -2.1823  2.0057  1.3840
   96SAPS  H16S 9546   7.471   2.762   7.521 -0.2130 -0.2945  0.7416
   96SAPS  C217 9547   7.408   2.895   7.672 -0.5332 -0.2980 -0.0550
   96SAPS  H17R 9548   7.397   2.823   7.756 -0.5716 -2.1728 -1.6033
   96SAPS  H17S 9549   7.328   2.968   7.697 -0.9039 -1.2693  1.7226
   96SAPS  C218 9550   7.538   2.976   7.683 -0.7365  0.8036 -0.0767
   96SAPS  H18R 9551   7.513   3.078   7.647 -0.8208  1.1957  1.0525
   96SAPS  H18S 9552   7.622   2.944   7.617 -0.5556 -1.2283  1.0653
   96SAPS  C219 9553   7.597   2.962   7.815 -0.2756  0.3807  0.2779
   96SAPS  H19R 9554   7.583   2.854   7.840  2.0827 -0.1080 -0.2372
   96SAPS  H19S 9555   7.527   3.007   7.889  0.9198  1.6095  0.6978
   96SAPS  C220 9556   7.741   3.021   7.840 -0.5263  0.8270  0.4534
   96SAPS  H20R 9557   7.760   3.129   7.826  1.2754  0.3358 -1.6131
   96SAPS  H20S 9558   7.805   2.973   7.763  0.5416  1.2686  1.0522
   96SAPS  H20T 9559   7.772   3.000   7.944  0.5792  3.3054  0.7043
   96SAPS   C33 9560   6.537   2.507   6.913 -0.5748  0.1375 -0.3981
   96SAPS   H3X 9561   6.572   2.591   6.977 -0.1833 -1.7128  1.9433
   96SAPS   H3Y 9562   6.622   2.435   6.917 -0.3919  0.2330 -1.9322
   96SAPS   C34 9563   6.407   2.454   6.962  0.2601 -0.0714  0.3614
   96SAPS   H4X 9564   6.362   2.392   6.881  1.5077 -0.6562  0.0951
   96SAPS   H4Y 9565   6.333   2.537   6.973  0.7132  0.2951  0.6838
   96SAPS   C35 9566   6.417   2.375   7.090  0.5952 -0.3968 -0.2627
   96SAPS   H5X 9567   6.435   2.450   7.169 -1.1219  0.3579 -0.5426
   96SAPS   H5Y 9568   6.497   2.299   7.103 -0.0782 -0.7665  2.1011
   96SAPS   C36 9569   6.279   2.307   7.126 -0.6986  0.1120  0.4527
   96SAPS   H6X 9570   6.266   2.222   7.057  2.7054  0.4748 -0.8258
   96SAPS   H6Y 9571   6.198   2.382   7.123 -2.2473 -1.5108  0.3026
   96SAPS   C37 9572   6.275   2.264   7.269  0.8265  0.8334 -0.3088
   96SAPS   H7X 9573   6.174   2.236   7.307  1.3592  0.9346  1.2257
   96SAPS   H7Y 9574   6.311   2.342   7.339  2.2196 -1.1993  1.3523
   96SAPS   C38 9575   6.366   2.140   7.293 -0.3522 -0.0709 -0.0973
   96SAPS   H8X 9576   6.474   2.157   7.271 -0.7302  0.0459 -2.0333
   96SAPS   H8Y 9577   6.313   2.069   7.226 -2.6031  1.4204  0.0244
   96SAPS   C39 9578   6.355   2.095   7.438  0.3553  0.6532 -0.2349
   96SAPS   H9X 9579   6.270   2.028   7.459  1.6903 -0.8730  0.5071
   96SAPS   H9Y 9580   6.341   2.182   7.507  0.1029  1.9947 -1.9116
   96SAPS  C310 9581   6.480   2.016   7.486 -0.1611  0.3153  0.7349
   96SAPS  H10X 9582   6.561   2.092   7.491  0.3367 -0.2501  1.5731
   96SAPS  H10Y 9583   6.502   1.938   7.410 -0.5593 -0.8625  1.7963
   96SAPS  C311 9584   6.464   1.949   7.622  0.0565 -0.1329  0.7511
   96SAPS  H11X 9585   6.542   1.870   7.635  0.3398 -0.2801 -1.3848
   96SAPS  H11Y 9586   6.367   1.896   7.630  0.9519 -2.0740 -0.3570
   96SAPS  C312 9587   6.478   2.049   7.736 -0.0108  0.0052 -0.2582
   96SAPS  H12X 9588   6.394   2.121   7.723  0.6392  0.9057  0.4209
   96SAPS  H12Y 9589   6.573   2.106   7.726  0.6882 -0.8497  1.2522
   96SAPS  C313 9590   6.467   1.970   7.867 -0.2261  0.0243  0.3086
   96SAPS  H13X 9591   6.554   1.901   7.874 -1.7379 -2.0163  0.0316
   96SAPS  H13Y 9592   6.373   1.911   7.867 -0.7363  0.8228  1.1654
   96SAPS  C314 9593   6.467   2.064   7.989  0.1476  1.0078 -0.5285
   96SAPS  H14X 9594   6.375   2.126   7.999  1.6530  3.4992 -1.1499
   96SAPS  H14Y 9595   6.544   2.144   7.985 -0.7077  1.8520 -0.5064
   96SAPS  C315 9596   6.482   1.987   8.118  0.0007  1.1289  0.4908
   96SAPS  H15X 9597   6.519   2.054   8.199  0.4628  0.0597  1.1753
   96SAPS  H15Y 9598   6.565   1.919   8.091 -0.2306  1.5217 -1.3418
   96SAPS  C316 9599   6.356   1.914   8.163  0.4808  0.8516 -0.1272
   96SAPS  H16X 9600   6.285   1.872   8.089  2.6578  1.9560 -3.0132
   96SAPS  H16Y 9601   6.299   1.989   8.222  0.8826  2.3079 -1.5029
   96SAPS  C317 9602   6.379   1.794   8.254  0.0180  0.2790  0.0305
   96SAPS  H17X 9603   6.436   1.809   8.348 -1.8630 -1.6063  1.5763
   96SAPS  H17Y 9604   6.436   1.723   8.190 -0.5483  0.7759 -1.0501
   96SAPS  C318 9605   6.242   1.726   8.284  0.4568  0.5755  0.1187
   96SAPS  H18X 9606   6.170   1.735   8.200  0.7673  2.3160  0.0072
   96SAPS  H18Y 9607   6.205   1.754   8.385  2.9202  0.5777  1.0847
   96SAPS  H18Z 9608   6.266   1.619   8.303 -0.5466  0.2733 -0.2358
   97SAPS     N 9609   5.464   6.049   6.315  0.5463 -0.2336  1.3409
   97SAPS   HN1 9610   5.370   6.041   6.361  0.2363  0.0856  0.7701
   97SAPS   HN2 9611   5.530   6.054   6.396  0.0497 -1.1353  1.8188
   97SAPS   HN3 9612   5.467   6.142   6.269  0.3948 -2.1836 -3.0839
   97SAPS   C12 9613   5.504   5.948   6.210  0.0137  0.3432 -0.2953
   97SAPS  H12A 9614   5.430   5.954   6.131  1.8755 -0.6773 -2.1991
   97SAPS   C13 9615   5.638   5.960   6.139 -0.1860 -0.0922  0.3944
   97SAPS  O13A 9616   5.724   6.050   6.156 -0.5811 -0.6604 -0.6846
   97SAPS  O13B 9617   5.655   5.868   6.051 -0.0934 -0.1592  0.6005
   97SAPS   C11 9618   5.492   5.805   6.277  0.3068  0.7254 -0.5271
   97SAPS  H11A 9619   5.501   5.723   6.202 -0.5629 -0.0743  0.2235
   97SAPS  H11B 9620   5.386   5.807   6.311  0.0602  0.6245 -1.2612
   97SAPS     P 9621   5.639   5.646   6.440  0.3737 -0.0285 -0.5239
   97SAPS   O13 9622   5.617   5.556   6.321 -0.9060  0.3645  0.1362
   97SAPS   O14 9623   5.771   5.662   6.502  0.1386 -0.6125  0.3877
   97SAPS   O12 9624   5.583   5.788   6.391 -0.3064  0.4896 -0.1672
   97SAPS   O11 9625   5.532   5.610   6.551  0.3412 -0.1624  0.4654
   97SAPS    C1 9626   5.523   5.673   6.677 -0.5834  0.0895 -0.6822
   97SAPS    HA 9627   5.617   5.718   6.715 -0.6705 -1.3223  1.3557
   97SAPS    HB 9628   5.454   5.760   6.668  1.3338  1.6098 -1.4038
   97SAPS    C2 9629   5.476   5.574   6.775  1.2881  0.9028 -0.1142
   97SAPS    HS 9630   5.366   5.561   6.763  1.1428  0.9772  1.0485
   97SAPS   O21 9631   5.499   5.619   6.910 -0.5585 -0.0279  0.6905
   97SAPS   C21 9632   5.405   5.605   6.998 -0.1392 -0.2419  0.1505
   97SAPS   O22 9633   5.294   5.551   6.981 -0.4359 -0.1809  0.7058
   97SAPS   C22 9634   5.447   5.668   7.125 -0.6361 -0.1653  0.1781
   97SAPS   H2R 9635   5.558   5.668   7.139 -0.2983  1.0472 -1.9581
   97SAPS   H2S 9636   5.420   5.775   7.115  0.2086  0.2454  1.9093
   97SAPS    C3 9637   5.543   5.428   6.761  0.6172  0.8119 -0.1569
   97SAPS    HX 9638   5.649   5.453   6.739  1.0360 -0.3388  0.4549
   97SAPS    HY 9639   5.504   5.372   6.673 -1.7675  1.3206  0.5078
   97SAPS   O31 9640   5.529   5.339   6.876 -0.4137  0.1221 -0.7699
   97SAPS   C31 9641   5.413   5.278   6.897  0.5303 -0.1116  0.3277
   97SAPS   O32 9642   5.315   5.280   6.823 -0.0909 -0.3978 -0.0443
   97SAPS   C32 9643   5.412   5.212   7.035  0.1401 -0.2312 -0.1878
   97SAPS   H2X 9644   5.469   5.279   7.102  0.2977 -1.8274  1.3428
   97SAPS   H2Y 9645   5.467   5.116   7.030  2.8629  1.2507 -0.3618
   97SAPS   C23 9646   5.375   5.615   7.253  0.0389  0.6729  0.2161
   97SAPS   H3R 9647   5.412   5.513   7.275 -1.2035  0.4572  1.4781
   97SAPS   H3S 9648   5.265   5.604   7.238 -0.0394  0.0328  1.1512
   97SAPS   C24 9649   5.400   5.720   7.361  0.6051  0.1459 -0.1312
   97SAPS   H4R 9650   5.357   5.667   7.448 -0.6852 -2.1695 -2.0622
   97SAPS   H4S 9651   5.329   5.805   7.352 -0.4796 -0.7885 -0.6325
   97SAPS   C25 9652   5.544   5.759   7.394  0.1396  0.3903 -0.6148
   97SAPS   H5R 9653   5.589   5.799   7.301 -1.5038  3.3346 -0.2718
   97SAPS   C26 9654   5.609   5.740   7.509  0.3312 -0.3590 -0.3615
   97SAPS   H6R 9655   5.707   5.789   7.517 -0.6298  2.1567 -2.6242
   97SAPS   C27 9656   5.555   5.695   7.644 -0.1248  0.4537  0.9845
   97SAPS   H7R 9657   5.506   5.596   7.641  0.1083  0.3562  0.2651
   97SAPS   H7S 9658   5.476   5.767   7.677 -0.5946  0.8031 -0.7944
   97SAPS   C28 9659   5.670   5.682   7.746 -1.0249  0.4340 -0.4407
   97SAPS   H8R 9660   5.733   5.593   7.740  0.2096  1.2568  0.0526
   97SAPS   C29 9661   5.703   5.774   7.838 -0.1628 -0.8565 -0.4805
   97SAPS   H9R 9662   5.785   5.749   7.907  0.2235 -1.1097 -1.0213
   97SAPS  C210 9663   5.643   5.914   7.847 -0.1792  0.7114  1.2924
   97SAPS  H10R 9664   5.553   5.904   7.911 -1.6895  1.4266 -0.6181
   97SAPS  H10S 9665   5.602   5.947   7.749 -0.8672 -0.4578  1.1676
   97SAPS  C211 9666   5.733   6.018   7.909 -0.3353  0.2543  0.1429
   97SAPS  H11R 9667   5.776   5.985   8.005  1.1388 -0.6063 -0.7616
   97SAPS  C212 9668   5.753   6.143   7.871 -0.6000 -0.1148  0.4501
   97SAPS  H12R 9669   5.823   6.214   7.917  2.0016 -0.2429 -2.9168
   97SAPS  C213 9670   5.696   6.206   7.743 -0.3992  0.4319 -0.3432
   97SAPS  H13R 9671   5.585   6.215   7.751 -0.3521 -0.1457  1.3486
   97SAPS  H13S 9672   5.715   6.134   7.660 -1.7503  1.5433 -1.6837
   97SAPS  C214 9673   5.738   6.348   7.712  0.5283 -0.1890  0.2380
   97SAPS  H14R 9674   5.676   6.431   7.750  1.2889  0.2527  0.5478
   97SAPS  C215 9675   5.846   6.375   7.635  0.6707  0.6867  1.2836
   97SAPS  H15R 9676   5.850   6.481   7.607 -1.2301  0.8660  1.5131
   97SAPS  C216 9677   5.944   6.276   7.577 -1.3573  0.0325  0.2258
   97SAPS  H16R 9678   5.932   6.181   7.632 -0.0308 -0.4963 -0.3457
   97SAPS  H16S 9679   6.041   6.318   7.611 -0.7391  0.2345 -1.6749
   97SAPS  C217 9680   5.960   6.270   7.429  0.1441  0.1828  0.8364
   97SAPS  H17R 9681   5.870   6.228   7.378  1.4437  0.0344 -1.4643
   97SAPS  H17S 9682   6.042   6.201   7.400 -1.8292 -0.9518 -2.7033
   97SAPS  C218 9683   5.991   6.405   7.370  0.1414  0.1495 -0.2134
   97SAPS  H18R 9684   6.102   6.414   7.378  0.3207 -1.1069 -0.9161
   97SAPS  H18S 9685   5.955   6.500   7.414 -0.6064 -0.6057  0.8626
   97SAPS  C219 9686   5.965   6.426   7.220 -0.3497  0.2540 -0.1675
   97SAPS  H19R 9687   6.007   6.331   7.183  1.3328  1.0603 -0.4274
   97SAPS  H19S 9688   6.024   6.518   7.200 -0.9585  1.6264  3.4901
   97SAPS  C220 9689   5.824   6.451   7.176  0.4937 -0.0223 -0.1017
   97SAPS  H20R 9690   5.772   6.524   7.241 -0.8397 -0.0820 -1.0654
   97SAPS  H20S 9691   5.759   6.360   7.178  1.4543 -0.7265 -0.1970
   97SAPS  H20T 9692   5.823   6.497   7.075  0.3161  0.0524 -0.0657
   97SAPS   C33 9693   5.260   5.210   7.087  0.0112  0.3723 -0.5992
   97SAPS   H3X 9694   5.217   5.134   7.018 -0.9129 -0.0696  0.4423
   97SAPS   H3Y 9695   5.208   5.307   7.092 -0.1975  0.2243  3.5877
   97SAPS   C34 9696   5.245   5.146   7.222  0.4874 -0.4394 -0.5941
   97SAPS   H4X 9697   5.290   5.044   7.222  0.1475 -0.6034  0.5260
   97SAPS   H4Y 9698   5.138   5.126   7.241  0.5673 -0.5624 -0.2610
   97SAPS   C35 9699   5.308   5.230   7.338 -0.1115 -0.1537 -0.0682
   97SAPS   H5X 9700   5.252   5.325   7.324 -0.2577  0.4205  3.5120
   97SAPS   H5Y 9701   5.416   5.248   7.321  0.4203 -0.5083  2.5130
   97SAPS   C36 9702   5.284   5.173   7.476  0.3929 -0.0040  0.0031
   97SAPS   H6X 9703   5.347   5.086   7.503  0.8447  0.8528  1.8330
   97SAPS   H6Y 9704   5.177   5.151   7.495  0.4608  1.9073  3.3734
   97SAPS   C37 9705   5.325   5.281   7.575 -0.7341 -0.4962  0.5464
   97SAPS   H7X 9706   5.275   5.379   7.559 -0.9074 -0.7833 -0.7043
   97SAPS   H7Y 9707   5.429   5.313   7.550 -0.9960  0.7155  0.9525
   97SAPS   C38 9708   5.329   5.232   7.717 -0.2551  0.5258 -0.4272
   97SAPS   H8X 9709   5.330   5.122   7.727 -0.7520  0.4609 -1.0089
   97SAPS   H8Y 9710   5.239   5.272   7.768  0.1053  0.2471  0.4379
   97SAPS   C39 9711   5.452   5.301   7.790 -0.5563  0.3639  0.5382
   97SAPS   H9X 9712   5.480   5.401   7.751  1.0126 -0.1426  0.2777
   97SAPS   H9Y 9713   5.534   5.232   7.761 -1.6897  0.4325 -3.4477
   97SAPS  C310 9714   5.436   5.325   7.942  0.4456 -0.3496  0.8437
   97SAPS  H10X 9715   5.365   5.407   7.968  2.0305  2.2838 -2.3540
   97SAPS  H10Y 9716   5.534   5.364   7.976 -0.2646 -0.3582  3.0774
   97SAPS  C311 9717   5.408   5.195   8.017  0.1049 -0.7425 -0.1666
   97SAPS  H11X 9718   5.474   5.123   7.964  0.9432  0.5682 -0.9535
   97SAPS  H11Y 9719   5.307   5.154   7.996 -0.3962  0.5061 -0.2586
   97SAPS  C312 9720   5.444   5.201   8.166 -0.4100  0.4067 -0.4374
   97SAPS  H12X 9721   5.552   5.227   8.178 -0.2385 -0.7343  0.9044
   97SAPS  H12Y 9722   5.431   5.093   8.192  0.7238 -0.2486 -2.3493
   97SAPS  C313 9723   5.353   5.285   8.269  0.0635 -0.3878  0.0737
   97SAPS  H13X 9724   5.248   5.281   8.234  0.1170  1.8164 -0.4622
   97SAPS  H13Y 9725   5.389   5.390   8.259  0.4511 -0.6190 -1.1729
   97SAPS  C314 9726   5.350   5.238   8.412 -0.6612  0.0354 -0.2161
   97SAPS  H14X 9727   5.317   5.313   8.488  2.3508 -0.4301  1.6969
   97SAPS  H14Y 9728   5.457   5.232   8.442 -0.5643 -1.2895 -0.7972
   97SAPS  C315 9729   5.294   5.102   8.440 -0.2082 -0.0882  0.5158
   97SAPS  H15X 9730   5.376   5.029   8.420 -1.9595 -2.2702  0.9493
   97SAPS  H15Y 9731   5.225   5.089   8.354 -0.2059  0.4634  0.4263
   97SAPS  C316 9732   5.218   5.080   8.571 -0.4409  0.1230  0.1733
   97SAPS  H16X 9733   5.125   5.141   8.565 -1.7019 -1.8056 -0.8742
   97SAPS  H16Y 9734   5.278   5.127   8.652  2.5830  0.1587 -1.9323
   97SAPS  C317 9735   5.186   4.931   8.598  0.1407 -0.2030  0.4696
   97SAPS  H17X 9736   5.133   4.927   8.695  2.3045  0.3352  1.7464
   97SAPS  H17Y 9737   5.284   4.880   8.609  0.5379  0.0825 -1.3543
   97SAPS  C318 9738   5.095   4.878   8.490  0.1969 -0.4614  0.2736
   97SAPS  H18X 9739   5.166   4.844   8.412 -1.3255 -1.6735 -0.6277
   97SAPS  H18Y 9740   5.025   4.956   8.453 -0.4244 -1.2924 -0.3381
   97SAPS  H18Z 9741   5.037   4.788   8.519 -1.7567  0.2735 -1.1180
   98SAPS     N 9742   2.136   5.050   5.946 -0.1124  0.2541 -0.0837
   98SAPS   HN1 9743   2.075   5.079   6.025  1.2635  2.1425  0.3576
   98SAPS   HN2 9744   2.222   5.108   5.957  0.0528 -0.0206  0.0793
   98SAPS   HN3 9745   2.090   5.075   5.857 -0.8479  0.8222  0.4392
   98SAPS   C12 9746   2.169   4.909   5.930 -0.6799  0.1732 -0.2593
   98SAPS  H12A 9747   2.084   4.859   5.972  0.5808 -1.3099  0.6351
   98SAPS   C13 9748   2.189   4.870   5.787  0.3898  0.1472  0.1102
   98SAPS  O13A 9749   2.120   4.935   5.697 -0.0196 -0.4229  0.5575
   98SAPS  O13B 9750   2.224   4.755   5.765  0.4253 -0.1333 -0.4581
   98SAPS   C11 9751   2.297   4.886   6.017  1.2099  0.0329  0.0681
   98SAPS  H11A 9752   2.388   4.941   5.985 -0.3271  3.1458  0.6716
   98SAPS  H11B 9753   2.328   4.783   5.989  1.5320  0.7976 -2.6483
   98SAPS     P 9754   2.193   4.810   6.246  0.3748  0.4257 -0.1463
   98SAPS   O13 9755   2.047   4.815   6.223 -0.1431  0.0455 -0.0276
   98SAPS   O14 9756   2.262   4.677   6.229  0.7816 -0.3641 -0.1120
   98SAPS   O12 9757   2.267   4.904   6.156  0.1187 -0.0020 -0.0972
   98SAPS   O11 9758   2.237   4.859   6.389 -0.2614  0.0603 -0.5464
   98SAPS    C1 9759   2.206   4.986   6.442 -0.4389 -0.2039  0.2602
   98SAPS    HA 9760   2.229   5.066   6.367 -2.0062  0.5137  0.5011
   98SAPS    HB 9761   2.099   4.994   6.469 -0.2679  1.7284  0.5251
   98SAPS    C2 9762   2.289   5.023   6.570 -0.0781 -0.1868  0.2761
   98SAPS    HS 9763   2.395   5.036   6.540  0.0517  1.0899  1.2197
   98SAPS   O21 9764   2.275   4.914   6.662 -0.0006 -0.2190  0.2223
   98SAPS   C21 9765   2.387   4.902   6.735 -0.3645  0.6649  0.1180
   98SAPS   O22 9766   2.495   4.951   6.710  0.4819  0.3175 -0.7328
   98SAPS   C22 9767   2.360   4.807   6.851 -0.0801  0.7012  0.0967
   98SAPS   H2R 9768   2.259   4.825   6.894  0.2929  0.5899  1.0415
   98SAPS   H2S 9769   2.354   4.711   6.796 -0.7901  1.0870 -0.5162
   98SAPS    C3 9770   2.226   5.152   6.626 -0.0155  0.2513  0.4351
   98SAPS    HX 9771   2.135   5.131   6.686  0.2027  0.6674  0.9187
   98SAPS    HY 9772   2.191   5.220   6.545  0.1378  2.6038  2.2391
   98SAPS   O31 9773   2.328   5.213   6.712  0.1093  0.4162 -0.1506
   98SAPS   C31 9774   2.419   5.290   6.652  0.5715  0.0543 -0.4314
   98SAPS   O32 9775   2.426   5.304   6.528  0.1168 -0.1531 -1.2435
   98SAPS   C32 9776   2.520   5.349   6.753  0.2359 -0.3401  0.3794
   98SAPS   H2X 9777   2.481   5.449   6.785 -2.6218 -0.6978 -1.5801
   98SAPS   H2Y 9778   2.612   5.376   6.698  1.6015 -0.4520  2.4830
   98SAPS   C23 9779   2.477   4.806   6.944  0.4632 -0.4918  0.3476
   98SAPS   H3R 9780   2.487   4.904   6.996 -1.4325 -0.5032  0.7887
   98SAPS   H3S 9781   2.572   4.787   6.889  0.9276  2.1879  0.0915
   98SAPS   C24 9782   2.476   4.696   7.052  0.2873 -0.1385  0.8675
   98SAPS   H4R 9783   2.567   4.700   7.115 -0.2236 -1.2245  1.6961
   98SAPS   H4S 9784   2.475   4.598   6.999  0.4744  0.4011 -0.1559
   98SAPS   C25 9785   2.359   4.701   7.144 -0.0289 -0.2546  0.3877
   98SAPS   H5R 9786   2.262   4.704   7.091 -0.3819 -0.3460  1.0175
   98SAPS   C26 9787   2.360   4.696   7.281  0.3115 -0.2450  0.4189
   98SAPS   H6R 9788   2.256   4.692   7.316  0.2747 -0.4985  0.2801
   98SAPS   C27 9789   2.477   4.691   7.378 -0.5480 -0.1946  0.0173
   98SAPS   H7R 9790   2.488   4.787   7.433 -0.5092 -1.3259  2.1262
   98SAPS   H7S 9791   2.575   4.684   7.326 -1.5058 -0.1887 -1.8800
   98SAPS   C28 9792   2.454   4.575   7.470  0.1755  0.7044  0.2384
   98SAPS   H8R 9793   2.408   4.487   7.422 -0.4536  1.4208 -0.4991
   98SAPS   C29 9794   2.486   4.566   7.597  0.1235 -0.2566 -0.3603
   98SAPS   H9R 9795   2.467   4.468   7.644 -1.9687 -0.2439 -1.0880
   98SAPS  C210 9796   2.565   4.664   7.674  0.3908 -0.1917  0.0103
   98SAPS  H10R 9797   2.497   4.739   7.721 -0.0262 -1.5930  1.8103
   98SAPS  H10S 9798   2.634   4.730   7.618 -0.1569 -0.4010 -0.9342
   98SAPS  C211 9799   2.633   4.601   7.792 -0.2726  0.1476  0.1221
   98SAPS  H11R 9800   2.742   4.593   7.794 -0.3486 -1.2992  0.0443
   98SAPS  C212 9801   2.579   4.560   7.907  0.2840  0.8369  0.3252
   98SAPS  H12R 9802   2.648   4.507   7.974 -1.2353 -0.2319  1.1080
   98SAPS  C213 9803   2.434   4.561   7.956 -0.7356  0.1559  0.5306
   98SAPS  H13R 9804   2.374   4.627   7.889  1.4543  1.5791 -0.1522
   98SAPS  H13S 9805   2.428   4.617   8.052  1.1265  0.7244  0.3634
   98SAPS  C214 9806   2.391   4.417   7.958  0.1745 -0.4509 -0.2952
   98SAPS  H14R 9807   2.424   4.357   7.872 -0.5324 -1.1944 -0.0587
   98SAPS  C215 9808   2.329   4.352   8.060 -0.0429  0.4812 -0.5192
   98SAPS  H15R 9809   2.305   4.245   8.049 -0.4513  0.4179  0.7615
   98SAPS  C216 9810   2.280   4.406   8.186 -0.0044 -0.4523 -0.6596
   98SAPS  H16R 9811   2.180   4.364   8.213  0.4337 -1.0826  0.0296
   98SAPS  H16S 9812   2.284   4.517   8.187  1.1855 -0.4612 -1.8373
   98SAPS  C217 9813   2.364   4.356   8.306  0.6600  0.0968  0.1832
   98SAPS  H17R 9814   2.330   4.424   8.387 -0.2875 -0.7776  0.5308
   98SAPS  H17S 9815   2.470   4.386   8.292 -0.1123  2.3368 -1.4883
   98SAPS  C218 9816   2.340   4.210   8.352 -0.0005 -0.2346 -0.1531
   98SAPS  H18R 9817   2.361   4.137   8.271 -0.4286 -1.8797  1.1666
   98SAPS  H18S 9818   2.233   4.200   8.378  0.5767 -2.1082  1.7779
   98SAPS  C219 9819   2.432   4.170   8.470  0.2292 -0.6454  0.4779
   98SAPS  H19R 9820   2.430   4.236   8.559 -0.8588 -1.6425  1.2285
   98SAPS  H19S 9821   2.533   4.169   8.424 -1.4704  0.3279 -3.7366
   98SAPS  C220 9822   2.418   4.027   8.523  0.0865 -1.0824 -0.0401
   98SAPS  H20R 9823   2.449   3.957   8.443 -1.7171 -0.5126 -1.3127
   98SAPS  H20S 9824   2.312   3.999   8.543 -0.7737  0.0175 -2.6009
   98SAPS  H20T 9825   2.462   4.020   8.625  1.5723  2.5548 -0.2754
   98SAPS   C33 9826   2.575   5.267   6.873 -0.3929  0.9900 -0.2065
   98SAPS   H3X 9827   2.670   5.313   6.906 -0.8791  0.1489  2.6208
   98SAPS   H3Y 9828   2.592   5.160   6.846  1.1553  1.3673 -0.8638
   98SAPS   C34 9829   2.480   5.280   6.996 -0.4330 -0.3645 -0.1082
   98SAPS   H4X 9830   2.377   5.242   6.981  0.2728 -2.2638 -0.5464
   98SAPS   H4Y 9831   2.486   5.388   7.021  1.6133 -0.0978 -1.4741
   98SAPS   C35 9832   2.550   5.216   7.116  0.4485 -0.2855 -0.1100
   98SAPS   H5X 9833   2.659   5.238   7.123  0.5118 -0.9167  1.1155
   98SAPS   H5Y 9834   2.548   5.107   7.094  0.5713 -0.2844 -0.1268
   98SAPS   C36 9835   2.471   5.236   7.239 -0.0841 -0.2417 -0.3752
   98SAPS   H6X 9836   2.365   5.214   7.216 -0.1518  0.3588 -0.6373
   98SAPS   H6Y 9837   2.465   5.344   7.262 -1.5508 -0.0436 -1.5033
   98SAPS   C37 9838   2.514   5.161   7.362  0.3534 -0.1116 -0.1093
   98SAPS   H7X 9839   2.497   5.053   7.342  0.3478  0.2941 -2.5947
   98SAPS   H7Y 9840   2.450   5.182   7.451  2.7979  0.0761  1.7248
   98SAPS   C38 9841   2.669   5.178   7.392 -0.3958  0.3231 -0.2045
   98SAPS   H8X 9842   2.699   5.281   7.419  0.9482  0.7762 -2.9941
   98SAPS   H8Y 9843   2.723   5.151   7.298 -3.0339  0.5508 -1.8822
   98SAPS   C39 9844   2.717   5.094   7.508 -0.3349  0.1455  0.5092
   98SAPS   H9X 9845   2.824   5.116   7.527  0.4999 -2.8980 -0.1106
   98SAPS   H9Y 9846   2.710   4.987   7.481  0.4882  0.5323 -1.3805
   98SAPS  C310 9847   2.641   5.126   7.638  0.7422 -0.2287 -0.7136
   98SAPS  H10X 9848   2.535   5.098   7.623  0.3046  1.0151 -0.1400
   98SAPS  H10Y 9849   2.654   5.236   7.651  2.1072 -0.4735  0.2233
   98SAPS  C311 9850   2.684   5.047   7.767 -0.4752 -0.8384 -0.1436
   98SAPS  H11X 9851   2.794   5.055   7.778 -0.6039  1.0413  0.0063
   98SAPS  H11Y 9852   2.656   4.941   7.744  1.4423 -1.0006 -2.0267
   98SAPS  C312 9853   2.611   5.099   7.891 -0.3828 -0.4667 -0.6065
   98SAPS  H12X 9854   2.502   5.089   7.872 -0.7747  0.5109  0.9668
   98SAPS  H12Y 9855   2.639   5.205   7.906  0.3037 -0.3621 -2.3751
   98SAPS  C313 9856   2.639   5.013   8.018  0.0893  0.2589 -1.1361
   98SAPS  H13X 9857   2.748   5.018   8.036  0.1749  1.0931 -1.8207
   98SAPS  H13Y 9858   2.627   4.905   7.996 -0.3194  0.4143 -1.7111
   98SAPS  C314 9859   2.563   5.072   8.139 -0.5712  0.0372  0.2374
   98SAPS  H14X 9860   2.570   5.183   8.135 -1.1585  0.0669  0.0427
   98SAPS  H14Y 9861   2.612   5.025   8.228 -0.0407 -4.1204 -1.9825
   98SAPS  C315 9862   2.419   5.027   8.159  0.0922  0.4253  0.4423
   98SAPS  H15X 9863   2.417   4.916   8.149 -1.7765  0.5385 -0.9744
   98SAPS  H15Y 9864   2.355   5.074   8.082 -2.1487  0.5293  2.2367
   98SAPS  C316 9865   2.366   5.056   8.298  0.0985  0.0160  0.1076
   98SAPS  H16X 9866   2.387   5.163   8.315  1.8894 -0.6272  2.3425
   98SAPS  H16Y 9867   2.420   5.001   8.379  0.0164  0.7548  0.6664
   98SAPS  C317 9868   2.214   5.042   8.308  0.0063  0.6260 -0.5133
   98SAPS  H17X 9869   2.187   4.948   8.255  1.6464 -0.9294  1.2677
   98SAPS  H17Y 9870   2.175   5.118   8.237 -2.1782  0.9160  0.9054
   98SAPS  C318 9871   2.148   5.061   8.446 -0.0543  0.8512 -0.7467
   98SAPS  H18X 9872   2.037   5.055   8.437 -0.0747  1.2478 -0.7862
   98SAPS  H18Y 9873   2.187   5.157   8.488  0.5712 -1.1091  3.7469
   98SAPS  H18Z 9874   2.186   4.979   8.510  0.1386  0.6479 -1.1177
   99SAPS     N 9875   2.475   5.353   6.239  0.2100  0.1430 -0.4685
   99SAPS   HN1 9876   2.454   5.363   6.340 -0.0393 -1.1140 -0.3806
   99SAPS   HN2 9877   2.485   5.254   6.210  1.1562  0.0487  0.1513
   99SAPS   HN3 9878   2.553   5.416   6.213 -1.7942  2.0131 -2.5164
   99SAPS   C12 9879   2.361   5.413   6.176  0.4464 -0.5353 -0.2998
   99SAPS  H12A 9880   2.376   5.501   6.114 -0.7282 -0.1088  0.0018
   99SAPS   C13 9881   2.276   5.313   6.092  0.5696 -0.0867  0.3583
   99SAPS  O13A 9882   2.329   5.201   6.056  0.1817 -0.4650 -0.2253
   99SAPS  O13B 9883   2.169   5.362   6.040 -0.4824  0.0483  0.2492
   99SAPS   C11 9884   2.271   5.470   6.286 -0.3025 -0.1278 -0.2822
   99SAPS  H11A 9885   2.221   5.382   6.333 -0.7409 -1.9183 -3.7392
   99SAPS  H11B 9886   2.180   5.521   6.248  0.8337  0.8770 -1.7603
   99SAPS     P 9887   2.307   5.704   6.388  0.4330 -0.2024 -0.4084
   99SAPS   O13 9888   2.406   5.760   6.485  0.3211 -0.4096 -0.2009
   99SAPS   O14 9889   2.318   5.757   6.248  0.1287  0.7554 -0.2604
   99SAPS   O12 9890   2.341   5.551   6.376 -0.3543 -0.2928 -0.1164
   99SAPS   O11 9891   2.159   5.713   6.440  0.7139  0.0440 -0.0943
   99SAPS    C1 9892   2.123   5.644   6.563  0.0298 -0.7052  1.2754
   99SAPS    HA 9893   2.023   5.598   6.548 -0.4823  0.8362 -0.4205
   99SAPS    HB 9894   2.195   5.563   6.587 -0.0803 -0.4976  2.3269
   99SAPS    C2 9895   2.126   5.743   6.684  0.0380  0.6767  0.0737
   99SAPS    HS 9896   2.233   5.771   6.696  0.1889 -0.0507  0.5120
   99SAPS   O21 9897   2.073   5.672   6.797 -0.8076 -0.7035  0.3940
   99SAPS   C21 9898   2.135   5.562   6.828  1.0927 -0.2835 -0.3299
   99SAPS   O22 9899   2.256   5.539   6.824 -0.3278  0.4736 -0.1539
   99SAPS   C22 9900   2.030   5.467   6.893 -0.0839  0.1094  0.2396
   99SAPS   H2R 9901   1.931   5.515   6.887  0.3905  0.9776 -1.8789
   99SAPS   H2S 9902   2.037   5.379   6.825 -0.8847  1.3647 -1.5563
   99SAPS    C3 9903   2.041   5.874   6.660 -1.0782 -0.2825 -0.3672
   99SAPS    HX 9904   1.937   5.833   6.664 -0.9550 -0.6115 -0.5128
   99SAPS    HY 9905   2.062   5.919   6.561  2.0810  1.6653  1.0592
   99SAPS   O31 9906   2.042   5.979   6.765  0.8547 -0.0744  0.3179
   99SAPS   C31 9907   2.151   6.037   6.792 -0.1028  0.6082 -0.8604
   99SAPS   O32 9908   2.248   6.029   6.720 -0.1928 -0.5742  0.5838
   99SAPS   C32 9909   2.129   6.111   6.925  0.1598 -0.1426 -0.1658
   99SAPS   H2X 9910   2.024   6.093   6.956 -0.7519  4.5248  0.1223
   99SAPS   H2Y 9911   2.146   6.218   6.902 -0.8444 -0.1970 -1.2627
   99SAPS   C23 9912   2.064   5.408   7.041 -0.6289 -0.0125 -0.2719
   99SAPS   H3R 9913   2.157   5.350   7.028  0.7075  1.8636  0.4351
   99SAPS   H3S 9914   1.981   5.341   7.073  0.7403 -2.5911 -1.7875
   99SAPS   C24 9915   2.098   5.515   7.149  0.1435  0.1076  1.5257
   99SAPS   H4R 9916   2.173   5.594   7.125 -0.7529  0.9331  1.3609
   99SAPS   H4S 9917   2.146   5.444   7.218  1.7620 -0.5081 -0.1429
   99SAPS   C25 9918   1.970   5.582   7.194  0.1632  0.0701  0.6870
   99SAPS   H5R 9919   1.915   5.636   7.115  1.6327  0.5421 -0.0458
   99SAPS   C26 9920   1.929   5.588   7.320  0.2784 -0.6737  0.3011
   99SAPS   H6R 9921   1.826   5.626   7.327  0.5059  0.6006 -1.9935
   99SAPS   C27 9922   1.999   5.531   7.444 -0.2375  0.1090 -0.0722
   99SAPS   H7R 9923   2.106   5.517   7.418  0.1817  1.8105  0.6514
   99SAPS   H7S 9924   1.968   5.425   7.462 -0.4528  0.4172  1.5185
   99SAPS   C28 9925   1.972   5.625   7.558  0.3443  0.6455 -0.6935
   99SAPS   H8R 9926   1.940   5.727   7.531 -0.2432  0.4817 -0.6375
   99SAPS   C29 9927   1.993   5.584   7.687 -0.4291 -0.5960  0.7172
   99SAPS   H9R 9928   1.985   5.659   7.767 -2.1975  0.5254 -0.4195
   99SAPS  C210 9929   2.039   5.449   7.720  0.0527  0.0668  0.2485
   99SAPS  H10R 9930   2.141   5.450   7.676 -0.0279 -0.4083  0.0414
   99SAPS  H10S 9931   1.973   5.372   7.674  0.0070 -0.1484  0.6741
   99SAPS  C211 9932   2.054   5.428   7.868  0.4638 -0.7077  0.6751
   99SAPS  H11R 9933   2.151   5.467   7.904  0.9676 -2.3441  1.1743
   99SAPS  C212 9934   1.967   5.365   7.948 -0.6691  0.1820  0.3626
   99SAPS  H12R 9935   2.002   5.359   8.053  4.1088 -0.8568 -1.0469
   99SAPS  C213 9936   1.832   5.311   7.902 -0.6362  1.1204  0.6259
   99SAPS  H13R 9937   1.795   5.350   7.804 -0.7672 -0.3564  0.0675
   99SAPS  H13S 9938   1.756   5.345   7.975 -0.8567  0.9873  0.4577
   99SAPS  C214 9939   1.830   5.155   7.883  0.2511  0.1069  0.4844
   99SAPS  H14R 9940   1.904   5.110   7.817 -0.9188  1.5036 -1.9100
   99SAPS  C215 9941   1.743   5.075   7.946 -0.0405 -0.1261 -0.2489
   99SAPS  H15R 9942   1.749   4.966   7.933  0.1156 -0.2349  0.6482
   99SAPS  C216 9943   1.640   5.122   8.049  0.1848  0.0525  0.4328
   99SAPS  H16R 9944   1.578   5.034   8.075  0.2757  1.0627  5.0967
   99SAPS  H16S 9945   1.578   5.208   8.016  0.7848 -0.1789 -1.4041
   99SAPS  C217 9946   1.690   5.166   8.190 -0.7811  1.1006 -0.1068
   99SAPS  H17R 9947   1.736   5.266   8.180  0.3427  0.8919  2.2589
   99SAPS  H17S 9948   1.769   5.099   8.233  0.3420  2.7560  0.5054
   99SAPS  C218 9949   1.569   5.183   8.281  0.1760 -0.6856 -0.5535
   99SAPS  H18R 9950   1.488   5.231   8.223 -0.5147 -1.8671 -0.6026
   99SAPS  H18S 9951   1.599   5.264   8.350  2.1362 -2.7541  1.2023
   99SAPS  C219 9952   1.540   5.060   8.376  0.2008 -0.0245 -1.0955
   99SAPS  H19R 9953   1.638   5.029   8.415 -0.0292  0.7026  0.1170
   99SAPS  H19S 9954   1.507   4.980   8.307 -1.8459 -0.1380 -0.0790
   99SAPS  C220 9955   1.448   5.097   8.491  0.2975  0.0139  0.0259
   99SAPS  H20R 9956   1.496   5.166   8.563  1.4083 -1.4048  0.7142
   99SAPS  H20S 9957   1.426   5.002   8.545  0.6871  0.7200  1.4761
   99SAPS  H20T 9958   1.357   5.146   8.450  0.5407 -0.3238 -0.9286
   99SAPS   C33 9959   2.223   6.060   7.032 -1.0109 -0.4958  0.2015
   99SAPS   H3X 9960   2.205   6.126   7.120 -0.9034  0.7046 -0.6474
   99SAPS   H3Y 9961   2.330   6.066   7.002 -0.9638  0.4609  0.5291
   99SAPS   C34 9962   2.184   5.921   7.078 -0.7026  0.3460 -0.5645
   99SAPS   H4X 9963   2.220   5.846   7.004  2.1073  0.0285  1.0119
   99SAPS   H4Y 9964   2.073   5.922   7.079 -0.8233 -0.8173 -3.2525
   99SAPS   C35 9965   2.238   5.884   7.227 -0.7731 -0.0566  0.1666
   99SAPS   H5X 9966   2.347   5.902   7.239 -0.6763 -1.0519  1.0369
   99SAPS   H5Y 9967   2.230   5.774   7.242  1.5091 -0.7843 -3.0439
   99SAPS   C36 9968   2.162   5.954   7.341  0.4849 -0.3256  0.5834
   99SAPS   H6X 9969   2.070   5.897   7.369  1.3448 -1.0031  2.1797
   99SAPS   H6Y 9970   2.133   6.057   7.313  0.9177 -0.0171  1.2572
   99SAPS   C37 9971   2.251   5.967   7.464 -0.0371  0.6844 -0.4933
   99SAPS   H7X 9972   2.353   5.984   7.422 -0.3619  1.9945 -0.7928
   99SAPS   H7Y 9973   2.252   5.860   7.492  0.2446  0.7606 -0.1894
   99SAPS   C38 9974   2.201   6.063   7.567  0.3088  0.5061 -0.1740
   99SAPS   H8X 9975   2.091   6.072   7.568  0.4172  2.1601 -0.0156
   99SAPS   H8Y 9976   2.240   6.164   7.541  1.1784  0.1997 -0.1147
   99SAPS   C39 9977   2.254   6.028   7.709 -0.8693 -0.0466 -0.2699
   99SAPS   H9X 9978   2.217   6.112   7.771 -0.8108 -0.3745  0.2174
   99SAPS   H9Y 9979   2.365   6.026   7.716 -0.7651  2.6117 -0.2235
   99SAPS  C310 9980   2.190   5.900   7.761 -0.1096 -0.2174  0.1152
   99SAPS  H10X 9981   2.247   5.814   7.720  0.3413  0.4662 -0.7144
   99SAPS  H10Y 9982   2.094   5.895   7.705  1.8141  0.2245 -3.5090
   99SAPS  C311 9983   2.160   5.884   7.916 -0.0254 -0.0852  0.4198
   99SAPS  H11X 9984   2.119   5.783   7.937 -1.6030  1.0867  3.5816
   99SAPS  H11Y 9985   2.078   5.955   7.941  0.3031 -0.2525  2.0829
   99SAPS  C312 9986   2.276   5.912   8.015 -0.0611 -0.4528  0.2785
   99SAPS  H12X 9987   2.334   6.001   7.985 -0.4104 -0.2564  0.1770
   99SAPS  H12Y 9988   2.347   5.827   8.005  0.1212 -0.1080 -2.0347
   99SAPS  C313 9989   2.220   5.926   8.158  0.2452  0.1415  0.1731
   99SAPS  H13X 9990   2.175   5.829   8.189  0.3850  0.6965  2.2942
   99SAPS  H13Y 9991   2.139   6.001   8.159 -1.1799 -1.3239  1.7217
   99SAPS  C314 9992   2.327   5.960   8.264 -0.2174 -0.4879  0.1644
   99SAPS  H14X 9993   2.368   6.062   8.247  1.3862 -0.6942  2.3807
   99SAPS  H14Y 9994   2.415   5.893   8.270  0.1636  0.1296  1.8863
   99SAPS  C315 9995   2.269   5.977   8.397  0.1042  0.2665 -0.3767
   99SAPS  H15X 9996   2.351   5.989   8.471 -0.1088 -0.0758 -0.0797
   99SAPS  H15Y 9997   2.218   5.883   8.429  0.0834  0.4377  0.1081
   99SAPS  C316 9998   2.171   6.094   8.426 -0.3224  0.3090  0.5939
   99SAPS  H16X 9999   2.097   6.104   8.345  0.7151 -1.1513 -0.5925
   99SAPS  H16Y10000   2.235   6.185   8.423 -0.0631  0.1027 -0.3575
   99SAPS  C31710001   2.101   6.084   8.562  0.0368  0.8785  0.1844
   99SAPS  H17X10002   2.181   6.049   8.631  0.0555  3.3985  1.5651
   99SAPS  H17Y10003   2.025   6.003   8.565  2.4141 -1.4978  0.6670
   99SAPS  C31810004   2.057   6.212   8.624 -0.1115  0.0593 -0.4482
   99SAPS  H18X10005   1.952   6.223   8.588 -0.5455  0.8110  0.9573
   99SAPS  H18Y10006   2.123   6.300   8.609  0.1584 -0.5143 -3.0345
   99SAPS  H18Z10007   2.037   6.206   8.733  2.5139  1.6500  0.2066
  100SAPS     N10008   5.901   5.727   6.070 -0.0925  0.3129  0.0035
  100SAPS   HN110009   5.829   5.800   6.054 -0.6310  0.4083  2.4591
  100SAPS   HN210010   5.855   5.634   6.067  0.1890  0.2060 -1.9489
  100SAPS   HN310011   5.939   5.738   6.167  0.8762  0.0698 -0.3353
  100SAPS   C1210012   6.014   5.727   5.970 -0.1118  0.0136 -0.2336
  100SAPS  H12A10013   6.066   5.632   5.974 -1.1028 -0.4997  1.7432
  100SAPS   C1310014   5.964   5.734   5.821 -0.6185  0.6803 -0.5184
  100SAPS  O13A10015   5.840   5.747   5.796  0.1494 -0.0772  0.6899
  100SAPS  O13B10016   6.045   5.739   5.721 -0.2154  0.3115  0.0699
  100SAPS   C1110017   6.109   5.849   6.001  0.3354  0.6264  0.3526
  100SAPS  H11A10018   6.057   5.940   5.964 -1.2678 -0.4772 -0.2642
  100SAPS  H11B10019   6.191   5.831   5.928 -0.6294 -0.5445 -0.4837
  100SAPS     P10020   6.275   5.953   6.170 -0.0114  0.0391  0.2388
  100SAPS   O1310021   6.399   5.889   6.124  0.1787 -0.1569  0.4146
  100SAPS   O1410022   6.244   6.090   6.123 -0.5202 -0.1825  0.1034
  100SAPS   O1210023   6.151   5.856   6.141 -0.1050 -0.0751  0.5717
  100SAPS   O1110024   6.279   5.957   6.329  0.0675 -0.3859 -0.0426
  100SAPS    C110025   6.215   5.857   6.412 -0.3486 -0.6997  0.5187
  100SAPS    HA10026   6.104   5.863   6.404 -0.2112 -0.1841 -1.5749
  100SAPS    HB10027   6.246   5.754   6.387  1.8183 -0.1701  0.7766
  100SAPS    C210028   6.279   5.861   6.552 -0.4625  1.0797 -0.4758
  100SAPS    HS10029   6.272   5.764   6.604 -0.0425  1.1051 -0.3755
  100SAPS   O2110030   6.199   5.957   6.618 -0.3817  0.1565  0.1321
  100SAPS   C2110031   6.174   5.933   6.744 -0.7554 -0.0431  0.0364
  100SAPS   O2210032   6.220   5.843   6.816  0.4775  0.6189 -0.4102
  100SAPS   C2210033   6.076   6.043   6.791  0.3378 -0.2940  1.0800
  100SAPS   H2R10034   6.060   6.117   6.709 -0.6254 -0.6902  0.9021
  100SAPS   H2S10035   5.983   5.991   6.823  0.0843  0.6807  1.9911
  100SAPS    C310036   6.431   5.904   6.550  0.1917  0.0547  0.1792
  100SAPS    HX10037   6.434   6.008   6.512  1.0590 -0.1979 -0.4910
  100SAPS    HY10038   6.489   5.843   6.477  1.8953  2.2070 -0.3587
  100SAPS   O3110039   6.488   5.912   6.681 -0.3853  0.7237 -0.7976
  100SAPS   C3110040   6.503   5.793   6.744  0.3808  0.0975 -0.1585
  100SAPS   O3210041   6.500   5.683   6.689  0.2369  0.0577  0.3140
  100SAPS   C3210042   6.517   5.818   6.889 -0.1072 -0.6803 -0.1841
  100SAPS   H2X10043   6.457   5.901   6.931  1.3447  1.5510 -2.2313
  100SAPS   H2Y10044   6.622   5.854   6.901  0.1505 -0.6983 -2.0392
  100SAPS   C2310045   6.125   6.120   6.918  0.0012 -0.0555  0.3677
  100SAPS   H3R10046   6.186   6.049   6.977  1.4133  0.6125 -0.2509
  100SAPS   H3S10047   6.038   6.145   6.983 -0.4676 -0.5259 -0.0599
  100SAPS   C2410048   6.189   6.254   6.882  0.0046  0.2709 -0.3638
  100SAPS   H4R10049   6.210   6.310   6.975 -2.1843  1.6151 -0.5906
  100SAPS   H4S10050   6.107   6.309   6.830  0.2422  0.7466 -0.2391
  100SAPS   C2510051   6.301   6.238   6.782 -0.3478  0.5385 -0.1878
  100SAPS   H5R10052   6.276   6.252   6.676  2.7468  1.3253 -0.9363
  100SAPS   C2610053   6.428   6.231   6.813  0.3131 -0.3266  0.0876
  100SAPS   H6R10054   6.504   6.214   6.736  1.5776 -0.6165  1.3631
  100SAPS   C2710055   6.478   6.222   6.956 -0.3654 -0.4287 -0.5395
  100SAPS   H7R10056   6.451   6.127   7.007 -0.2436 -1.1579 -1.8175
  100SAPS   H7S10057   6.442   6.301   7.026  1.5368  0.0521 -0.0285
  100SAPS   C2810058   6.627   6.237   6.950 -0.4438 -0.4657  0.5793
  100SAPS   H8R10059   6.672   6.282   6.860 -2.9363  0.4779 -0.2923
  100SAPS   C2910060   6.712   6.228   7.051  0.0919 -0.2776  0.9598
  100SAPS   H9R10061   6.819   6.218   7.027  0.4789  0.0572  2.4193
  100SAPS  C21010062   6.675   6.176   7.187  0.5779  0.1453 -0.1294
  100SAPS  H10R10063   6.568   6.187   7.213  0.7181  1.1303  0.0611
  100SAPS  H10S10064   6.718   6.250   7.257  0.6737  1.1213 -1.1780
  100SAPS  C21110065   6.725   6.034   7.201 -0.2103  0.4154 -0.3599
  100SAPS  H11R10066   6.752   5.988   7.105 -4.9396 -0.5016 -1.5152
  100SAPS  C21210067   6.742   5.963   7.315  0.9845 -0.0731 -0.3705
  100SAPS  H12R10068   6.772   5.857   7.313 -4.0550 -1.7624  0.0568
  100SAPS  C21310069   6.714   6.007   7.454 -0.2557 -0.3404  0.1702
  100SAPS  H13R10070   6.704   6.118   7.454 -1.3820 -0.4140 -0.8272
  100SAPS  H13S10071   6.812   5.991   7.503 -0.6902 -1.7279  0.6176
  100SAPS  C21410072   6.610   5.942   7.532  0.4841  0.5026 -0.4318
  100SAPS  H14R10073   6.523   5.900   7.481 -1.5233  0.6892  2.5843
  100SAPS  C21510074   6.608   5.944   7.667 -0.0255 -0.2270  0.2845
  100SAPS  H15R10075   6.530   5.884   7.715  1.2031 -1.5530  0.6912
  100SAPS  C21610076   6.711   6.004   7.756  0.0295 -0.4368  0.4101
  100SAPS  H16R10077   6.738   6.108   7.730 -2.8052  0.0260 -1.0278
  100SAPS  H16S10078   6.803   5.941   7.766 -0.7488 -1.6785  0.0266
  100SAPS  C21710079   6.655   6.032   7.907 -0.3595  0.5180  0.4403
  100SAPS  H17R10080   6.573   6.106   7.901  0.6141  1.5067 -2.3168
  100SAPS  H17S10081   6.726   6.091   7.968 -0.9373  2.0188 -0.2961
  100SAPS  C21810082   6.605   5.903   7.976 -0.2782  0.0415 -0.1277
  100SAPS  H18R10083   6.642   5.808   7.932  1.3934  1.5958 -2.2942
  100SAPS  H18S10084   6.495   5.903   7.961  0.0657  1.7187 -3.6675
  100SAPS  C21910085   6.648   5.898   8.125 -0.3988  0.9072  0.4038
  100SAPS  H19R10086   6.563   5.844   8.171 -0.3985 -0.1970 -0.8381
  100SAPS  H19S10087   6.646   6.003   8.162 -2.5285  0.9723  0.2138
  100SAPS  C22010088   6.775   5.819   8.159  0.4234  0.2108 -0.3530
  100SAPS  H20R10089   6.762   5.710   8.144  3.5325 -0.6704  2.2820
  100SAPS  H20S10090   6.794   5.828   8.268 -3.8873 -1.7796  0.7853
  100SAPS  H20T10091   6.857   5.859   8.095  0.4662  0.5010 -0.1204
  100SAPS   C3310092   6.509   5.685   6.965  0.1240  0.6391 -0.6078
  100SAPS   H3X10093   6.564   5.604   6.913 -1.5940 -1.2337  0.3620
  100SAPS   H3Y10094   6.405   5.646   6.970  0.1935  0.3860 -1.0661
  100SAPS   C3410095   6.562   5.697   7.114 -0.2808 -0.1549 -0.0883
  100SAPS   H4X10096   6.534   5.798   7.150  0.8934 -0.2668  1.1771
  100SAPS   H4Y10097   6.672   5.689   7.104 -0.2043 -0.6156  0.9724
  100SAPS   C3510098   6.512   5.600   7.216  0.0507 -0.0566 -0.3058
  100SAPS   H5X10099   6.523   5.492   7.196 -2.7372 -0.9063  2.0491
  100SAPS   H5Y10100   6.401   5.606   7.219 -0.2138 -3.1956  2.5036
  100SAPS   C3610101   6.574   5.641   7.353  0.1941  0.3620 -0.2892
  100SAPS   H6X10102   6.546   5.748   7.359 -0.7891  0.1299 -0.5295
  100SAPS   H6Y10103   6.683   5.621   7.347 -0.0997 -1.2597 -0.7739
  100SAPS   C3710104   6.515   5.550   7.469  0.2820 -0.1326 -0.3114
  100SAPS   H7X10105   6.562   5.450   7.470 -0.5320 -0.5569  1.6286
  100SAPS   H7Y10106   6.406   5.551   7.447  0.6404 -1.2980 -2.3064
  100SAPS   C3810107   6.505   5.619   7.611 -0.1311  0.1285  0.4994
  100SAPS   H8X10108   6.453   5.717   7.601 -2.6824 -1.0689  1.3149
  100SAPS   H8Y10109   6.613   5.642   7.628 -0.2770  1.8247 -0.5232
  100SAPS   C3910110   6.438   5.538   7.715 -0.5402  0.8041 -0.2288
  100SAPS   H9X10111   6.467   5.433   7.693 -0.6625  0.8140 -0.4377
  100SAPS   H9Y10112   6.327   5.539   7.714 -0.7170 -2.9950  0.9726
  100SAPS  C31010113   6.486   5.565   7.855  0.3801  0.1166 -0.0637
  100SAPS  H10X10114   6.450   5.668   7.879  0.2068  0.3257 -1.1576
  100SAPS  H10Y10115   6.597   5.570   7.863  0.2123  0.7278  3.1233
  100SAPS  C31110116   6.438   5.479   7.977  0.1415 -0.1163  0.9963
  100SAPS  H11X10117   6.471   5.376   7.953 -0.1822 -0.2129  0.9565
  100SAPS  H11Y10118   6.327   5.477   7.976  0.1282  0.6856  0.5257
  100SAPS  C31210119   6.487   5.529   8.110 -0.7832 -0.4339 -0.1946
  100SAPS  H12X10120   6.451   5.633   8.121  1.7007  0.4024  0.6568
  100SAPS  H12Y10121   6.597   5.547   8.111 -0.8412 -0.0720 -0.2772
  100SAPS  C31310122   6.452   5.435   8.226 -0.0834 -0.6612  0.0292
  100SAPS  H13X10123   6.490   5.334   8.200  2.6866  0.2078  0.4215
  100SAPS  H13Y10124   6.341   5.433   8.233 -0.1261 -1.0560 -0.6442
  100SAPS  C31410125   6.526   5.474   8.360 -0.2020 -0.0604  0.3808
  100SAPS  H14X10126   6.629   5.431   8.352  0.8832  2.3127  0.7816
  100SAPS  H14Y10127   6.472   5.412   8.435 -1.1485 -1.9886 -1.7589
  100SAPS  C31510128   6.539   5.624   8.392  0.2323 -0.1283  0.2907
  100SAPS  H15X10129   6.444   5.673   8.361  0.0861 -1.7098 -2.0920
  100SAPS  H15Y10130   6.617   5.670   8.327  2.2166 -2.8146  0.5585
  100SAPS  C31610131   6.569   5.653   8.543 -0.9056 -0.7167 -0.2243
  100SAPS  H16X10132   6.471   5.642   8.595 -0.8586 -0.5488 -0.1010
  100SAPS  H16Y10133   6.606   5.757   8.536  1.4810 -1.4199  0.9055
  100SAPS  C31710134   6.660   5.549   8.612 -0.0009 -0.3892  1.1434
  100SAPS  H17X10135   6.738   5.529   8.535 -1.3898  0.4360 -0.5651
  100SAPS  H17Y10136   6.600   5.461   8.646  0.9845 -1.4012  0.3432
  100SAPS  C31810137   6.735   5.615   8.728  0.3940 -0.0686  0.0929
  100SAPS  H18X10138   6.804   5.694   8.692 -0.6390  0.8748  0.1297
  100SAPS  H18Y10139   6.803   5.544   8.780  0.6584 -0.1349 -0.3368
  100SAPS  H18Z10140   6.657   5.659   8.794  0.3179  0.6676 -0.4820
  101OSM      N10141   5.751   4.005  10.996  0.8267 -0.2963  0.3663
  101OSM    C1510142   5.755   4.154  10.994  0.6582 -0.3180 -0.0886
  101OSM   H15A10143   5.657   4.197  10.981  0.7090  1.3389  3.6239
  101OSM   H15B10144   5.820   4.194  10.918  1.3694 -0.0871  0.6196
  101OSM   H15C10145   5.786   4.189  11.092 -1.4774  0.2476  0.4278
  101OSM    C1410146   5.883   3.956  11.044 -0.8523 -0.1973  0.2602
  101OSM   H14A10147   5.897   3.850  11.028 -2.8503 -0.5536  0.5633
  101OSM   H14B10148   5.902   3.975  11.149  1.6856 -0.8509 -0.0151
  101OSM   H14C10149   5.967   4.003  10.995  0.4815  0.5408  3.0257
  101OSM    C1310150   5.652   3.956  11.097 -0.4923  0.0186  0.0783
  101OSM   H13A10151   5.549   3.964  11.066 -0.5138  0.6779  0.2988
  101OSM   H13B10152   5.667   4.016  11.185  1.3163  0.9871 -0.8421
  101OSM   H13C10153   5.669   3.851  11.115  1.1612 -0.1003 -1.8339
  101OSM    C1210154   5.736   3.949  10.853 -0.2864  0.1340  0.8097
  101OSM   H12A10155   5.809   4.005  10.795 -0.9653  2.1404  1.7872
  101OSM   H12B10156   5.641   3.985  10.816 -0.0512 -1.2521 -1.2711
  101OSM    C1110157   5.759   3.804  10.827 -0.8115 -0.0467 -0.0353
  101OSM   H11A10158   5.701   3.801  10.733 -0.7826  1.4278 -0.1224
  101OSM   H11B10159   5.704   3.736  10.895 -1.2429  0.9617  0.6508
  101OSM      P10160   5.968   3.656  10.845 -0.2904 -0.5520  0.2186
  101OSM    O1310161   6.079   3.704  10.933  0.3224  0.3629 -0.3319
  101OSM    O1410162   5.872   3.547  10.883  0.4710 -0.2725 -0.3948
  101OSM    O1110163   6.045   3.608  10.710  0.0966 -0.0762  0.4187
  101OSM    O1210164   5.893   3.783  10.789  0.1537 -0.0260 -0.0415
  101OSM    C1S10165   5.966   3.566  10.592  0.4701 -0.1508  0.3233
  101OSM    H1S10166   5.881   3.509  10.636  0.5542 -0.1033  0.5464
  101OSM    H1T10167   6.030   3.501  10.528 -1.3633 -1.8998  0.1658
  101OSM     NF10168   5.849   3.639  10.380 -0.3623  0.1207 -0.6487
  101OSM    HNF10169   5.881   3.659  10.288 -2.0277  0.8378 -1.0917
  101OSM    C2S10170   5.921   3.686  10.501 -0.8340  0.2833  0.0328
  101OSM    H2S10171   5.853   3.741  10.569 -1.9027 -1.2391  0.2365
  101OSM    C3S10172   6.037   3.781  10.469  0.3184 -0.1937  0.2464
  101OSM    H3S10173   6.119   3.717  10.429 -1.5721 -3.1017  0.6785
  101OSM     O310174   6.075   3.862  10.580  0.0141 -0.3476 -0.9371
  101OSM    HO310175   6.027   3.826  10.655  0.5210 -0.9178 -0.8796
  101OSM    C4S10176   5.996   3.870  10.356 -0.4989  0.2952  0.3668
  101OSM    H4S10177   6.047   3.850  10.261  0.8971  2.2378  0.6498
  101OSM    C5S10178   5.912   3.978  10.360 -0.1757 -0.1153 -0.0297
  101OSM    H5S10179   5.885   4.021  10.457  1.2475  2.8831 -0.8421
  101OSM    C6S10180   5.876   4.065  10.239 -0.1529 -0.3349 -0.6128
  101OSM    H6S10181   5.902   4.169  10.265  0.1785 -0.4005 -0.6811
  101OSM    H6T10182   5.765   4.070  10.238 -0.3103  1.2867  3.7159
  101OSM    C7S10183   5.926   4.018  10.101 -0.6219  0.0141 -0.1374
  101OSM    H7S10184   5.896   3.912  10.086  1.2862 -0.3472 -1.8516
  101OSM    H7T10185   6.036   4.037  10.097 -0.5997 -0.2432 -0.7698
  101OSM    C8S10186   5.865   4.105   9.989 -0.0860  0.3941  0.3901
  101OSM    H8S10187   5.895   4.212   9.991 -1.8375  0.9199 -0.1413
  101OSM    H8T10188   5.755   4.107   9.995 -0.1357 -0.1155 -0.2627
  101OSM    C9S10189   5.888   4.048   9.846  0.0658 -0.4173  0.7502
  101OSM    H9S10190   5.848   3.944   9.847  0.5113 -0.5959  1.9634
  101OSM    H9T10191   5.998   4.044   9.831  0.1997  1.1512  1.1264
  101OSM   C10S10192   5.834   4.138   9.735  0.5056  0.2205 -0.0650
  101OSM   H10S10193   5.871   4.242   9.745 -2.1025  1.2477 -0.3847
  101OSM   H10T10194   5.724   4.142   9.740  0.3167 -3.1342  1.0364
  101OSM   C11S10195   5.858   4.082   9.598  0.2132 -0.0034  0.3801
  101OSM   H11S10196   5.825   3.976   9.589 -2.8928  0.9132 -0.3574
  101OSM   H11T10197   5.967   4.090   9.580 -0.1673  0.0510 -2.2111
  101OSM   C12S10198   5.806   4.155   9.478  0.4327 -0.2910  0.1676
  101OSM   H12S10199   5.815   4.265   9.495 -3.5708  0.1276  0.6155
  101OSM   H12T10200   5.700   4.142   9.450  0.6924  2.7649 -2.9502
  101OSM   C13S10201   5.892   4.135   9.352 -0.6599 -0.6168  0.3999
  101OSM   H13S10202   5.891   4.026   9.330  2.4291 -0.5039 -0.8203
  101OSM   H13T10203   5.993   4.160   9.391 -0.0855 -1.4535 -0.5270
  101OSM   C14S10204   5.848   4.225   9.240  0.0353 -0.6746  0.3151
  101OSM   H14S10205   5.888   4.328   9.248 -1.3907 -0.0763  0.1375
  101OSM   H14T10206   5.737   4.222   9.234  0.1005 -1.1084 -1.0573
  101OSM   C15S10207   5.907   4.185   9.100 -0.0886  0.3294 -1.0424
  101OSM   H15S10208   5.892   4.077   9.077 -0.6381  0.1423  0.1397
  101OSM   H15T10209   6.018   4.189   9.095 -0.0501 -0.8536 -1.5082
  101OSM   C16S10210   5.853   4.274   8.982 -0.4381 -0.2912 -0.6820
  101OSM   H16S10211   5.864   4.381   9.006  1.8889  0.0486 -2.8463
  101OSM   H16T10212   5.743   4.267   8.967 -0.9275  2.2838  1.0730
  101OSM   C17S10213   5.926   4.245   8.847  0.1210  0.0235 -0.6744
  101OSM   H17S10214   5.884   4.145   8.823 -0.2292  0.2728 -1.1212
  101OSM   H17T10215   6.037   4.240   8.850  0.1188  0.2484  1.5590
  101OSM   C18S10216   5.883   4.340   8.729 -0.8040  0.2252 -0.4370
  101OSM   H18S10217   5.912   4.295   8.632 -1.2843 -2.0402  0.4029
  101OSM   H18T10218   5.929   4.441   8.730 -1.3432  0.4815  0.5698
  101OSM   H18U10219   5.772   4.343   8.727 -0.9482 -2.3971 -2.9086
  101OSM    C1F10220   5.745   3.552  10.389  0.2769 -0.1680  0.0558
  101OSM     OF10221   5.673   3.562  10.492  0.0705 -0.1204  0.1442
  101OSM    C2F10222   5.715   3.450  10.279 -0.2338 -0.8583  0.8502
  101OSM    H2F10223   5.671   3.359  10.325 -2.2679 -1.2335 -1.6008
  101OSM    H2G10224   5.809   3.419  10.229 -0.9737 -1.0851 -0.4494
  101OSM    C3F10225   5.619   3.508  10.166  0.0198 -0.0890  0.0570
  101OSM    H3F10226   5.675   3.590  10.116 -0.7333  0.0005 -0.6686
  101OSM    H3G10227   5.523   3.549  10.204 -0.1784 -0.0977 -0.4243
  101OSM    C4F10228   5.576   3.400  10.063  0.7376  0.6023 -0.6603
  101OSM    H4F10229   5.514   3.334  10.127 -0.9599  1.9380 -0.8298
  101OSM    H4G10230   5.660   3.343  10.020  0.3305 -0.5508  0.0473
  101OSM    C5F10231   5.491   3.457   9.951 -1.0951  0.7809 -0.3944
  101OSM    H5F10232   5.554   3.530   9.895  0.9551 -0.4177  0.2520
  101OSM    H5G10233   5.397   3.502   9.991 -0.9053  1.4629 -0.7078
  101OSM    C6F10234   5.461   3.344   9.857 -0.7714  0.0941  0.2828
  101OSM    H6F10235   5.404   3.263   9.907  0.3051 -1.9146 -1.5701
  101OSM    H6G10236   5.562   3.311   9.825  0.5933  2.5107  1.7512
  101OSM    C7F10237   5.379   3.399   9.737 -0.2442 -0.4636 -0.5033
  101OSM    H7F10238   5.433   3.487   9.699  3.3632 -0.9092  2.9314
  101OSM    H7G10239   5.279   3.430   9.776 -0.0263  0.3151 -0.5675
  101OSM    C8F10240   5.362   3.293   9.630 -0.0052  0.4267  0.3182
  101OSM    H8F10241   5.355   3.198   9.686  3.3143  0.6980  1.3922
  101OSM    H8G10242   5.460   3.291   9.579  0.7466 -0.0870  1.7471
  101OSM    C9F10243   5.242   3.316   9.540  0.8091 -1.1367  0.0005
  101OSM    H9F10244   5.152   3.300   9.602 -0.3552 -0.7964 -1.5388
  101OSM   C10F10245   5.237   3.338   9.410  0.9322 -0.8792  0.4152
  101OSM   H10F10246   5.146   3.372   9.359  0.7888 -0.9585  0.6120
  101OSM   C11F10247   5.351   3.348   9.318  0.3729 -0.1382 -0.0549
  101OSM   H11F10248   5.403   3.250   9.308  0.9139 -0.0408  1.5869
  101OSM   H11G10249   5.420   3.422   9.364 -0.5388  0.3887  0.4820
  101OSM   C12F10250   5.313   3.399   9.176  0.0986  0.2292 -0.7309
  101OSM   H12F10251   5.248   3.489   9.186 -0.4157 -0.2513  0.4284
  101OSM   H12G10252   5.260   3.315   9.126 -1.7542  0.6927  0.3340
  101OSM   C13F10253   5.426   3.447   9.095  0.1713 -0.2029 -0.1360
  101OSM   H13F10254   5.507   3.371   9.090  0.5069  0.2063 -1.3889
  101OSM   H13G10255   5.470   3.534   9.149 -2.4979 -0.4322  2.6925
  101OSM   C14F10256   5.389   3.485   8.951 -0.2504  0.0893  0.5458
  101OSM   H14F10257   5.290   3.535   8.954 -0.3130  0.1431 -1.3579
  101OSM   H14G10258   5.369   3.386   8.904  0.1806 -0.2930  1.1542
  101OSM   C15F10259   5.500   3.568   8.884  0.4902  0.6457 -0.2700
  101OSM   H15F10260   5.551   3.629   8.961  0.4008 -0.7361  0.9365
  101OSM   H15G10261   5.443   3.635   8.816  0.3160  0.3403 -0.4322
  101OSM   C16F10262   5.606   3.483   8.810  1.1874 -0.1322  0.0834
  101OSM   H16F10263   5.546   3.420   8.741 -1.1302  1.4786  0.4961
  101OSM   H16G10264   5.651   3.417   8.887 -0.5315 -1.1359  0.2611
  101OSM   C17F10265   5.698   3.556   8.719  0.6233  0.2784 -0.6381
  101OSM   H17F10266   5.787   3.489   8.710 -0.2985 -0.9796 -0.7065
  101OSM   H17G10267   5.736   3.652   8.759 -0.5943  0.8044 -0.7191
  101OSM   C18F10268   5.645   3.589   8.582 -0.2058  0.2960  0.0803
  101OSM   H18F10269   5.598   3.496   8.545  1.6678 -1.5327  2.0456
  101OSM   H18G10270   5.731   3.616   8.516 -0.8417 -0.9254 -1.3017
  101OSM   H18H10271   5.563   3.664   8.577 -0.3569  0.0866 -0.6998
  102OSM      N10272   5.028   5.065  11.004 -0.9100  0.6269 -0.0807
  102OSM    C1510273   5.163   5.017  11.037  0.6219  0.4330 -0.1005
  102OSM   H15A10274   5.160   4.963  11.130 -0.8980  4.1595  2.2358
  102OSM   H15B10275   5.229   5.101  11.054  1.7016 -0.5472  0.6819
  102OSM   H15C10276   5.206   4.956  10.959 -3.4032 -2.2492 -0.5221
  102OSM    C1410277   4.949   4.952  10.935  0.5988  0.7442  0.5619
  102OSM   H14A10278   4.852   4.996  10.915  1.7900  2.3405 -2.2033
  102OSM   H14B10279   4.951   4.861  10.992 -0.0059  0.0940 -0.4394
  102OSM   H14C10280   4.986   4.929  10.837  1.1718 -0.6766  1.0888
  102OSM    C1310281   4.956   5.105  11.131  0.3266  0.0833 -0.0967
  102OSM   H13A10282   4.928   5.019  11.191  0.3618  0.1150 -0.0353
  102OSM   H13B10283   4.865   5.154  11.100 -1.0601 -2.4125 -0.3140
  102OSM   H13C10284   5.019   5.168  11.192 -1.2498  1.9939 -0.3448
  102OSM    C1210285   5.045   5.178  10.902  0.8707 -0.1714  0.5428
  102OSM   H12A10286   5.116   5.244  10.950 -1.3137  1.8124  1.2219
  102OSM   H12B10287   4.956   5.238  10.889  0.8131  0.2281  2.5170
  102OSM    C1110288   5.105   5.151  10.756 -0.3851 -0.5915  0.5090
  102OSM   H11A10289   5.080   5.237  10.690 -2.4012 -1.6056 -0.1265
  102OSM   H11B10290   5.061   5.059  10.712  0.2910  0.9914 -3.9293
  102OSM      P10291   5.358   5.235  10.811 -0.1394 -0.1102  0.2921
  102OSM    O1310292   5.296   5.364  10.848  0.6371 -0.4834 -0.4836
  102OSM    O1410293   5.444   5.169  10.911 -0.3127 -0.2037  0.1051
  102OSM    O1110294   5.441   5.256  10.688 -0.4859 -0.1551  0.1355
  102OSM    O1210295   5.247   5.140  10.760 -0.1331 -0.3397 -0.1740
  102OSM    C1S10296   5.435   5.156  10.584 -0.2019  0.3660  0.7819
  102OSM    H1S10297   5.332   5.145  10.545  0.0721 -0.7108  0.3284
  102OSM    H1T10298   5.443   5.053  10.624 -0.2195 -0.0854 -0.3580
  102OSM     NF10299   5.547   5.038  10.399  0.0660  0.0847  0.5445
  102OSM    HNF10300   5.613   4.972  10.434  0.4587  0.0836 -0.1844
  102OSM    C2S10301   5.537   5.170  10.464  0.1978 -0.6816  0.8301
  102OSM    H2S10302   5.497   5.250  10.398  0.1355 -1.8949 -0.6535
  102OSM    C3S10303   5.676   5.218  10.513 -0.0363 -0.4144 -0.5312
  102OSM    H3S10304   5.704   5.146  10.593 -1.6066  0.4702  0.8771
  102OSM     O310305   5.671   5.347  10.583  0.4263  0.1766 -0.0623
  102OSM    HO310306   5.584   5.343  10.624  0.1227  0.9789 -0.6102
  102OSM    C4S10307   5.767   5.212  10.395 -0.5205 -0.2046 -0.4321
  102OSM    H4S10308   5.723   5.256  10.305  0.6111 -1.3640 -1.5875
  102OSM    C5S10309   5.891   5.160  10.389  0.3082 -0.4780 -0.2048
  102OSM    H5S10310   5.934   5.113  10.478  0.5661 -0.5226 -0.3512
  102OSM    C6S10311   5.956   5.162  10.250  1.0504 -0.0533 -0.2171
  102OSM    H6S10312   6.036   5.085  10.239  1.7031  0.7816 -1.4993
  102OSM    H6T10313   6.003   5.262  10.237 -0.2097  0.4060 -1.4088
  102OSM    C7S10314   5.860   5.130  10.132  0.5985  0.5799 -0.0739
  102OSM    H7S10315   5.776   5.202  10.122 -0.9513 -1.1199  0.1883
  102OSM    H7T10316   5.821   5.040  10.183 -0.3346  1.0122 -0.0219
  102OSM    C8S10317   5.927   5.099   9.995 -0.3368 -0.1536  0.3956
  102OSM    H8S10318   5.854   5.068   9.918  1.4518 -1.5975 -0.8068
  102OSM    H8T10319   5.992   5.010  10.007  0.4347  0.4498  0.7942
  102OSM    C9S10320   5.999   5.223   9.935 -0.8360  0.3673  0.4297
  102OSM    H9S10321   6.093   5.240   9.991  0.3568 -1.0237 -1.0502
  102OSM    H9T10322   5.932   5.311   9.920 -0.0570  0.6304 -1.7525
  102OSM   C10S10323   6.035   5.199   9.781  0.2632  0.3950 -0.1031
  102OSM   H10S10324   6.106   5.113   9.784  0.8255  0.8745  2.2304
  102OSM   H10T10325   6.098   5.285   9.748  0.7686 -0.0400 -0.2948
  102OSM   C11S10326   5.919   5.191   9.676  0.0211 -0.5600 -0.5619
  102OSM   H11S10327   5.837   5.263   9.697 -0.0648 -0.9951  0.6499
  102OSM   H11T10328   5.881   5.086   9.676  1.2012 -1.0528  1.7256
  102OSM   C12S10329   5.976   5.211   9.535  0.1463  0.5862  0.3323
  102OSM   H12S10330   6.057   5.135   9.520 -2.3227 -1.8020 -2.1442
  102OSM   H12T10331   6.026   5.309   9.526  1.1537  0.0211 -0.4358
  102OSM   C13S10332   5.878   5.203   9.427  0.2690  0.9326  0.4898
  102OSM   H13S10333   5.786   5.254   9.462 -1.0823 -1.6181  0.8835
  102OSM   H13T10334   5.855   5.095   9.415 -0.1715  1.0083  0.6207
  102OSM   C14S10335   5.914   5.262   9.285  0.0945 -0.4304 -0.3154
  102OSM   H14S10336   5.924   5.373   9.282  0.2676 -0.4697 -1.4463
  102OSM   H14T10337   5.835   5.232   9.213  0.6205  0.1690 -1.1612
  102OSM   C15S10338   6.047   5.190   9.240  0.7646  0.2767  0.6463
  102OSM   H15S10339   6.061   5.087   9.279  0.9167 -0.0639 -0.2828
  102OSM   H15T10340   6.125   5.249   9.292  0.9136 -1.1283  2.0613
  102OSM   C16S10341   6.078   5.195   9.087  0.5183  0.4550 -0.3491
  102OSM   H16S10342   6.040   5.292   9.049  0.7829  0.0613 -1.6678
  102OSM   H16T10343   6.024   5.112   9.036  2.4440 -0.9546 -0.2178
  102OSM   C17S10344   6.225   5.196   9.045 -0.0785  0.0460  0.0090
  102OSM   H17S10345   6.264   5.092   9.050 -0.7407 -0.1658  1.4596
  102OSM   H17T10346   6.283   5.256   9.118 -1.8733 -0.5565  2.0469
  102OSM   C18S10347   6.233   5.235   8.899 -0.7010  0.1263  0.6791
  102OSM   H18S10348   6.196   5.336   8.872  0.7675  0.3899 -0.5241
  102OSM   H18T10349   6.178   5.159   8.840 -1.4273 -1.6385  3.4843
  102OSM   H18U10350   6.339   5.235   8.866 -0.4504 -1.3102  1.4142
  102OSM    C1F10351   5.450   4.993  10.329  0.6085  0.7158 -0.2839
  102OSM     OF10352   5.356   5.070  10.313  0.5624  0.4532 -0.1832
  102OSM    C2F10353   5.460   4.863  10.269  0.4805  0.4592  0.2717
  102OSM    H2F10354   5.392   4.788  10.315  3.1055 -1.0080  2.0707
  102OSM    H2G10355   5.564   4.825  10.282  2.2910  4.4738 -0.9883
  102OSM    C3F10356   5.425   4.869  10.120 -0.0889  0.4575  0.0486
  102OSM    H3F10357   5.336   4.934  10.104  2.2954  3.4973 -2.0412
  102OSM    H3G10358   5.413   4.767  10.078  2.5043  0.2524 -0.3535
  102OSM    C4F10359   5.528   4.931  10.025 -0.1528 -0.4243  0.3642
  102OSM    H4F10360   5.631   4.891  10.041  0.5926  0.0110 -2.6629
  102OSM    H4G10361   5.524   5.042  10.036  1.4700 -0.2476 -0.5179
  102OSM    C5F10362   5.494   4.911   9.874  0.1048 -0.2806 -0.7147
  102OSM    H5F10363   5.386   4.936   9.866 -0.1230 -0.5598  0.9833
  102OSM    H5G10364   5.506   4.803   9.851 -0.2550 -0.7036  0.9347
  102OSM    C6F10365   5.579   5.001   9.785 -0.1684 -0.5166 -0.2078
  102OSM    H6F10366   5.679   5.024   9.827 -1.1589  3.5167  0.3727
  102OSM    H6G10367   5.534   5.102   9.772  1.4548  0.1934 -0.4612
  102OSM    C7F10368   5.590   4.953   9.639 -0.1763  0.7743  0.2099
  102OSM    H7F10369   5.651   4.861   9.652 -1.1869  0.3967  2.9895
  102OSM    H7G10370   5.660   5.024   9.591  1.4144  0.1078  1.4492
  102OSM    C8F10371   5.459   4.921   9.570 -0.0962 -0.1224 -0.6240
  102OSM    H8F10372   5.400   4.846   9.626  0.4427 -0.9768 -1.1831
  102OSM    H8G10373   5.481   4.864   9.478 -0.0614 -0.5620 -0.3494
  102OSM    C9F10374   5.385   5.053   9.537  0.4737 -0.2398  0.7271
  102OSM    H9F10375   5.331   5.095   9.623 -1.3365  1.2213 -1.0436
  102OSM   C10F10376   5.372   5.107   9.417  0.1703  0.2160 -0.2932
  102OSM   H10F10377   5.317   5.200   9.397  0.6058  0.7805  1.0403
  102OSM   C11F10378   5.429   5.053   9.297 -0.3112 -0.1648 -0.4980
  102OSM   H11F10379   5.386   5.112   9.212  0.4604 -1.2077 -1.6518
  102OSM   H11G10380   5.410   4.946   9.273 -2.0403  0.4567 -2.2077
  102OSM   C12F10381   5.584   5.074   9.287  0.0470 -0.1811  0.5071
  102OSM   H12F10382   5.638   5.011   9.360  0.3805  0.3137  0.6968
  102OSM   H12G10383   5.604   5.182   9.306 -0.1079 -0.1315  0.3864
  102OSM   C13F10384   5.634   5.041   9.144 -0.0368  0.0001  0.4725
  102OSM   H13F10385   5.600   4.938   9.119  0.9735 -0.6363  1.6448
  102OSM   H13G10386   5.743   5.022   9.151 -0.2718 -2.3333 -0.9417
  102OSM   C14F10387   5.599   5.140   9.032 -0.2537 -0.8035 -0.7383
  102OSM   H14F10388   5.618   5.238   9.080  0.4918 -1.3978  0.2271
  102OSM   H14G10389   5.492   5.127   9.005 -0.0918 -1.2140 -1.2066
  102OSM   C15F10390   5.677   5.123   8.900 -0.3729 -0.7112 -0.2588
  102OSM   H15F10391   5.785   5.132   8.923 -0.3026  1.3679 -1.1571
  102OSM   H15G10392   5.646   5.205   8.832  0.6363  1.0082  1.2449
  102OSM   C16F10393   5.644   4.992   8.824  0.1150 -0.4845  0.2452
  102OSM   H16F10394   5.534   4.975   8.830 -0.0053 -0.5779 -1.5434
  102OSM   H16G10395   5.699   4.910   8.875  3.2916  1.2474 -0.1393
  102OSM   C17F10396   5.681   4.995   8.674 -0.5586  0.4940  0.8674
  102OSM   H17F10397   5.630   5.077   8.618 -0.5563 -0.0201  0.0942
  102OSM   H17G10398   5.652   4.900   8.624 -1.9534  1.2422  0.1852
  102OSM   C18F10399   5.834   5.008   8.652 -0.0869 -0.5397  0.0044
  102OSM   H18F10400   5.856   4.959   8.555 -4.9810 -3.4310  0.0024
  102OSM   H18G10401   5.886   4.972   8.744  0.0864  1.2792  0.6588
  102OSM   H18H10402   5.844   5.116   8.632 -0.9959 -0.2774  0.8358
  103OSM      N10403   6.406   0.375  11.072  0.3073  0.5465  0.1893
  103OSM    C1510404   6.410   0.372  11.220  0.2040 -0.1270  0.2978
  103OSM   H15A10405   6.310   0.391  11.255  0.0409  1.7813 -1.0690
  103OSM   H15B10406   6.479   0.445  11.258  0.5130  0.0477 -0.5697
  103OSM   H15C10407   6.438   0.275  11.259  1.8032  0.5214  0.8073
  103OSM    C1410408   6.412   0.514  11.026 -0.1052 -0.6234  0.3382
  103OSM   H14A10409   6.423   0.519  10.919 -1.1547 -0.8687  0.2065
  103OSM   H14B10410   6.502   0.564  11.057 -0.7666  0.4062  0.6432
  103OSM   H14C10411   6.321   0.568  11.048 -0.7646 -1.0655 -1.1296
  103OSM    C1310412   6.525   0.293  11.024 -0.2015  0.5009  0.5290
  103OSM   H13A10413   6.616   0.322  11.074  0.2377 -1.5971  1.0255
  103OSM   H13B10414   6.539   0.301  10.917 -2.2086 -0.5483  0.1500
  103OSM   H13C10415   6.495   0.194  11.057 -0.4038 -1.0193 -3.5825
  103OSM    C1210416   6.279   0.307  11.017  0.1012  0.7395  0.2219
  103OSM   H12A10417   6.200   0.380  11.030 -0.6947 -0.1990  0.7487
  103OSM   H12B10418   6.239   0.225  11.074  0.6950 -0.0738 -0.5107
  103OSM    C1110419   6.269   0.277  10.862  0.2707 -0.7513 -1.1854
  103OSM   H11A10420   6.173   0.224  10.843 -1.9180  2.5389 -0.1034
  103OSM   H11B10421   6.349   0.206  10.830  0.4947 -1.6804  1.2135
  103OSM      P10422   6.163   0.508  10.768  0.4247 -0.1748 -0.0979
  103OSM    O1310423   6.084   0.517  10.895 -0.7387 -0.5916 -0.1111
  103OSM    O1410424   6.235   0.629  10.733  0.2929 -0.5540  0.1117
  103OSM    O1110425   6.069   0.445  10.649  0.0130 -0.2181 -0.6652
  103OSM    O1210426   6.280   0.396  10.784  0.2794  0.0308  0.1375
  103OSM    C1S10427   6.134   0.372  10.542  0.2051  1.1898  0.3538
  103OSM    H1S10428   6.136   0.264  10.569 -1.5964  1.3199  1.1593
  103OSM    H1T10429   6.238   0.405  10.524  0.0603  0.9398 -1.0910
  103OSM     NF10430   6.125   0.321  10.305 -0.5385 -0.2507  0.0863
  103OSM    HNF10431   6.179   0.369  10.236 -0.5344 -0.0886  0.2023
  103OSM    C2S10432   6.061   0.394  10.405  0.8842 -0.6858  0.0401
  103OSM    H2S10433   5.960   0.352  10.424  0.4753  0.9820  1.8679
  103OSM    C3S10434   6.048   0.542  10.370 -0.3729  0.4086 -0.8534
  103OSM    H3S10435   6.151   0.581  10.355 -0.6813  0.7915 -2.0793
  103OSM     O310436   5.997   0.629  10.477 -0.3906  0.2186  0.8240
  103OSM    HO310437   6.020   0.574  10.552 -0.3816 -1.6672 -0.4750
  103OSM    C4S10438   5.971   0.550  10.243  0.0927  0.2542 -0.9975
  103OSM    H4S10439   6.034   0.575  10.156  1.5620 -0.5514 -0.2020
  103OSM    C5S10440   5.838   0.539  10.221  0.3587  0.1967  0.4260
  103OSM    H5S10441   5.773   0.526  10.309 -0.4110  0.3163 -0.1208
  103OSM    C6S10442   5.768   0.556  10.089 -0.5665  0.0238 -0.3074
  103OSM    H6S10443   5.755   0.665  10.071 -0.4093 -0.1814 -1.8620
  103OSM    H6T10444   5.670   0.505  10.085 -0.1767 -0.6933 -1.6148
  103OSM    C7S10445   5.846   0.495   9.963 -0.4475 -0.6593 -0.1496
  103OSM    H7S10446   5.841   0.384   9.966 -0.9582 -0.6540  3.1131
  103OSM    H7T10447   5.947   0.540   9.976 -0.6958  0.0811 -0.7667
  103OSM    C8S10448   5.793   0.529   9.813 -0.0860  0.3479  0.1039
  103OSM    H8S10449   5.697   0.481   9.783  0.5493 -0.3417 -0.8984
  103OSM    H8T10450   5.871   0.492   9.743  1.4663  1.0976  1.3748
  103OSM    C9S10451   5.767   0.675   9.777  0.2128 -0.4163 -0.6510
  103OSM    H9S10452   5.865   0.723   9.797 -0.6767  0.8212  0.9927
  103OSM    H9T10453   5.685   0.718   9.839 -0.4833 -1.4692 -0.8031
  103OSM   C10S10454   5.722   0.696   9.625 -0.2281 -0.1866 -0.4321
  103OSM   H10S10455   5.666   0.791   9.607  1.5354  0.9056 -0.4276
  103OSM   H10T10456   5.657   0.609   9.602 -0.3182 -0.1543 -0.3017
  103OSM   C11S10457   5.845   0.680   9.527 -0.0252 -0.1149  0.0540
  103OSM   H11S10458   5.901   0.586   9.544 -1.0942 -0.4508  1.9924
  103OSM   H11T10459   5.920   0.760   9.544 -0.0103 -0.0262 -0.4196
  103OSM   C12S10460   5.804   0.695   9.379  0.1550 -0.4940 -0.4092
  103OSM   H12S10461   5.783   0.803   9.361  1.8396 -0.2068 -0.8665
  103OSM   H12T10462   5.708   0.642   9.362 -1.7106  2.1635  1.0359
  103OSM   C13S10463   5.915   0.630   9.286 -0.5443 -0.5395  0.1108
  103OSM   H13S10464   5.934   0.523   9.312  0.0342 -0.9636 -1.8504
  103OSM   H13T10465   6.010   0.686   9.298 -0.2547 -1.1265  0.6586
  103OSM   C14S10466   5.892   0.648   9.133  0.4353 -0.1055 -0.0749
  103OSM   H14S10467   5.873   0.755   9.112 -0.9470 -0.4343 -0.5931
  103OSM   H14T10468   5.794   0.607   9.101  0.2041 -0.1421  0.6675
  103OSM   C15S10469   6.013   0.600   9.052 -0.8339 -0.2087  0.0434
  103OSM   H15S10470   6.053   0.500   9.082  0.1333  0.0224 -0.4437
  103OSM   H15T10471   6.103   0.663   9.066  1.3178 -2.6860 -1.5498
  103OSM   C16S10472   5.989   0.581   8.901 -0.2074  0.2046  0.2528
  103OSM   H16S10473   5.890   0.535   8.881  0.8059 -1.3446 -1.5565
  103OSM   H16T10474   6.068   0.511   8.866  0.0416  1.2438 -1.4078
  103OSM   C17S10475   6.004   0.716   8.831 -0.4310 -0.4856 -0.3428
  103OSM   H17S10476   6.111   0.743   8.815 -0.3676 -0.4576  0.1359
  103OSM   H17T10477   5.953   0.800   8.881  1.4087  0.4592  0.0536
  103OSM   C18S10478   5.934   0.715   8.693  0.7291  0.4946 -0.5072
  103OSM   H18S10479   5.826   0.697   8.712  1.3567 -1.5140  1.6200
  103OSM   H18T10480   5.967   0.624   8.640 -1.4312 -1.4013  1.1911
  103OSM   H18U10481   5.942   0.804   8.627  0.6420 -0.3628 -1.7060
  103OSM    C1F10482   6.129   0.191  10.308  0.6631 -0.2092 -0.0556
  103OSM     OF10483   6.049   0.123  10.376  0.1717 -0.4351  0.6277
  103OSM    C2F10484   6.232   0.133  10.229 -0.2735 -0.1968 -0.4070
  103OSM    H2F10485   6.291   0.058  10.286  0.2022 -0.8632 -1.7245
  103OSM    H2G10486   6.309   0.209  10.203 -0.0137 -0.5095 -0.5537
  103OSM    C3F10487   6.178   0.081  10.098 -0.0023 -0.0239  1.1245
  103OSM    H3F10488   6.151   0.163  10.028 -0.3787  0.0294  1.3279
  103OSM    H3G10489   6.088   0.017  10.112 -1.3421  1.8248  1.4275
  103OSM    C4F10490   6.284  -0.006  10.016  0.4419 -0.6231  0.0023
  103OSM    H4F10491   6.341  -0.068  10.088  0.7746  1.1003  1.3163
  103OSM    H4G10492   6.373   0.051   9.981 -0.9902  1.8309  0.0713
  103OSM    C5F10493   6.211  -0.085   9.907 -1.2720 -1.2188  0.2883
  103OSM    H5F10494   6.142  -0.024   9.844  0.3377 -1.2108 -1.5487
  103OSM    H5G10495   6.142  -0.155   9.958 -1.1773  1.1100  3.9469
  103OSM    C6F10496   6.315  -0.154   9.811  0.0707 -0.2203 -0.0767
  103OSM    H6F10497   6.384  -0.206   9.880 -1.7664 -0.3804  1.7579
  103OSM    H6G10498   6.374  -0.069   9.770 -1.1592  0.3810 -0.6724
  103OSM    C7F10499   6.251  -0.245   9.709 -0.2266 -0.2822 -0.1427
  103OSM    H7F10500   6.166  -0.198   9.657 -0.2614  0.7943  0.8563
  103OSM    H7G10501   6.225  -0.342   9.758  0.2305 -1.3305 -1.8841
  103OSM    C8F10502   6.354  -0.276   9.592 -0.0657  0.2724  0.6943
  103OSM    H8F10503   6.445  -0.317   9.641  0.7819  0.7139 -0.4701
  103OSM    H8G10504   6.393  -0.192   9.530 -2.6719 -0.0325 -1.5448
  103OSM    C9F10505   6.292  -0.371   9.492 -0.0286  0.5539  0.0291
  103OSM    H9F10506   6.288  -0.478   9.519  1.4791  1.1961  3.2821
  103OSM   C10F10507   6.235  -0.321   9.378 -0.5310 -0.3635  0.1648
  103OSM   H10F10508   6.181  -0.388   9.309 -0.6764 -1.2195  1.0813
  103OSM   C11F10509   6.228  -0.179   9.326  0.0519  0.3550 -0.5857
  103OSM   H11F10510   6.260  -0.109   9.407 -0.0651 -0.1190 -0.1251
  103OSM   H11G10511   6.121  -0.154   9.309 -0.0134 -1.1564 -2.6762
  103OSM   C12F10512   6.316  -0.154   9.202  1.0252  0.1605 -0.3380
  103OSM   H12F10513   6.282  -0.055   9.163 -3.0451 -0.1904  1.7673
  103OSM   H12G10514   6.276  -0.227   9.128  1.6658  1.0713 -1.6241
  103OSM   C13F10515   6.464  -0.167   9.229  0.5104  0.5392  0.1413
  103OSM   H13F10516   6.488  -0.084   9.299 -0.0276  1.2731 -0.5211
  103OSM   H13G10517   6.494  -0.264   9.275 -1.3251  0.2325  0.7699
  103OSM   C14F10518   6.542  -0.151   9.099 -0.7646 -0.3484 -0.1308
  103OSM   H14F10519   6.650  -0.158   9.123 -0.7657 -1.5721 -0.4184
  103OSM   H14G10520   6.533  -0.046   9.062 -0.1030 -1.4334 -3.7646
  103OSM   C15F10521   6.507  -0.252   8.994  0.2698  0.4335 -0.0644
  103OSM   H15F10522   6.399  -0.250   8.970 -0.8422  0.6413  4.2213
  103OSM   H15G10523   6.520  -0.343   9.056  1.5843 -0.0586 -1.0061
  103OSM   C16F10524   6.593  -0.254   8.866  0.1083  0.6898 -0.4698
  103OSM   H16F10525   6.698  -0.280   8.892 -0.6232 -0.9871  1.0353
  103OSM   H16G10526   6.588  -0.151   8.823  0.5429  0.5388 -0.8941
  103OSM   C17F10527   6.554  -0.354   8.756  0.3126 -0.4772  0.0567
  103OSM   H17F10528   6.444  -0.346   8.742  0.2030  1.3363  1.5866
  103OSM   H17G10529   6.569  -0.453   8.802 -0.1977  0.9264  3.5932
  103OSM   C18F10530   6.624  -0.337   8.617  1.1701 -0.1282 -0.3555
  103OSM   H18F10531   6.732  -0.328   8.642  1.0256  0.0188  0.2087
  103OSM   H18G10532   6.590  -0.247   8.561 -1.0519 -0.4461  0.3800
  103OSM   H18H10533   6.611  -0.426   8.552  1.0271 -1.6341  1.6466
  104OSM      N10534   4.354   3.867  10.690 -0.6679  0.3647 -0.3023
  104OSM    C1510535   4.463   3.807  10.769 -0.4852  0.3551 -0.1586
  104OSM   H15A10536   4.440   3.705  10.798  2.4769 -0.0831  0.9194
  104OSM   H15B10537   4.477   3.863  10.860  2.2346  1.4399 -1.1560
  104OSM   H15C10538   4.551   3.795  10.708 -0.5419 -1.4834  0.0499
  104OSM    C1410539   4.412   3.984  10.619  0.2790  0.1980 -0.1010
  104OSM   H14A10540   4.347   4.018  10.539 -1.1492  2.3263  1.8355
  104OSM   H14B10541   4.514   3.955  10.601  0.3194 -2.5489  3.3949
  104OSM   H14C10542   4.420   4.070  10.685  1.3381 -0.1748  0.2790
  104OSM    C1310543   4.316   3.763  10.587  0.0876  0.1658 -0.2869
  104OSM   H13A10544   4.228   3.786  10.529  0.2642 -1.0107 -1.0598
  104OSM   H13B10545   4.276   3.676  10.638 -1.4907 -0.7672 -2.8884
  104OSM   H13C10546   4.400   3.728  10.529 -0.8016 -0.3933 -1.2800
  104OSM    C1210547   4.231   3.905  10.774 -0.3969  0.2404  0.6676
  104OSM   H12A10548   4.192   3.816  10.822  0.1662  0.1582  0.9860
  104OSM   H12B10549   4.164   3.957  10.708  0.3612  0.2746 -0.0883
  104OSM    C1110550   4.257   4.003  10.883 -0.1418  0.6514 -0.9628
  104OSM   H11A10551   4.327   3.954  10.954 -1.1969  0.5398  0.0281
  104OSM   H11B10552   4.166   4.012  10.946  1.1238  2.6431  0.7028
  104OSM      P10553   4.195   4.249  10.810  0.4213  0.0189  0.2471
  104OSM    O1310554   4.081   4.185  10.739 -0.3100 -0.1849 -0.0426
  104OSM    O1410555   4.164   4.333  10.929  0.3006 -0.0291  0.4053
  104OSM    O1110556   4.261   4.347  10.711  0.3846  0.1673 -0.0190
  104OSM    O1210557   4.307   4.132  10.841  0.1660 -0.1906  0.8037
  104OSM    C1S10558   4.395   4.338  10.667  0.3895  0.2229 -0.6675
  104OSM    H1S10559   4.418   4.234  10.635 -0.0239 -0.2207  0.4522
  104OSM    H1T10560   4.456   4.357  10.758 -0.6890 -0.6972  0.2766
  104OSM     NF10561   4.549   4.425  10.484 -1.0920 -0.1779  0.3879
  104OSM    HNF10562   4.637   4.455  10.518 -2.0364  3.3517  0.1142
  104OSM    C2S10563   4.429   4.454  10.565 -0.7938 -0.7753  0.0070
  104OSM    H2S10564   4.345   4.471  10.495 -1.6724 -1.5556  0.8422
  104OSM    C3S10565   4.452   4.589  10.637 -0.1259 -1.0461  0.0682
  104OSM    H3S10566   4.544   4.573  10.697 -2.0375 -0.5471  3.3563
  104OSM     O310567   4.347   4.627  10.726 -0.2757  0.0129  0.1206
  104OSM    HO310568   4.298   4.545  10.725  1.1128 -0.8567  0.8288
  104OSM    C4S10569   4.467   4.698  10.537 -0.5072 -0.0745 -0.4805
  104OSM    H4S10570   4.373   4.737  10.496 -0.7646 -1.3323 -1.1262
  104OSM    C5S10571   4.573   4.770  10.507 -0.4344  0.4887  0.6773
  104OSM    H5S10572   4.665   4.740  10.559  0.0370 -1.3522 -1.0945
  104OSM    C6S10573   4.578   4.882  10.406 -0.1766  0.6765 -0.1364
  104OSM    H6S10574   4.674   4.936  10.393 -0.2671  0.8831  0.0434
  104OSM    H6T10575   4.499   4.953  10.438 -0.8452  1.6423 -3.6136
  104OSM    C7S10576   4.538   4.830  10.266  0.0959  0.7058 -0.4975
  104OSM    H7S10577   4.451   4.761  10.264 -0.2019  1.0831 -0.6095
  104OSM    H7T10578   4.620   4.771  10.219  0.3932  0.7216 -0.0063
  104OSM    C8S10579   4.518   4.958  10.174  0.4174  0.0689  0.1110
  104OSM    H8S10580   4.618   5.007  10.180  0.3397  0.0828  1.7581
  104OSM    H8T10581   4.432   5.010  10.222  0.5496  1.0366 -0.6721
  104OSM    C9S10582   4.491   4.930  10.027  0.1575 -0.0725  1.0336
  104OSM    H9S10583   4.415   4.851  10.009  1.2411 -0.7499 -0.8211
  104OSM    H9T10584   4.580   4.887   9.978  1.2584  1.2421  1.8227
  104OSM   C10S10585   4.430   5.046   9.960  0.5237 -0.3075  0.7997
  104OSM   H10S10586   4.490   5.140   9.960  1.4751 -0.8779 -0.5952
  104OSM   H10T10587   4.338   5.067  10.019 -0.5692 -0.9432 -0.5977
  104OSM   C11S10588   4.396   5.028   9.813 -0.5643 -0.0691 -0.1939
  104OSM   H11S10589   4.320   4.948   9.798 -1.2344 -0.1747  3.0256
  104OSM   H11T10590   4.494   5.006   9.766 -0.2701  0.5309  0.1191
  104OSM   C12S10591   4.333   5.148   9.745  0.3679  0.1150  0.1781
  104OSM   H12S10592   4.393   5.242   9.742 -1.5347  1.4010 -2.5196
  104OSM   H12T10593   4.242   5.181   9.799  0.3324 -0.4479  0.4676
  104OSM   C13S10594   4.291   5.109   9.600  0.4928  0.0267 -0.2735
  104OSM   H13S10595   4.192   5.059   9.609 -0.7725  1.6731 -3.5905
  104OSM   H13T10596   4.370   5.039   9.566  1.1028 -0.8668  2.6725
  104OSM   C14S10597   4.253   5.230   9.503  0.0950  0.5181 -0.0445
  104OSM   H14S10598   4.262   5.327   9.555  1.4944 -0.1380  1.0065
  104OSM   H14T10599   4.144   5.228   9.482 -0.4731 -0.5593  2.5966
  104OSM   C15S10600   4.336   5.240   9.378 -0.4685  0.2801  0.0295
  104OSM   H15S10601   4.442   5.260   9.402  0.1245 -0.4595 -1.8160
  104OSM   H15T10602   4.287   5.325   9.324 -1.5977 -2.0989 -3.0298
  104OSM   C16S10603   4.344   5.113   9.295 -0.5163  0.8597 -0.5805
  104OSM   H16S10604   4.240   5.076   9.298  0.1320 -1.0235  0.0371
  104OSM   H16T10605   4.394   5.030   9.349 -2.8510  0.1471  0.5966
  104OSM   C17S10606   4.405   5.128   9.152 -0.4388 -0.0735 -0.1532
  104OSM   H17S10607   4.513   5.150   9.164 -0.6605  0.0437  1.8964
  104OSM   H17T10608   4.337   5.200   9.101 -2.0958 -1.6163 -0.2533
  104OSM   C18S10609   4.384   4.994   9.075  0.1594 -0.0736 -0.2390
  104OSM   H18S10610   4.279   4.978   9.043  0.2870  2.1311 -1.9397
  104OSM   H18T10611   4.412   4.908   9.141 -0.0738 -0.1511 -0.2397
  104OSM   H18U10612   4.455   4.991   8.990  1.3856 -0.0108  0.7612
  104OSM    C1F10613   4.538   4.338  10.379  0.0586 -0.1102  0.7647
  104OSM     OF10614   4.430   4.294  10.358 -0.1833  0.2332 -0.0679
  104OSM    C2F10615   4.658   4.311  10.304 -0.5472  0.4605 -0.0554
  104OSM    H2F10616   4.645   4.222  10.238  0.6396  0.9037 -0.9186
  104OSM    H2G10617   4.751   4.293  10.363  0.0567 -0.0068 -1.1310
  104OSM    C3F10618   4.686   4.424  10.204  0.1400 -0.1555  0.2716
  104OSM    H3F10619   4.780   4.400  10.149 -0.2090  3.2696 -2.1856
  104OSM    H3G10620   4.695   4.523  10.254 -3.0660  0.2205  0.2980
  104OSM    C4F10621   4.580   4.429  10.094  0.4390 -0.5008 -0.3692
  104OSM    H4F10622   4.479   4.456  10.129  0.2256 -2.1337  0.3501
  104OSM    H4G10623   4.558   4.329  10.050 -1.3778 -1.0769  1.7140
  104OSM    C5F10624   4.630   4.527   9.986  0.3272  0.0793 -0.0939
  104OSM    H5F10625   4.723   4.493   9.936  0.5196  0.9458 -0.3537
  104OSM    H5G10626   4.653   4.626  10.031  0.7199 -0.1491  0.2012
  104OSM    C6F10627   4.541   4.550   9.867  0.1697 -0.3709  0.5768
  104OSM    H6F10628   4.455   4.613   9.897  1.7791  2.2948 -0.0724
  104OSM    H6G10629   4.501   4.457   9.821 -1.2204 -0.1647  1.3237
  104OSM    C7F10630   4.615   4.620   9.755  0.1592  0.3117  0.5106
  104OSM    H7F10631   4.710   4.564   9.742 -0.4794 -1.1076  1.6387
  104OSM    H7G10632   4.642   4.726   9.773 -0.4216  0.7954 -1.2488
  104OSM    C8F10633   4.524   4.611   9.631  0.0462  0.0649 -0.0996
  104OSM    H8F10634   4.416   4.634   9.648  0.4828  3.0157 -0.8302
  104OSM    H8G10635   4.515   4.504   9.600 -4.2045 -0.3414  1.8341
  104OSM    C9F10636   4.561   4.715   9.524  0.3036  0.1761 -0.2754
  104OSM    H9F10637   4.550   4.814   9.571  0.1368 -0.5392  1.2654
  104OSM   C10F10638   4.616   4.687   9.400 -0.3787 -0.9672 -0.2030
  104OSM   H10F10639   4.630   4.763   9.322 -1.2775 -2.2309 -1.6633
  104OSM   C11F10640   4.640   4.551   9.339  0.2642 -0.0819  0.1294
  104OSM   H11F10641   4.637   4.469   9.414  0.1988  0.9506  1.2904
  104OSM   H11G10642   4.738   4.557   9.288  0.5041 -1.2271  0.4204
  104OSM   C12F10643   4.534   4.511   9.237  0.0391 -1.0129  0.9330
  104OSM   H12F10644   4.435   4.510   9.288 -0.7018  1.9808 -0.1995
  104OSM   H12G10645   4.553   4.410   9.195 -1.8868 -1.3059  0.6781
  104OSM   C13F10646   4.522   4.609   9.119  0.0330 -0.2720 -1.5577
  104OSM   H13F10647   4.623   4.651   9.103  0.6256 -1.3688 -0.7994
  104OSM   H13G10648   4.454   4.689   9.156  1.6915 -0.3655  2.1649
  104OSM   C14F10649   4.472   4.548   8.986  0.3887  0.5012 -0.6920
  104OSM   H14F10650   4.375   4.499   9.009  0.2373  0.9372 -0.3841
  104OSM   H14G10651   4.549   4.474   8.954 -0.2311  0.6315 -2.6063
  104OSM   C15F10652   4.446   4.649   8.870  0.5975  0.1659 -0.0827
  104OSM   H15F10653   4.386   4.733   8.911 -1.8717 -0.2056 -2.6158
  104OSM   H15G10654   4.382   4.592   8.800  0.2657  1.1955 -0.6465
  104OSM   C16F10655   4.575   4.689   8.792  0.8798  0.2910 -0.3959
  104OSM   H16F10656   4.629   4.596   8.764  0.4449 -0.5045  1.2504
  104OSM   H16G10657   4.642   4.734   8.870  1.1269 -1.5418  0.5124
  104OSM   C17F10658   4.544   4.801   8.694 -0.0762 -0.2691 -0.2185
  104OSM   H17F10659   4.495   4.886   8.745  1.0904  0.5956 -0.5026
  104OSM   H17G10660   4.469   4.769   8.619 -1.8015 -0.7467  1.6039
  104OSM   C18F10661   4.672   4.860   8.626 -0.3362 -0.9669  0.1739
  104OSM   H18F10662   4.753   4.867   8.701  0.0171 -0.2112 -0.2698
  104OSM   H18G10663   4.652   4.958   8.577  1.9244 -0.3015  0.4772
  104OSM   H18H10664   4.712   4.785   8.555 -0.4418  0.1518 -1.1057
  105OSM      N10665   2.114   5.634  11.146 -0.2424 -0.2541  0.0330
  105OSM    C1510666   2.183   5.613  11.279  0.4552 -1.2123  0.6308
  105OSM   H15A10667   2.287   5.633  11.259 -0.4217  5.0624  0.4718
  105OSM   H15B10668   2.173   5.513  11.318 -0.3252 -1.7076 -0.7745
  105OSM   H15C10669   2.148   5.685  11.351 -2.4416  0.0741 -1.8219
  105OSM    C1410670   1.967   5.663  11.169 -0.2889  0.0493 -0.5922
  105OSM   H14A10671   1.912   5.701  11.084 -0.5515 -2.4239 -1.6149
  105OSM   H14B10672   1.963   5.732  11.252  1.3654 -0.5370  0.0280
  105OSM   H14C10673   1.915   5.572  11.194  0.9314 -0.1310  1.5546
  105OSM    C1310674   2.165   5.764  11.099 -0.1412  0.2113 -0.7751
  105OSM   H13A10675   2.140   5.845  11.166  0.8705 -0.0010 -0.1128
  105OSM   H13B10676   2.142   5.790  10.997  2.5323 -0.1128 -1.5354
  105OSM   H13C10677   2.271   5.761  11.117 -0.2798 -2.0080 -0.0611
  105OSM    C1210678   2.131   5.522  11.051  0.0664  0.5149 -0.3172
  105OSM   H12A10679   2.081   5.434  11.088  1.1369 -0.0326 -0.1121
  105OSM   H12B10680   2.232   5.485  11.039 -0.2771 -0.2681 -0.9710
  105OSM    C1110681   2.069   5.543  10.905 -0.2126 -0.1877  0.0747
  105OSM   H11A10682   1.959   5.560  10.900 -0.2966 -1.0400 -1.8927
  105OSM   H11B10683   2.087   5.450  10.846 -0.0234  0.8935 -1.6246
  105OSM      P10684   2.259   5.644  10.761  0.1908 -0.2342 -0.0842
  105OSM    O1310685   2.303   5.771  10.697  0.3104 -0.4489  0.0453
  105OSM    O1410686   2.362   5.593  10.861  0.1491 -0.5280  0.5292
  105OSM    O1110687   2.236   5.530  10.655  0.2901 -0.1259 -0.0825
  105OSM    O1210688   2.125   5.658  10.828  0.4960 -0.2006 -0.4726
  105OSM    C1S10689   2.110   5.529  10.579 -0.4894 -0.0471  0.3526
  105OSM    H1S10690   2.060   5.627  10.589  0.2333  0.2574  1.0209
  105OSM    H1T10691   2.034   5.457  10.616 -0.8958  0.6398  0.8582
  105OSM     NF10692   2.021   5.530  10.351  0.6690  0.5421  0.5758
  105OSM    HNF10693   1.988   5.444  10.313  1.9875  0.5817 -0.7805
  105OSM    C2S10694   2.142   5.510  10.426  0.2217 -0.5254  0.0925
  105OSM    H2S10695   2.210   5.595  10.403 -1.5231  0.6000 -1.1224
  105OSM    C3S10696   2.212   5.376  10.401 -0.1818  0.2526 -0.4379
  105OSM    H3S10697   2.139   5.296  10.423  0.0656  0.8153  2.9127
  105OSM     O310698   2.331   5.338  10.477  0.0471  0.1431 -0.1784
  105OSM    HO310699   2.333   5.404  10.547  1.2733 -0.6489  0.5572
  105OSM    C4S10700   2.262   5.363  10.257 -0.2034  0.1891 -0.5427
  105OSM    H4S10701   2.347   5.429  10.236  0.4852  0.1692  1.9217
  105OSM    C5S10702   2.208   5.291  10.154  0.2476  0.3931  0.9752
  105OSM    H5S10703   2.114   5.237  10.176 -0.3143  0.8620 -0.1998
  105OSM    C6S10704   2.263   5.271  10.011  0.3887 -0.6373  0.0637
  105OSM    H6S10705   2.225   5.345   9.938  2.3537  0.5290  0.1384
  105OSM    H6T10706   2.224   5.169   9.994  1.4912 -1.3558  1.5653
  105OSM    C7S10707   2.415   5.280   9.989 -0.2840 -0.2625  0.1153
  105OSM    H7S10708   2.474   5.206  10.047 -1.3237 -0.6106  0.7496
  105OSM    H7T10709   2.450   5.376  10.031 -0.0284  0.4471 -1.6360
  105OSM    C8S10710   2.453   5.260   9.848 -0.4784  0.6567  0.3671
  105OSM    H8S10711   2.562   5.244   9.837 -0.7724 -1.0621 -0.2674
  105OSM    H8T10712   2.411   5.345   9.789 -0.2426 -0.3002 -1.2367
  105OSM    C9S10713   2.399   5.124   9.786 -1.0856 -0.4970  0.0045
  105OSM    H9S10714   2.314   5.155   9.722 -0.1161  1.8214 -0.2317
  105OSM    H9T10715   2.362   5.053   9.863 -1.1681  0.0484  0.4735
  105OSM   C10S10716   2.509   5.063   9.695  0.5718  0.1143  0.0590
  105OSM   H10S10717   2.467   4.971   9.649 -0.2257 -0.4163  1.7457
  105OSM   H10T10718   2.595   5.026   9.755 -0.8561  1.5996  3.2883
  105OSM   C11S10719   2.554   5.155   9.577  0.2864  0.5920 -0.6896
  105OSM   H11S10720   2.652   5.115   9.543  0.0164 -1.2765  0.6215
  105OSM   H11T10721   2.575   5.261   9.605  1.2808 -0.3242  2.4739
  105OSM   C12S10722   2.473   5.153   9.452  0.3606  0.9349  0.0465
  105OSM   H12S10723   2.375   5.194   9.483 -0.3212  0.2221 -1.1322
  105OSM   H12T10724   2.467   5.048   9.415 -0.2815  1.3657 -1.1025
  105OSM   C13S10725   2.535   5.234   9.340 -0.1855 -0.2382 -0.5936
  105OSM   H13S10726   2.643   5.206   9.336 -0.3521 -1.1549  0.8202
  105OSM   H13T10727   2.517   5.343   9.355  0.6659 -0.3410  1.6053
  105OSM   C14S10728   2.476   5.193   9.206 -0.3218 -0.1708  0.8765
  105OSM   H14S10729   2.366   5.202   9.212 -0.5675 -0.0459 -2.2615
  105OSM   H14T10730   2.494   5.087   9.181 -0.0391  0.4988 -2.2244
  105OSM   C15S10731   2.542   5.263   9.077  0.1684 -0.2727 -0.5427
  105OSM   H15S10732   2.651   5.243   9.071  0.1076 -0.3742 -1.5344
  105OSM   H15T10733   2.540   5.374   9.082  0.9036 -0.2813  0.1265
  105OSM   C16S10734   2.475   5.217   8.950  0.9797 -0.4691 -0.4802
  105OSM   H16S10735   2.368   5.243   8.932  0.3229 -1.9469  1.0415
  105OSM   H16T10736   2.472   5.107   8.964 -1.8606 -0.4514 -0.2742
  105OSM   C17S10737   2.550   5.260   8.819 -0.1290 -0.2789 -0.4176
  105OSM   H17S10738   2.660   5.255   8.834 -0.3954 -1.0843  1.7412
  105OSM   H17T10739   2.527   5.368   8.808 -1.7582 -0.4629  0.6829
  105OSM   C18S10740   2.515   5.169   8.700  0.2335 -0.2402 -0.1039
  105OSM   H18S10741   2.547   5.064   8.719 -0.0276 -0.4042 -0.5564
  105OSM   H18T10742   2.571   5.198   8.608  1.1997 -0.3467  0.4360
  105OSM   H18U10743   2.405   5.166   8.688 -0.0207  1.5862  1.4401
  105OSM    C1F10744   1.979   5.652  10.329  0.0598  0.5717  0.5593
  105OSM     OF10745   2.039   5.749  10.376 -0.2306  0.0648  0.5722
  105OSM    C2F10746   1.845   5.674  10.255  0.2372  0.0067 -0.4082
  105OSM    H2F10747   1.784   5.747  10.312 -0.9338 -1.4514  0.2983
  105OSM    H2G10748   1.792   5.576  10.259 -0.4109  0.3291 -0.8369
  105OSM    C3F10749   1.866   5.719  10.105  0.7713  0.4072 -0.7349
  105OSM    H3F10750   1.916   5.818  10.102 -1.9664  1.9346 -0.1460
  105OSM    H3G10751   1.762   5.726  10.065 -0.7229 -1.1787  2.4560
  105OSM    C4F10752   1.936   5.620  10.013  0.4798  0.2778  0.3348
  105OSM    H4F10753   1.890   5.520  10.027 -0.5406  0.7949  0.8632
  105OSM    H4G10754   2.039   5.612  10.053  0.7052  1.3018 -0.0064
  105OSM    C5F10755   1.936   5.670   9.869  0.5083  0.4084 -0.0796
  105OSM    H5F10756   1.833   5.655   9.829  0.2303  1.7674  0.0636
  105OSM    H5G10757   1.998   5.596   9.815 -0.4119  0.8894 -1.8779
  105OSM    C6F10758   1.985   5.811   9.843 -0.5316 -0.2898 -0.8683
  105OSM    H6F10759   2.081   5.816   9.899  0.1555 -3.3144 -1.6038
  105OSM    H6G10760   1.920   5.886   9.892 -1.5447 -1.8593  0.2772
  105OSM    C7F10761   1.996   5.848   9.692 -0.4829  0.6586  0.3447
  105OSM    H7F10762   2.058   5.773   9.639 -0.0514  0.2931  1.3460
  105OSM    H7G10763   2.064   5.934   9.672  1.3885 -0.7107  0.6135
  105OSM    C8F10764   1.864   5.886   9.633  0.6525 -0.0334 -0.0201
  105OSM    H8F10765   1.807   5.944   9.709  1.0058  2.3176 -1.4418
  105OSM    H8G10766   1.801   5.794   9.630 -3.2806  2.4142 -0.2800
  105OSM    C9F10767   1.873   5.935   9.492 -0.1276 -0.0361  0.1548
  105OSM    H9F10768   1.857   6.043   9.474 -1.8650 -0.3744 -0.5360
  105OSM   C10F10769   1.895   5.857   9.384 -0.3884 -1.1342  0.0262
  105OSM   H10F10770   1.895   5.917   9.292 -1.3420  0.7044  1.1607
  105OSM   C11F10771   1.916   5.712   9.373 -0.3814  0.1764  0.4896
  105OSM   H11F10772   1.851   5.667   9.294 -0.8598  1.6906 -0.0203
  105OSM   H11G10773   1.885   5.655   9.463 -0.8484 -2.3708 -1.1792
  105OSM   C12F10774   2.052   5.678   9.305 -0.1312 -0.4870 -0.2479
  105OSM   H12F10775   2.129   5.731   9.365 -0.8847  1.3981 -0.8735
  105OSM   H12G10776   2.054   5.702   9.196 -0.9832 -1.0449 -0.3942
  105OSM   C13F10777   2.077   5.525   9.303 -0.6213 -0.0523  0.1751
  105OSM   H13F10778   1.993   5.481   9.246  0.3682 -3.2018  0.9712
  105OSM   H13G10779   2.079   5.493   9.410  1.1642  1.2987  0.5842
  105OSM   C14F10780   2.217   5.490   9.238  0.4412 -0.0521 -0.9820
  105OSM   H14F10781   2.236   5.383   9.262  1.2098  0.8955  3.4086
  105OSM   H14G10782   2.296   5.543   9.296  1.1801 -0.7228 -1.3534
  105OSM   C15F10783   2.232   5.521   9.088  0.3272  0.6009 -0.2948
  105OSM   H15F10784   2.333   5.489   9.053  0.1219  2.9152 -3.4478
  105OSM   H15G10785   2.231   5.631   9.073 -0.3657  0.5994 -0.2877
  105OSM   C16F10786   2.123   5.449   9.000 -0.5669 -0.3123 -0.2766
  105OSM   H16F10787   2.031   5.505   9.026  0.0327  0.6084 -0.1174
  105OSM   H16G10788   2.118   5.341   9.027  0.1082  0.1248  1.7008
  105OSM   C17F10789   2.164   5.458   8.849  0.1380  0.4500  1.1473
  105OSM   H17F10790   2.096   5.395   8.788  1.7079  1.6006 -1.9597
  105OSM   H17G10791   2.257   5.398   8.844 -1.9644 -3.0317 -1.6478
  105OSM   C18F10792   2.172   5.602   8.804  0.0366 -0.8462 -0.8594
  105OSM   H18F10793   2.074   5.653   8.817 -0.9222 -2.5100 -1.2074
  105OSM   H18G10794   2.204   5.608   8.698 -0.2947  1.3300 -0.8929
  105OSM   H18H10795   2.256   5.641   8.865  0.5848  0.2549 -2.2526
  106OSM      N10796   2.950   1.195  10.940  0.0727  0.6966  0.3689
  106OSM    C1510797   2.978   1.147  11.077  0.7435  0.3677  0.4192
  106OSM   H15A10798   3.007   1.209  11.161  0.3899 -0.3965  1.1201
  106OSM   H15B10799   3.051   1.068  11.075 -1.9126 -2.5702  4.2042
  106OSM   H15C10800   2.890   1.095  11.112  0.7697  0.1295  0.1358
  106OSM    C1410801   2.895   1.071  10.864  0.9989  0.2899  0.2472
  106OSM   H14A10802   2.891   1.100  10.760  3.6342  0.7541  0.2103
  106OSM   H14B10803   2.795   1.046  10.896  0.5416  1.0860 -0.5350
  106OSM   H14C10804   2.957   0.984  10.879  0.9727  0.1154 -0.5940
  106OSM    C1310805   2.850   1.301  10.928  1.1118 -0.1854 -0.4138
  106OSM   H13A10806   2.763   1.292  10.992  0.5176  0.0097 -1.1884
  106OSM   H13B10807   2.809   1.302  10.828 -1.9905  1.3184  0.7239
  106OSM   H13C10808   2.897   1.397  10.945  0.7971  0.0268 -0.7310
  106OSM    C1210809   3.076   1.246  10.881 -0.6330  0.4810  0.9380
  106OSM   H12A10810   3.157   1.182  10.913  0.1899  1.1241  0.1791
  106OSM   H12B10811   3.099   1.345  10.917  3.1442  0.5767 -1.2208
  106OSM    C1110812   3.082   1.277  10.735  0.4791  1.0179  0.1388
  106OSM   H11A10813   3.040   1.192  10.676  0.5667  0.8564  0.3084
  106OSM   H11B10814   3.189   1.291  10.710  0.2776  1.6057 -0.4246
  106OSM      P10815   3.010   1.536  10.733  0.4433  0.2777  0.1868
  106OSM    O1310816   2.908   1.594  10.649  0.4320  0.8249 -0.5423
  106OSM    O1410817   3.003   1.555  10.878  0.6179  0.0816 -0.3909
  106OSM    O1110818   3.145   1.580  10.677 -0.5823  0.0679 -0.0938
  106OSM    O1210819   2.996   1.383  10.694  0.2185  0.6173 -1.0937
  106OSM    C1S10820   3.187   1.576  10.539  0.7621  0.9007  0.6920
  106OSM    H1S10821   3.101   1.603  10.474 -0.3831  1.1217  2.2528
  106OSM    H1T10822   3.218   1.476  10.502 -2.0168  0.4705 -0.7079
  106OSM     NF10823   3.318   1.686  10.359  0.6955  0.0494  0.3414
  106OSM    HNF10824   3.399   1.655  10.308  1.0989  1.1600  0.2788
  106OSM    C2S10825   3.303   1.670  10.506 -0.4804 -1.2296 -0.3453
  106OSM    H2S10826   3.282   1.776  10.531  0.1018 -0.7104 -1.9254
  106OSM    C3S10827   3.440   1.626  10.570  0.6088 -0.3698 -0.2425
  106OSM    H3S10828   3.482   1.532  10.528  0.1032 -0.0326 -1.5773
  106OSM     O310829   3.415   1.603  10.710 -0.1150 -1.0183 -0.0539
  106OSM    HO310830   3.322   1.621  10.719  0.5832  2.4676  1.9130
  106OSM    C4S10831   3.549   1.718  10.545 -0.4590  0.7485 -0.1948
  106OSM    H4S10832   3.527   1.821  10.576  0.0704  0.4806  1.1452
  106OSM    C5S10833   3.675   1.687  10.506 -0.4563  0.2164 -0.3646
  106OSM    H5S10834   3.711   1.586  10.484  1.4956  0.8266 -0.1577
  106OSM    C6S10835   3.783   1.795  10.502  0.0434  0.2419  0.2803
  106OSM    H6S10836   3.869   1.782  10.572  0.1715  1.5178  0.3745
  106OSM    H6T10837   3.745   1.893  10.536  0.0361  0.8818 -1.5060
  106OSM    C7S10838   3.861   1.829  10.372 -0.5856  0.2151 -0.5932
  106OSM    H7S10839   3.925   1.742  10.345  0.1370 -0.6459  3.2421
  106OSM    H7T10840   3.934   1.911  10.387  3.2031 -2.7718 -0.8529
  106OSM    C8S10841   3.767   1.855  10.262  0.0554  0.4615 -0.6774
  106OSM    H8S10842   3.704   1.944  10.284  0.0813  0.1757  0.6353
  106OSM    H8T10843   3.703   1.765  10.250  0.4372 -0.0851  1.0346
  106OSM    C9S10844   3.844   1.878  10.125 -0.2169  0.1183 -0.1189
  106OSM    H9S10845   3.913   1.791  10.124  0.6128  0.7679  0.2058
  106OSM    H9T10846   3.904   1.970  10.107 -0.3275  0.0651 -0.7908
  106OSM   C10S10847   3.749   1.863  10.006  0.3111  0.3926 -0.5397
  106OSM   H10S10848   3.663   1.932  10.023  1.0749  1.1681  0.2474
  106OSM   H10T10849   3.701   1.763  10.009  1.5284 -0.2323  3.4543
  106OSM   C11S10850   3.832   1.880   9.879 -0.4563  0.1878  0.3660
  106OSM   H11S10851   3.906   1.799   9.867  0.5184  0.8458  1.6554
  106OSM   H11T10852   3.890   1.975   9.882  0.2100 -0.2247  0.6953
  106OSM   C12S10853   3.740   1.883   9.759  0.1098  0.1829 -1.3074
  106OSM   H12S10854   3.663   1.963   9.752 -0.9004 -0.8497 -2.5507
  106OSM   H12T10855   3.681   1.788   9.759 -1.2669  0.9841  0.2369
  106OSM   C13S10856   3.818   1.890   9.625  0.0206 -0.2120  0.1631
  106OSM   H13S10857   3.897   1.813   9.625  1.1834  0.9186 -1.7300
  106OSM   H13T10858   3.853   1.995   9.616  0.6933 -0.5345 -1.2245
  106OSM   C14S10859   3.741   1.847   9.495  0.8392  0.0068  0.5012
  106OSM   H14S10860   3.637   1.885   9.505  1.0266  0.8808 -0.7076
  106OSM   H14T10861   3.732   1.736   9.494 -0.5464  0.1006 -1.0411
  106OSM   C15S10862   3.807   1.894   9.367  0.9193 -0.0343 -1.2320
  106OSM   H15S10863   3.903   1.840   9.353  1.5298  1.0297 -1.2927
  106OSM   H15T10864   3.824   2.004   9.367  0.0143  0.1198 -0.3572
  106OSM   C16S10865   3.734   1.855   9.235 -0.2779  0.8363 -0.6253
  106OSM   H16S10866   3.721   1.745   9.237 -1.0859  0.9258  1.3566
  106OSM   H16T10867   3.803   1.881   9.152  0.9864 -0.2039  0.0553
  106OSM   C17S10868   3.600   1.917   9.209 -0.6350  0.6481 -0.1410
  106OSM   H17S10869   3.602   2.028   9.210  0.3554  0.6804 -1.7803
  106OSM   H17T10870   3.530   1.877   9.285 -1.5148  0.0968 -1.2115
  106OSM   C18S10871   3.544   1.878   9.075 -0.5039 -0.2328  0.1264
  106OSM   H18S10872   3.625   1.885   8.999 -0.7420 -0.2762 -0.1318
  106OSM   H18T10873   3.458   1.942   9.048  1.5676  2.4644 -0.5151
  106OSM   H18U10874   3.516   1.771   9.076 -1.0824 -0.0934  1.4718
  106OSM    C1F10875   3.228   1.735  10.276 -0.1854  0.6068  0.0084
  106OSM     OF10876   3.143   1.806  10.321  0.0489 -0.1431 -0.2442
  106OSM    C2F10877   3.243   1.707  10.126 -0.2646 -0.2553  0.3312
  106OSM    H2F10878   3.142   1.701  10.080 -0.5193 -1.0668  0.9805
  106OSM    H2G10879   3.292   1.608  10.113  1.4769  0.4594  1.1173
  106OSM    C3F10880   3.328   1.811  10.048 -0.2284 -0.2317 -0.2513
  106OSM    H3F10881   3.431   1.795  10.089 -0.6813  1.4521  1.7243
  106OSM    H3G10882   3.298   1.915  10.072 -1.2219 -0.2500 -1.3479
  106OSM    C4F10883   3.307   1.795   9.893 -0.0921  0.1037 -0.6447
  106OSM    H4F10884   3.362   1.867   9.830  1.4430  1.0372  1.6200
  106OSM    H4G10885   3.199   1.807   9.871 -0.0244 -0.8980 -1.6275
  106OSM    C5F10886   3.353   1.658   9.843 -1.0024  0.5635 -0.0551
  106OSM    H5F10887   3.319   1.572   9.905  1.2953 -0.9112 -0.6803
  106OSM    H5G10888   3.464   1.649   9.851 -1.0187  1.2693  1.1905
  106OSM    C6F10889   3.315   1.623   9.700 -0.3655  0.6524  0.8917
  106OSM    H6F10890   3.208   1.641   9.678  0.0439  1.0126 -1.0063
  106OSM    H6G10891   3.320   1.513   9.683 -1.4961  0.6744  0.3364
  106OSM    C7F10892   3.407   1.695   9.599  0.2071  0.8185  0.0118
  106OSM    H7F10893   3.488   1.620   9.584 -0.6188 -0.3064  0.8849
  106OSM    H7G10894   3.462   1.783   9.639  1.8569  0.0090 -0.3804
  106OSM    C8F10895   3.333   1.742   9.473 -0.7361 -0.5789 -0.9065
  106OSM    H8F10896   3.400   1.819   9.429  1.6079 -1.7979  0.3513
  106OSM    H8G10897   3.245   1.803   9.503  0.5361  1.1984 -0.5865
  106OSM    C9F10898   3.297   1.636   9.377  0.6106 -0.4410 -0.5444
  106OSM    H9F10899   3.285   1.535   9.420 -0.9866 -0.3461 -0.7132
  106OSM   C10F10900   3.254   1.660   9.255 -0.3610 -0.2338  0.6694
  106OSM   H10F10901   3.223   1.574   9.193 -0.4391  0.1878  0.1139
  106OSM   C11F10902   3.238   1.794   9.189 -0.6996 -0.1476 -0.1470
  106OSM   H11F10903   3.303   1.804   9.099 -0.2999  0.6190  0.2183
  106OSM   H11G10904   3.283   1.864   9.263  0.3822 -2.1337  1.1800
  106OSM   C12F10905   3.097   1.841   9.159  0.1440  0.1763  0.8501
  106OSM   H12F10906   3.107   1.951   9.148  4.0021 -0.1692 -0.8475
  106OSM   H12G10907   3.029   1.797   9.234  0.2482 -2.7947 -0.6622
  106OSM   C13F10908   3.044   1.793   9.016  0.3285 -0.2083  0.2560
  106OSM   H13F10909   3.025   1.684   9.027  1.4913 -0.2700  2.1595
  106OSM   H13G10910   3.127   1.802   8.942 -0.1017 -2.4163 -0.5669
  106OSM   C14F10911   2.914   1.869   8.973 -0.7297 -0.5775 -0.4835
  106OSM   H14F10912   2.940   1.970   8.934  0.1471 -1.2507 -1.7156
  106OSM   H14G10913   2.840   1.879   9.055  0.5648  0.1123  0.6357
  106OSM   C15F10914   2.851   1.802   8.847  0.0732  0.1463  0.3698
  106OSM   H15F10915   2.799   1.708   8.875 -1.9153  0.6388 -1.4100
  106OSM   H15G10916   2.934   1.776   8.778 -1.1378 -0.2963 -0.9633
  106OSM   C16F10917   2.760   1.893   8.776  0.7505 -0.6818  0.8955
  106OSM   H16F10918   2.800   1.996   8.765 -0.4558 -0.2634  0.2378
  106OSM   H16G10919   2.661   1.901   8.825 -1.9690  1.0052 -4.1626
  106OSM   C17F10920   2.720   1.833   8.633 -0.4356  0.0387  0.3280
  106OSM   H17F10921   2.816   1.796   8.592  0.1517 -1.0883  2.5655
  106OSM   H17G10922   2.679   1.904   8.557 -1.4512 -0.4034  0.4524
  106OSM   C18F10923   2.619   1.723   8.645 -0.5772  0.1388 -1.1305
  106OSM   H18F10924   2.529   1.778   8.682 -1.3225 -1.8069  0.1022
  106OSM   H18G10925   2.637   1.641   8.718 -2.6112 -1.3150 -2.1616
  106OSM   H18H10926   2.611   1.686   8.540  3.2426  0.3600 -1.6219
  107OSM      N10927   4.613   0.923  11.271  0.7697 -0.8732  0.1056
  107OSM    C1510928   4.586   0.872  11.409  0.0873  0.5945 -0.5792
  107OSM   H15A10929   4.585   0.941  11.492 -1.0862 -0.4630  0.3401
  107OSM   H15B10930   4.668   0.805  11.425 -0.7650 -0.1011  1.1914
  107OSM   H15C10931   4.496   0.815  11.430  0.1582  0.5962 -0.2688
  107OSM    C1410932   4.543   1.061  11.251  0.1728 -0.6662  0.2391
  107OSM   H14A10933   4.436   1.044  11.253  0.1866 -0.7788  0.0113
  107OSM   H14B10934   4.573   1.110  11.160 -0.4825  1.6463  1.1859
  107OSM   H14C10935   4.564   1.139  11.323 -2.1170  0.5429 -0.2769
  107OSM    C1310936   4.762   0.940  11.258 -0.1791  0.3013  0.1438
  107OSM   H13A10937   4.791   1.026  11.316  1.0376 -0.1869  0.3045
  107OSM   H13B10938   4.788   0.942  11.153  1.4461 -0.1780  0.5070
  107OSM   H13C10939   4.815   0.850  11.286  1.3320  0.0653 -3.0263
  107OSM    C1210940   4.568   0.817  11.176  0.0548  0.3746  0.0078
  107OSM   H12A10941   4.470   0.785  11.206  0.0919  1.3198  1.2107
  107OSM   H12B10942   4.634   0.733  11.193 -0.0549  0.3721  0.4200
  107OSM    C1110943   4.570   0.847  11.023 -0.4419  0.0651  0.6800
  107OSM   H11A10944   4.508   0.934  10.991 -0.0299 -0.1102 -0.6151
  107OSM   H11B10945   4.531   0.757  10.970  0.5034  0.7101 -1.1758
  107OSM      P10946   4.804   0.778  10.925  0.3234  0.3424  0.1553
  107OSM    O1310947   4.927   0.851  10.897  0.3945  0.7325  0.3551
  107OSM    O1410948   4.807   0.669  11.027  0.5314 -0.2808 -0.4360
  107OSM    O1110949   4.745   0.728  10.784  0.0968  0.0892  0.3985
  107OSM    O1210950   4.700   0.881  10.974 -1.1276 -0.5302 -0.3787
  107OSM    C1S10951   4.707   0.812  10.670 -0.1595  0.5321  0.2486
  107OSM    H1S10952   4.787   0.882  10.636 -1.4090  2.4970  1.1445
  107OSM    H1T10953   4.613   0.866  10.696 -3.3717 -3.0893 -2.7447
  107OSM     NF10954   4.611   0.826  10.446  0.1581 -0.2198  0.2161
  107OSM    HNF10955   4.521   0.867  10.431  1.1977  1.5532 -1.6487
  107OSM    C2S10956   4.642   0.729  10.556  0.2123  0.3020  0.5263
  107OSM    H2S10957   4.719   0.661  10.516 -0.6308  0.6333 -1.8529
  107OSM    C3S10958   4.525   0.642  10.596  0.2718  0.6229 -0.6506
  107OSM    H3S10959   4.443   0.702  10.640  0.0758  0.0390 -0.2110
  107OSM     O310960   4.558   0.561  10.707 -0.4255  0.3513  0.2646
  107OSM    HO310961   4.631   0.612  10.742 -0.0210  0.6446 -0.9324
  107OSM    C4S10962   4.478   0.553  10.477  0.2327 -0.2822 -0.5258
  107OSM    H4S10963   4.550   0.473  10.455 -2.5121 -3.3389  0.7016
  107OSM    C5S10964   4.361   0.560  10.411  0.3388 -0.9216  0.2707
  107OSM    H5S10965   4.289   0.636  10.443  0.0862 -1.9012  2.1880
  107OSM    C6S10966   4.325   0.467  10.300  0.2763 -0.7957 -0.0584
  107OSM    H6S10967   4.216   0.471  10.282  0.8098 -0.3491 -4.3453
  107OSM    H6T10968   4.352   0.362  10.323 -0.2456 -0.5557  1.8708
  107OSM    C7S10969   4.385   0.517  10.164  0.1942 -0.0323 -0.3924
  107OSM    H7S10970   4.492   0.490  10.163 -0.6006 -4.0099  1.7634
  107OSM    H7T10971   4.380   0.628  10.162  1.8079  0.0764 -3.1051
  107OSM    C8S10972   4.313   0.483  10.033  0.1730  0.2195 -0.2082
  107OSM    H8S10973   4.211   0.523  10.015  0.3493 -0.3740 -2.9306
  107OSM    H8T10974   4.306   0.373  10.020 -0.5301  0.1621  0.5471
  107OSM    C9S10975   4.388   0.550   9.912  0.8018 -0.3710 -0.8836
  107OSM    H9S10976   4.486   0.498   9.902  0.5097 -1.1220 -0.0923
  107OSM    H9T10977   4.402   0.659   9.927 -0.1554 -0.2555 -0.7593
  107OSM   C10S10978   4.308   0.544   9.788 -0.2117  0.2218  0.2048
  107OSM   H10S10979   4.215   0.605   9.798 -0.6251 -0.3197 -0.2452
  107OSM   H10T10980   4.277   0.437   9.794  0.5459  0.0918  3.2802
  107OSM   C11S10981   4.375   0.606   9.668  0.4466  0.2503  0.9510
  107OSM   H11S10982   4.450   0.531   9.632  0.8264  0.5582  1.0929
  107OSM   H11T10983   4.439   0.691   9.701  2.1354 -0.9095  0.7909
  107OSM   C12S10984   4.292   0.648   9.547 -0.1592 -0.0634 -0.2755
  107OSM   H12S10985   4.213   0.719   9.583 -0.1813  0.9806 -2.2526
  107OSM   H12T10986   4.242   0.558   9.506 -2.3150  0.7095  0.4794
  107OSM   C13S10987   4.364   0.719   9.435 -0.5996 -0.3868  0.5692
  107OSM   H13S10988   4.398   0.817   9.475 -1.7786  0.5824 -0.7033
  107OSM   H13T10989   4.291   0.731   9.352 -0.6685 -1.9775  0.3636
  107OSM   C14S10990   4.502   0.661   9.386  0.2706  0.0926  0.0193
  107OSM   H14S10991   4.484   0.554   9.363  2.1258 -0.2548  0.0039
  107OSM   H14T10992   4.574   0.669   9.471 -0.6522  1.3704  0.7142
  107OSM   C15S10993   4.577   0.732   9.271  0.1808  0.0772  0.0154
  107OSM   H15S10994   4.509   0.728   9.184  0.6030  2.3341 -0.4859
  107OSM   H15T10995   4.663   0.662   9.262  0.7986  0.3790  2.6902
  107OSM   C16S10996   4.602   0.880   9.302  0.8638 -0.0023 -0.8793
  107OSM   H16S10997   4.641   0.877   9.406  2.2774  0.6517 -1.3682
  107OSM   H16T10998   4.514   0.947   9.299 -0.8007 -1.7030  3.0790
  107OSM   C17S10999   4.703   0.940   9.196 -0.5778 -0.1761 -0.0781
  107OSM   H17S11000   4.670   0.913   9.093  1.2828 -0.1691 -0.7151
  107OSM   H17T11001   4.803   0.894   9.213 -0.5093  0.8844  2.8504
  107OSM   C18S11002   4.718   1.089   9.207 -0.2213  0.0318  0.2302
  107OSM   H18S11003   4.793   1.125   9.133 -0.1381 -2.2453 -0.8672
  107OSM   H18T11004   4.755   1.114   9.309 -1.7989  0.3361  0.7613
  107OSM   H18U11005   4.627   1.148   9.182 -0.4564 -1.1896 -2.0420
  107OSM    C1F11006   4.705   0.901  10.387  0.0274  0.4856 -0.3676
  107OSM     OF11007   4.821   0.880  10.405 -0.3470 -0.0873 -0.1246
  107OSM    C2F11008   4.656   1.009  10.306 -1.0010 -0.1657 -0.1832
  107OSM    H2F11009   4.633   1.099  10.368  0.2151  1.3673 -1.8512
  107OSM    H2G11010   4.565   0.986  10.246 -0.1555  0.3386 -1.6978
  107OSM    C3F11011   4.777   1.071  10.217  0.1693  1.3833  0.0531
  107OSM    H3F11012   4.819   0.996  10.146 -1.4255  0.0911  0.4255
  107OSM    H3G11013   4.867   1.092  10.278  1.6363  0.0295 -1.5126
  107OSM    C4F11014   4.744   1.196  10.142 -0.3880 -0.5553  0.2001
  107OSM    H4F11015   4.721   1.275  10.217 -0.8357  1.1871 -1.6740
  107OSM    H4G11016   4.662   1.192  10.068  1.9628 -2.5448 -2.4949
  107OSM    C5F11017   4.869   1.264  10.080  0.2694  0.3417 -0.3830
  107OSM    H5F11018   4.912   1.209   9.994  0.9909  0.9576 -0.4258
  107OSM    H5G11019   4.948   1.269  10.158  1.4720  0.4952 -1.5874
  107OSM    C6F11020   4.839   1.400  10.033 -0.3735 -0.2120  0.5785
  107OSM    H6F11021   4.801   1.457  10.120  0.0636 -0.2098  0.7714
  107OSM    H6G11022   4.771   1.416   9.947 -0.6806  0.1316  0.8813
  107OSM    C7F11023   4.971   1.470   9.989  0.3782 -0.6548  0.0920
  107OSM    H7F11024   5.029   1.396   9.930  0.9806 -0.1242  0.0123
  107OSM    H7G11025   5.032   1.495  10.079 -0.1595  0.0079  0.2818
  107OSM    C8F11026   4.956   1.599   9.905  0.8302 -0.1954  0.4903
  107OSM    H8F11027   4.900   1.566   9.815  0.9563 -0.4142  0.4928
  107OSM    H8G11028   5.056   1.628   9.866  0.5804  1.0856  0.7596
  107OSM    C9F11029   4.897   1.722   9.972  0.1129 -0.5046  0.8323
  107OSM    H9F11030   4.960   1.767  10.050  0.4768  0.6471 -0.1030
  107OSM   C10F11031   4.775   1.782   9.950 -1.0317 -0.1652 -0.0151
  107OSM   H10F11032   4.755   1.882   9.992 -0.2133  0.2594 -0.6067
  107OSM   C11F11033   4.673   1.743   9.847  0.4928  0.5457  0.0930
  107OSM   H11F11034   4.575   1.788   9.876 -0.4125 -2.2857  1.8667
  107OSM   H11G11035   4.667   1.632   9.844 -0.2179  0.5069  1.9311
  107OSM   C12F11036   4.714   1.787   9.707 -0.5141 -0.8339  0.7326
  107OSM   H12F11037   4.823   1.766   9.701  0.1567  2.0747  0.9305
  107OSM   H12G11038   4.694   1.896   9.701 -3.8279 -1.3728 -0.1119
  107OSM   C13F11039   4.633   1.715   9.595  0.1724  0.0531  0.7143
  107OSM   H13F11040   4.523   1.733   9.606 -0.0017  1.5774 -2.2886
  107OSM   H13G11041   4.652   1.608   9.616  0.8094 -0.0617 -0.4177
  107OSM   C14F11042   4.674   1.739   9.444  0.2034 -0.3120 -0.2776
  107OSM   H14F11043   4.783   1.717   9.447  0.1585 -0.4631  0.9575
  107OSM   H14G11044   4.653   1.848   9.438 -2.3992 -0.3939  3.3691
  107OSM   C15F11045   4.594   1.663   9.337  0.6104 -0.3395 -1.0375
  107OSM   H15F11046   4.496   1.715   9.346  1.1225  0.3386  1.7037
  107OSM   H15G11047   4.595   1.557   9.370 -0.2957 -0.2844 -0.7883
  107OSM   C16F11048   4.649   1.680   9.199  0.2058 -1.5970  0.4926
  107OSM   H16F11049   4.737   1.614   9.182  4.4531  3.2579  1.0549
  107OSM   H16G11050   4.678   1.786   9.183  1.1196 -1.6660  1.5449
  107OSM   C17F11051   4.550   1.638   9.087  0.1948  0.4828 -0.1626
  107OSM   H17F11052   4.489   1.727   9.061  1.7720  1.5220 -0.4255
  107OSM   H17G11053   4.489   1.559   9.136  0.2659  0.3911 -0.2196
  107OSM   C18F11054   4.616   1.582   8.959  0.0487 -0.2841 -1.3452
  107OSM   H18F11055   4.650   1.477   8.973 -2.5749 -1.4203 -2.8089
  107OSM   H18G11056   4.703   1.647   8.932 -0.2851  0.5691 -0.4404
  107OSM   H18H11057   4.544   1.574   8.874 -0.8171 -1.8977 -0.5053
  108OSM      N11058   1.038   4.747  10.874  0.2326 -0.3275  0.4752
  108OSM    C1511059   0.975   4.785  11.007 -0.1336  0.3595  0.2837
  108OSM   H15A11060   0.935   4.693  11.045  2.2040 -0.2474  1.4892
  108OSM   H15B11061   0.903   4.865  11.003 -2.3767 -1.5544  0.4559
  108OSM   H15C11062   1.054   4.793  11.080  1.0147 -3.4342 -0.3189
  108OSM    C1411063   1.147   4.649  10.897  0.0538  0.0848 -0.9600
  108OSM   H14A11064   1.184   4.618  10.800 -0.9063  0.0084 -1.3075
  108OSM   H14B11065   1.105   4.568  10.954  0.7410  1.0702  1.0125
  108OSM   H14C11066   1.230   4.691  10.952 -0.1751 -0.7085  0.0152
  108OSM    C1311067   0.935   4.680  10.787 -0.3450  0.2888 -0.2222
  108OSM   H13A11068   0.847   4.743  10.784 -1.0981 -0.7770 -1.1877
  108OSM   H13B11069   0.894   4.587  10.822 -2.3027  1.2648  0.2760
  108OSM   H13C11070   0.972   4.671  10.686 -0.0441  0.4189 -0.1241
  108OSM    C1211071   1.086   4.879  10.802  0.4505 -0.0104 -0.5143
  108OSM   H12A11072   1.003   4.946  10.785  0.9918 -0.0904 -4.0847
  108OSM   H12B11073   1.126   4.846  10.708  4.3003 -0.0292  0.9401
  108OSM    C1111074   1.204   4.961  10.861 -0.0945 -0.5007  0.3040
  108OSM   H11A11075   1.172   4.984  10.965  1.0373 -1.9928  1.0293
  108OSM   H11B11076   1.205   5.053  10.799 -1.4894 -0.8045 -0.1959
  108OSM      P11077   1.424   4.893  10.746  0.4786 -0.4156 -0.1221
  108OSM    O1311078   1.527   4.994  10.774  0.1057  0.2734  0.1721
  108OSM    O1411079   1.469   4.756  10.720  0.3566  0.0433  0.7464
  108OSM    O1111080   1.332   4.940  10.634 -0.1834 -0.1193  0.3746
  108OSM    O1211081   1.327   4.884  10.863 -0.3836  0.1999  0.0283
  108OSM    C1S11082   1.347   5.068  10.563  0.3747  0.0778 -0.2074
  108OSM    H1S11083   1.438   5.124  10.592  1.1639 -1.3323  0.1254
  108OSM    H1T11084   1.257   5.130  10.587  0.3261 -1.3918  4.1346
  108OSM     NF11085   1.356   5.182  10.356  0.5362  0.2259  0.4977
  108OSM    HNF11086   1.286   5.252  10.339  2.5921  2.2842 -0.0438
  108OSM    C2S11087   1.334   5.047  10.407  0.3328 -0.0263 -0.2348
  108OSM    H2S11088   1.419   4.981  10.378 -0.7821 -1.0960 -1.1340
  108OSM    C3S11089   1.196   4.976  10.378  0.1787 -0.2365 -0.4152
  108OSM    H3S11090   1.118   5.043  10.418 -0.0807 -2.0792  2.5085
  108OSM     O311091   1.167   4.860  10.446  0.2218  0.3135 -0.4606
  108OSM    HO311092   1.236   4.848  10.512 -0.2286  0.6963  0.0855
  108OSM    C4S11093   1.174   4.950  10.234 -0.7501 -0.5848  0.1537
  108OSM    H4S11094   1.260   4.913  10.175 -0.5986  3.7971 -2.7980
  108OSM    C5S11095   1.069   4.969  10.158  0.4420  0.0371 -0.3469
  108OSM    H5S11096   0.970   5.007  10.189 -1.5730 -1.8951 -3.7831
  108OSM    C6S11097   1.052   4.935  10.012  0.5487  0.2780  0.2476
  108OSM    H6S11098   1.143   4.901   9.959 -0.5029 -0.0779 -1.4195
  108OSM    H6T11099   1.011   5.029   9.970 -1.7537  0.3994  2.4920
  108OSM    C7S11100   0.952   4.822   9.986  0.4643 -1.0703  0.1455
  108OSM    H7S11101   0.859   4.843  10.042 -1.0958 -1.1916 -2.2322
  108OSM    H7T11102   0.990   4.724  10.022  0.5248 -0.3988  2.0063
  108OSM    C8S11103   0.917   4.813   9.831  0.1847  0.0909 -0.3497
  108OSM    H8S11104   0.831   4.744   9.821 -0.3462  0.1758  2.7209
  108OSM    H8T11105   1.008   4.766   9.788  1.0646  1.0793  0.3847
  108OSM    C9S11106   0.876   4.942   9.768  0.0941  0.0829  0.2891
  108OSM    H9S11107   0.934   5.033   9.792 -1.2284  0.6350  1.4902
  108OSM    H9T11108   0.779   4.975   9.810 -0.8639 -1.8179 -0.2910
  108OSM   C10S11109   0.844   4.926   9.621 -0.1816 -0.3707  0.0011
  108OSM   H10S11110   0.795   5.017   9.580 -1.3560  0.1237  2.2937
  108OSM   H10T11111   0.768   4.846   9.618 -1.1536  0.5542 -0.5032
  108OSM   C11S11112   0.962   4.882   9.539  0.6528 -0.7114  0.0409
  108OSM   H11S11113   0.992   4.779   9.568 -0.2771 -1.2214 -0.7352
  108OSM   H11T11114   1.051   4.946   9.556  1.3308 -1.7957  0.6579
  108OSM   C12S11115   0.938   4.873   9.382  0.0142 -0.1846 -0.0063
  108OSM   H12S11116   0.845   4.815   9.365  0.4470 -1.9706  3.1042
  108OSM   H12T11117   1.022   4.808   9.347  0.7787 -0.3126  1.9740
  108OSM   C13S11118   0.916   5.008   9.307  0.7516  0.5168 -0.5414
  108OSM   H13S11119   0.993   5.078   9.346  1.3437  0.5112 -1.6810
  108OSM   H13T11120   0.814   5.049   9.326  0.9738  0.8171  0.0456
  108OSM   C14S11121   0.938   4.996   9.152  0.6507 -0.7000  0.5750
  108OSM   H14S11122   1.040   4.961   9.126  1.3593  0.9508  0.9912
  108OSM   H14T11123   0.925   5.099   9.110 -1.3930  1.0119  4.8317
  108OSM   C15S11124   0.822   4.903   9.101  0.6944 -0.5045  0.7043
  108OSM   H15S11125   0.728   4.922   9.157  1.3695 -0.4256  1.8633
  108OSM   H15T11126   0.860   4.802   9.124 -0.9139 -1.4852 -0.7618
  108OSM   C16S11127   0.782   4.924   8.956 -0.3010 -0.6435 -0.4606
  108OSM   H16S11128   0.865   4.900   8.886 -0.6082 -0.4865 -0.8835
  108OSM   H16T11129   0.754   5.030   8.943  0.1388 -0.5605 -0.7915
  108OSM   C17S11130   0.666   4.842   8.923 -0.9458 -0.2654 -0.0991
  108OSM   H17S11131   0.588   4.868   8.998 -1.5304  2.7963 -1.5869
  108OSM   H17T11132   0.706   4.740   8.935  1.5564  0.0143 -4.2035
  108OSM   C18S11133   0.615   4.841   8.782 -0.3280 -0.3983 -0.4320
  108OSM   H18S11134   0.524   4.779   8.771 -0.7982 -0.3442  2.4252
  108OSM   H18T11135   0.699   4.799   8.722  1.5880  2.4580  0.0761
  108OSM   H18U11136   0.582   4.941   8.746 -1.6859  0.1290  2.0535
  108OSM    C1F11137   1.474   5.232  10.342 -0.5813 -0.8751  0.0814
  108OSM     OF11138   1.576   5.167  10.351 -0.5006  0.1509  0.0671
  108OSM    C2F11139   1.482   5.387  10.337 -0.0397  0.0942 -0.2114
  108OSM    H2F11140   1.580   5.414  10.382 -0.6261  2.0049  0.0053
  108OSM    H2G11141   1.402   5.429  10.402  1.2599 -0.5481  1.8839
  108OSM    C3F11142   1.472   5.452  10.195 -0.1155  0.1312  0.1662
  108OSM    H3F11143   1.483   5.562  10.202 -0.2597  0.1279  0.4513
  108OSM    H3G11144   1.378   5.421  10.145 -0.4115  0.4043  0.5509
  108OSM    C4F11145   1.581   5.392  10.095  0.9051  0.7438 -0.3319
  108OSM    H4F11146   1.572   5.282  10.090  3.0675  0.5716 -1.1311
  108OSM    H4G11147   1.685   5.412  10.129  0.4873  1.1382  0.7949
  108OSM    C5F11148   1.551   5.453   9.956  0.3961  0.0803  0.0907
  108OSM    H5F11149   1.565   5.563   9.968  1.2639  0.1028 -0.8916
  108OSM    H5G11150   1.446   5.427   9.930  0.4111 -0.6748  0.7689
  108OSM    C6F11151   1.631   5.395   9.838  0.0446 -0.8416 -0.3221
  108OSM    H6F11152   1.599   5.289   9.828 -1.2594 -0.3331 -2.2452
  108OSM    H6G11153   1.741   5.386   9.843 -0.0749 -2.3441  0.0598
  108OSM    C7F11154   1.605   5.473   9.712 -0.3994  0.3473  0.0013
  108OSM    H7F11155   1.621   5.583   9.721 -1.8228  0.4886  1.1964
  108OSM    H7G11156   1.496   5.456   9.699 -0.1739 -0.4855 -0.8235
  108OSM    C8F11157   1.673   5.415   9.583  0.4806 -0.3351 -0.3086
  108OSM    H8F11158   1.780   5.415   9.612 -0.0128  0.3008  1.7146
  108OSM    H8G11159   1.665   5.497   9.509 -1.4337 -0.3985 -0.2267
  108OSM    C9F11160   1.620   5.294   9.518  0.8446 -0.2382 -0.0073
  108OSM    H9F11161   1.639   5.202   9.575 -1.0783 -1.4335 -1.1633
  108OSM   C10F11162   1.559   5.277   9.396 -0.0926 -0.0578 -0.0638
  108OSM   H10F11163   1.533   5.178   9.356  0.1288  0.3414 -1.2225
  108OSM   C11F11164   1.538   5.388   9.294 -0.3473  0.0301  0.2476
  108OSM   H11F11165   1.524   5.489   9.339 -0.2747  0.6159 -0.9912
  108OSM   H11G11166   1.447   5.353   9.241 -1.0997 -0.7550  1.9840
  108OSM   C12F11167   1.652   5.393   9.182 -0.0866  0.1292 -0.3770
  108OSM   H12F11168   1.662   5.290   9.141 -0.3766  0.4795 -1.3640
  108OSM   H12G11169   1.752   5.406   9.228 -0.2667 -1.4549  0.5579
  108OSM   C13F11170   1.629   5.493   9.066  0.5305 -0.3763  0.3298
  108OSM   H13F11171   1.568   5.578   9.102  1.8267  1.0399 -0.6394
  108OSM   H13G11172   1.567   5.442   8.989  0.8530  1.7971 -1.4526
  108OSM   C14F11173   1.752   5.545   8.994 -0.4267  0.2590 -0.1024
  108OSM   H14F11174   1.809   5.465   8.942 -1.1705 -0.1064 -0.3719
  108OSM   H14G11175   1.821   5.579   9.074  0.2154 -1.2349  0.0170
  108OSM   C15F11176   1.734   5.652   8.878 -0.1320  0.1430 -0.1853
  108OSM   H15F11177   1.662   5.617   8.800 -1.8941 -0.2934  1.5441
  108OSM   H15G11178   1.828   5.676   8.825  0.3157 -0.2789  0.4177
  108OSM   C16F11179   1.689   5.795   8.921 -0.0978  0.0976  0.0478
  108OSM   H16F11180   1.588   5.792   8.969  0.1959  1.6461  0.8284
  108OSM   H16G11181   1.696   5.858   8.831 -1.3632 -0.4439 -0.4633
  108OSM   C17F11182   1.780   5.861   9.022 -1.0611 -0.3287  0.3777
  108OSM   H17F11183   1.807   5.788   9.101 -0.9893 -2.2071 -1.2826
  108OSM   H17G11184   1.728   5.944   9.073  0.2011 -0.5358  2.0925
  108OSM   C18F11185   1.902   5.924   8.962 -0.2698 -0.6576 -0.1643
  108OSM   H18F11186   1.967   5.849   8.912  0.9927  0.4546 -0.2515
  108OSM   H18G11187   1.962   5.973   9.042 -0.5656  1.0103 -0.9448
  108OSM   H18H11188   1.868   6.007   8.897  0.3712 -0.7493 -0.6237
  109OSM      N11189   1.576   0.746  10.627  0.4502  0.2399 -0.1167
  109OSM    C1511190   1.486   0.700  10.524  0.4838 -0.3141  0.4114
  109OSM   H15A11191   1.455   0.780  10.457 -2.3040  0.7386  2.7500
  109OSM   H15B11192   1.397   0.653  10.563 -0.6774  1.9560  0.6799
  109OSM   H15C11193   1.531   0.615  10.475  0.3518 -0.0204 -0.2350
  109OSM    C1411194   1.508   0.860  10.706  0.3518 -0.0259  0.6208
  109OSM   H14A11195   1.487   0.944  10.642  2.3416  1.8453  2.2705
  109OSM   H14B11196   1.565   0.903  10.788 -0.9276 -0.1242  1.5972
  109OSM   H14C11197   1.416   0.825  10.750  1.6970 -0.2777  3.4764
  109OSM    C1311198   1.608   0.641  10.732 -0.8271 -0.6362  0.3316
  109OSM   H13A11199   1.521   0.589  10.769  0.9522 -1.7563  3.3309
  109OSM   H13B11200   1.645   0.683  10.824 -1.3413 -0.8892  0.6593
  109OSM   H13C11201   1.682   0.567  10.707 -1.1613 -1.0909  0.6735
  109OSM    C1211202   1.713   0.793  10.574 -1.2624  0.2049 -0.1290
  109OSM   H12A11203   1.699   0.875  10.505 -0.4840  1.7199  1.4521
  109OSM   H12B11204   1.765   0.706  10.537  0.8898  1.5748 -0.5057
  109OSM    C1111205   1.819   0.846  10.684 -0.5538 -0.0897  0.2803
  109OSM   H11A11206   1.920   0.863  10.641 -0.7035 -0.9065 -0.4387
  109OSM   H11B11207   1.836   0.768  10.761  2.0641  1.3521  1.2574
  109OSM      P11208   1.806   1.106  10.711  0.2890 -0.2224 -0.1377
  109OSM    O1311209   1.681   1.181  10.687  0.3590 -0.0421  0.3766
  109OSM    O1411210   1.891   1.163  10.823  0.3120 -0.2824  0.2700
  109OSM    O1111211   1.892   1.097  10.578  0.8406  0.1603 -0.0634
  109OSM    O1211212   1.765   0.963  10.753 -0.5958  0.1967 -0.1362
  109OSM    C1S11213   1.923   1.220  10.512  0.6053 -0.5488 -0.4105
  109OSM    H1S11214   2.018   1.264  10.548  1.3301 -0.4892 -2.2761
  109OSM    H1T11215   1.841   1.292  10.531  1.2354 -0.6248  3.1727
  109OSM     NF11216   1.976   1.316  10.289 -1.2098  0.7141 -0.0265
  109OSM    HNF11217   1.902   1.366  10.245 -0.7640  1.1559 -0.2948
  109OSM    C2S11218   1.946   1.195  10.353  0.5125  0.5827 -0.1317
  109OSM    H2S11219   2.031   1.123  10.350  0.5408  0.4074  2.4268
  109OSM    C3S11220   1.820   1.118  10.284  0.3716 -0.0902 -1.0564
  109OSM    H3S11221   1.733   1.180  10.315  0.9551 -0.6022  1.8586
  109OSM     O311222   1.800   0.990  10.337 -0.1092  0.7316  0.4853
  109OSM    HO311223   1.858   0.994  10.413  1.9303  4.1746 -1.0502
  109OSM    C4S11224   1.832   1.119  10.135  0.0005  0.2452 -0.2278
  109OSM    H4S11225   1.762   1.190  10.089 -0.1746 -0.5684 -1.2448
  109OSM    C5S11226   1.915   1.042  10.062 -0.4019  0.3290 -0.5705
  109OSM    H5S11227   1.970   0.961  10.111  0.7420 -0.0521 -2.3804
  109OSM    C6S11228   1.926   1.047   9.909 -0.2192  0.2828 -0.1376
  109OSM    H6S11229   1.867   0.967   9.859 -1.2187  0.9316 -0.0224
  109OSM    H6T11230   2.032   1.018   9.892 -0.4838 -0.8835  0.1246
  109OSM    C7S11231   1.887   1.177   9.852  0.6526  0.2853  0.5487
  109OSM    H7S11232   1.936   1.268   9.891 -0.3873  1.1592 -0.1350
  109OSM    H7T11233   1.779   1.195   9.870  0.7493  3.2962 -1.1824
  109OSM    C8S11234   1.903   1.169   9.697 -0.0865 -0.1994 -0.0653
  109OSM    H8S11235   1.841   1.257   9.668 -2.1752 -1.1374  1.3263
  109OSM    H8T11236   1.860   1.075   9.655 -2.3533 -0.5717  2.7701
  109OSM    C9S11237   2.050   1.185   9.650  0.6896  0.0745  0.2845
  109OSM    H9S11238   2.114   1.106   9.695  1.2742 -1.5911 -3.1365
  109OSM    H9T11239   2.082   1.279   9.698 -0.7876 -0.1712  1.8262
  109OSM   C10S11240   2.064   1.200   9.498 -0.7401  0.4034  0.3955
  109OSM   H10S11241   1.963   1.197   9.452  0.0253 -1.5525 -1.3243
  109OSM   H10T11242   2.115   1.115   9.447 -0.5727  0.6119  0.2101
  109OSM   C11S11243   2.127   1.335   9.448  0.4363  0.3710 -0.3358
  109OSM   H11S11244   2.051   1.413   9.473 -0.8376 -0.2693 -2.0245
  109OSM   H11T11245   2.125   1.326   9.338 -3.2619  1.0171 -0.4675
  109OSM   C12S11246   2.265   1.367   9.496 -0.0487 -0.9725 -0.0778
  109OSM   H12S11247   2.337   1.290   9.465  1.3478  0.4500 -0.4958
  109OSM   H12T11248   2.276   1.375   9.607 -1.3587 -3.5214  0.3068
  109OSM   C13S11249   2.306   1.507   9.435  0.1039  0.2941  0.2126
  109OSM   H13S11250   2.260   1.593   9.489  2.9882  0.4518  2.6962
  109OSM   H13T11251   2.292   1.524   9.326  0.5363 -0.2215  0.0731
  109OSM   C14S11252   2.457   1.531   9.445  0.3588 -0.1782 -0.5289
  109OSM   H14S11253   2.484   1.598   9.360  0.6682  1.1028  0.5365
  109OSM   H14T11254   2.520   1.440   9.448  1.9915  0.9238  0.9338
  109OSM   C15S11255   2.501   1.615   9.571  0.7328  0.0456  0.2821
  109OSM   H15S11256   2.430   1.700   9.578 -0.8161 -1.2557  0.9407
  109OSM   H15T11257   2.603   1.658   9.555  1.3936 -1.2653  0.8859
  109OSM   C16S11258   2.494   1.542   9.710  0.6488  0.6610 -0.5405
  109OSM   H16S11259   2.412   1.467   9.704 -1.0275  2.1530  2.0217
  109OSM   H16T11260   2.456   1.614   9.785  2.2631  0.5933  0.3923
  109OSM   C17S11261   2.616   1.459   9.760 -0.7929 -0.3526  0.0956
  109OSM   H17S11262   2.711   1.515   9.744 -0.5613 -0.1600  1.9303
  109OSM   H17T11263   2.628   1.368   9.698 -1.9468 -0.6389  0.2774
  109OSM   C18S11264   2.607   1.419   9.909 -0.1213 -0.3719 -0.3087
  109OSM   H18S11265   2.704   1.371   9.934 -1.2171 -2.4263  0.2546
  109OSM   H18T11266   2.526   1.344   9.898 -0.6178  0.0164  0.5922
  109OSM   H18U11267   2.577   1.498   9.982 -1.6881 -0.9801 -0.2583
  109OSM    C1F11268   2.100   1.366  10.305 -0.1514 -0.3783  0.1655
  109OSM     OF11269   2.179   1.317  10.390  0.8481  0.1092  0.3006
  109OSM    C2F11270   2.142   1.475  10.211 -0.3169  0.4484  0.2110
  109OSM    H2F11271   2.081   1.562  10.242  1.2182  1.0241  1.8151
  109OSM    H2G11272   2.130   1.459  10.102  0.7333  1.2019 -0.0355
  109OSM    C3F11273   2.291   1.510  10.228 -0.5397  0.8261 -0.0624
  109OSM    H3F11274   2.352   1.420  10.207 -2.5899 -0.8418  0.7305
  109OSM    H3G11275   2.302   1.544  10.334 -2.0644 -0.2794  0.4803
  109OSM    C4F11276   2.342   1.618  10.131  0.6779  0.4135 -0.0624
  109OSM    H4F11277   2.310   1.574  10.034 -0.4407 -2.1074  1.3416
  109OSM    H4G11278   2.453   1.624  10.127  0.6445  0.7721 -3.3592
  109OSM    C5F11279   2.275   1.753  10.139 -0.2803 -0.5847  0.0623
  109OSM    H5F11280   2.300   1.797  10.238  2.9562 -1.1359 -0.4125
  109OSM    H5G11281   2.164   1.759  10.135 -0.2156  1.6091  0.5074
  109OSM    C6F11282   2.329   1.853  10.037 -0.1907  1.3324 -0.1860
  109OSM    H6F11283   2.440   1.853  10.045 -0.1724  0.3209 -0.3571
  109OSM    H6G11284   2.288   1.950  10.072 -2.7149  0.4625 -0.5730
  109OSM    C7F11285   2.265   1.826   9.896  0.4537  0.1579  0.1589
  109OSM    H7F11286   2.155   1.838   9.907  0.0862 -3.4068  1.8646
  109OSM    H7G11287   2.283   1.717   9.882 -1.2553  0.1480 -2.8269
  109OSM    C8F11288   2.318   1.917   9.783  0.2379  0.0861 -0.4504
  109OSM    H8F11289   2.252   1.879   9.702  1.1986  0.6126 -1.5103
  109OSM    H8G11290   2.426   1.897   9.764  0.2266  0.9547 -1.5401
  109OSM    C9F11291   2.289   2.063   9.807 -0.1567 -0.9294 -0.0479
  109OSM    H9F11292   2.304   2.099   9.910  2.6498 -0.1848 -0.6224
  109OSM   C10F11293   2.236   2.150   9.713  0.2879  0.1213  0.0626
  109OSM   H10F11294   2.214   2.255   9.739 -3.3307 -0.7481  1.1182
  109OSM   C11F11295   2.206   2.128   9.565  0.4905  0.4551  0.9017
  109OSM   H11F11296   2.100   2.120   9.536  0.6186 -1.4900  0.8380
  109OSM   H11G11297   2.247   2.028   9.539 -0.5092  0.4046 -0.5741
  109OSM   C12F11298   2.269   2.230   9.465  0.1345  0.7592 -0.0031
  109OSM   H12F11299   2.253   2.189   9.363  2.6882  3.9561 -1.8892
  109OSM   H12G11300   2.379   2.233   9.478  0.5868  1.4232 -3.1039
  109OSM   C13F11301   2.205   2.368   9.479 -0.2218 -0.1192 -0.1752
  109OSM   H13F11302   2.240   2.410   9.576  1.5327  0.7898 -1.1493
  109OSM   H13G11303   2.096   2.356   9.493 -0.4639  1.5525 -0.5256
  109OSM   C14F11304   2.235   2.464   9.370  0.7293  0.4377  0.4487
  109OSM   H14F11305   2.346   2.467   9.359  0.8082 -0.1408  1.0218
  109OSM   H14G11306   2.204   2.566   9.399 -2.1001 -0.6370  1.5144
  109OSM   C15F11307   2.176   2.419   9.238 -0.0998 -0.6209  0.2107
  109OSM   H15F11308   2.067   2.416   9.259 -0.3116  3.9532  0.9495
  109OSM   H15G11309   2.222   2.323   9.209  0.9482 -0.2851  0.6896
  109OSM   C16F11310   2.200   2.529   9.129 -0.2092  0.3936 -0.1943
  109OSM   H16F11311   2.311   2.532   9.144 -0.0913  1.4425 -1.1972
  109OSM   H16G11312   2.160   2.627   9.163 -0.9769  0.0158  0.0093
  109OSM   C17F11313   2.155   2.483   8.998  0.0697  0.7119 -0.6398
  109OSM   H17F11314   2.045   2.499   8.990 -0.6513 -2.7275  0.4486
  109OSM   H17G11315   2.173   2.373   8.988  1.0258  0.7206  0.7335
  109OSM   C18F11316   2.221   2.557   8.878 -0.1207  1.0824 -0.1234
  109OSM   H18F11317   2.329   2.581   8.888  0.1736  0.4287 -1.6255
  109OSM   H18G11318   2.161   2.647   8.853 -0.5292  1.1365  0.9804
  109OSM   H18H11319   2.208   2.497   8.786 -0.6663  1.0881 -0.0530
  110OSM      N11320   2.614   3.708  10.716  0.1749 -0.3685  0.4472
  110OSM    C1511321   2.630   3.642  10.586  0.4310  0.0048  0.4047
  110OSM   H15A11322   2.580   3.688  10.502 -0.8328 -1.2490  0.4415
  110OSM   H15B11323   2.573   3.550  10.586  0.5988 -0.1061  1.3786
  110OSM   H15C11324   2.732   3.612  10.567  0.2171 -0.9414  0.6890
  110OSM    C1411325   2.469   3.732  10.740 -0.2614 -0.0344  0.3120
  110OSM   H14A11326   2.446   3.771  10.838 -0.3041  1.6270 -0.3205
  110OSM   H14B11327   2.417   3.638  10.744  0.2511 -0.5210 -2.5822
  110OSM   H14C11328   2.412   3.791  10.669 -2.1454 -0.3025  1.5212
  110OSM    C1311329   2.672   3.614  10.821 -0.2240 -0.4061  0.0788
  110OSM   H13A11330   2.655   3.650  10.922  0.6144 -2.1257  0.8867
  110OSM   H13B11331   2.778   3.603  10.803  0.1275  2.0113  0.4004
  110OSM   H13C11332   2.613   3.523  10.820 -1.2989  0.1908  2.1151
  110OSM    C1211333   2.681   3.844  10.709 -0.0948 -0.3944  0.1902
  110OSM   H12A11334   2.625   3.900  10.636  0.2702 -1.7984 -1.2329
  110OSM   H12B11335   2.775   3.827  10.660 -0.0603 -1.9747  0.7433
  110OSM    C1111336   2.699   3.921  10.843  0.6717 -0.2545  0.9455
  110OSM   H11A11337   2.603   3.923  10.898  0.0068  0.7038 -0.1875
  110OSM   H11B11338   2.718   4.023  10.803  1.4327 -1.2101 -1.3288
  110OSM      P11339   2.945   3.841  10.879 -0.0379  0.2793  0.2808
  110OSM    O1311340   3.043   3.913  10.962  0.2815 -0.4834 -0.4678
  110OSM    O1411341   2.959   3.696  10.856 -0.4722  0.2935  0.0911
  110OSM    O1111342   2.950   3.916  10.737  0.1538 -0.0243  0.2210
  110OSM    O1211343   2.800   3.863  10.930  0.2442 -0.2253  0.1093
  110OSM    C1S11344   3.055   3.877  10.646 -0.7190 -0.4326 -0.3003
  110OSM    H1S11345   3.048   3.770  10.615 -0.8234 -0.2474 -0.9328
  110OSM    H1T11346   3.154   3.891  10.694 -1.9054 -1.2866  2.6895
  110OSM     NF11347   3.115   3.899  10.412 -0.0306 -0.0462 -0.0840
  110OSM    HNF11348   3.199   3.949  10.397 -1.4763  3.0469  1.1276
  110OSM    C2S11349   3.036   3.961  10.517 -0.3744  0.2274  0.8289
  110OSM    H2S11350   2.931   3.953  10.482  0.3557 -2.6561 -1.0031
  110OSM    C3S11351   3.067   4.115  10.542 -0.3380 -0.7870  0.1733
  110OSM    H3S11352   3.174   4.122  10.568 -0.7676 -2.0209  2.5434
  110OSM     O311353   3.003   4.169  10.657  0.1936  0.1936  0.2865
  110OSM    HO311354   2.972   4.095  10.710  0.5729  0.4907  0.9286
  110OSM    C4S11355   3.032   4.192  10.409 -1.0122  0.0467 -0.3000
  110OSM    H4S11356   2.924   4.196  10.387 -0.9834  0.3748 -0.3866
  110OSM    C5S11357   3.117   4.242  10.319  0.3123  0.3238 -0.2632
  110OSM    H5S11358   3.226   4.234  10.327  0.3156  1.0809  0.7197
  110OSM    C6S11359   3.073   4.308  10.193  0.8230 -0.5809 -0.7602
  110OSM    H6S11360   3.099   4.416  10.198 -1.2752 -0.0993  1.0036
  110OSM    H6T11361   2.963   4.307  10.184  0.8771 -1.5016 -1.4986
  110OSM    C7S11362   3.130   4.242  10.068  0.4950  0.6479  0.0840
  110OSM    H7S11363   3.092   4.137  10.070  1.1955  0.3934  0.3993
  110OSM    H7T11364   3.241   4.239  10.070  0.6069  2.9283  0.1883
  110OSM    C8S11365   3.076   4.310   9.938  0.1960  0.1982 -0.3802
  110OSM    H8S11366   2.965   4.311   9.929  0.0668 -2.5762 -0.0509
  110OSM    H8T11367   3.105   4.234   9.862 -2.4226 -0.7572 -0.5132
  110OSM    C9S11368   3.141   4.441   9.899  0.2688 -0.1854 -0.2098
  110OSM    H9S11369   3.250   4.444   9.922 -0.0719  0.2019  1.4770
  110OSM    H9T11370   3.107   4.529   9.958  0.8312  1.8930 -2.7770
  110OSM   C10S11371   3.114   4.499   9.766 -0.3899  0.0375  0.8847
  110OSM   H10S11372   3.160   4.430   9.692 -0.9065 -1.0237  1.5292
  110OSM   H10T11373   3.170   4.594   9.761  0.4303 -0.3854  1.7038
  110OSM   C11S11374   2.966   4.535   9.732  0.6240 -0.1453  0.1582
  110OSM   H11S11375   2.916   4.570   9.825 -1.6150 -0.8797 -0.7111
  110OSM   H11T11376   2.909   4.445   9.702  1.0824  0.3085 -2.2094
  110OSM   C12S11377   2.951   4.651   9.626  0.0450  0.1597 -0.3904
  110OSM   H12S11378   2.998   4.625   9.528  0.7705  0.0480 -0.0233
  110OSM   H12T11379   2.994   4.745   9.667  0.8962 -0.5610  0.4343
  110OSM   C13S11380   2.805   4.668   9.605  0.9381  0.3808 -0.1912
  110OSM   H13S11381   2.750   4.677   9.701 -0.2446  0.0185 -0.8276
  110OSM   H13T11382   2.762   4.585   9.545 -0.4572  1.5503 -0.8826
  110OSM   C14S11383   2.780   4.802   9.538 -0.2993  1.2929  0.1753
  110OSM   H14S11384   2.814   4.883   9.606  2.0270  0.0878  0.5531
  110OSM   H14T11385   2.673   4.817   9.513 -0.4587 -1.3269 -1.1517
  110OSM   C15S11386   2.855   4.817   9.405  0.5783  0.8404 -0.0642
  110OSM   H15S11387   2.845   4.717   9.358  1.3193  0.0587  1.3791
  110OSM   H15T11388   2.962   4.837   9.426  0.6939  1.6960 -1.3524
  110OSM   C16S11389   2.793   4.924   9.308  0.5159 -0.5888  0.3033
  110OSM   H16S11390   2.781   5.028   9.345 -1.4808 -1.2652  1.7327
  110OSM   H16T11391   2.691   4.882   9.291  0.4773 -0.9241  1.3390
  110OSM   C17S11392   2.864   4.914   9.169  0.3283  0.7565  0.1175
  110OSM   H17S11393   2.853   4.810   9.131  1.4547  0.3570  0.8209
  110OSM   H17T11394   2.971   4.926   9.194  0.3304 -2.7859  2.6637
  110OSM   C18S11395   2.819   5.014   9.065 -0.0877 -0.6309  0.1648
  110OSM   H18S11396   2.888   5.000   8.980  1.2060 -0.7224  1.1901
  110OSM   H18T11397   2.816   5.122   9.090 -1.8933 -0.9463  1.5551
  110OSM   H18U11398   2.717   4.981   9.037  0.2229 -0.1828 -1.5787
  110OSM    C1F11399   3.072   3.791  10.356  0.4419 -0.2018  0.8016
  110OSM     OF11400   2.962   3.750  10.375  0.2422  0.4986  0.0235
  110OSM    C2F11401   3.172   3.721  10.266  0.1633  0.3972 -0.5203
  110OSM    H2F11402   3.222   3.648  10.333 -0.5795  0.1069 -0.2626
  110OSM    H2G11403   3.249   3.787  10.221  2.7808 -0.9345  1.6944
  110OSM    C3F11404   3.097   3.643  10.148  0.3711 -0.2291 -0.1024
  110OSM    H3F11405   3.028   3.566  10.187 -1.3025  0.5918 -1.3275
  110OSM    H3G11406   3.182   3.591  10.098 -1.0420 -2.4398 -0.3415
  110OSM    C4F11407   3.025   3.729  10.043 -0.4706 -0.4685 -0.0133
  110OSM    H4F11408   2.959   3.808  10.086 -0.0470 -1.1661  2.0411
  110OSM    H4G11409   2.956   3.670   9.979 -0.3211  0.7046 -1.2921
  110OSM    C5F11410   3.126   3.802   9.947 -0.1882  0.0505  0.4043
  110OSM    H5F11411   3.206   3.733   9.914 -0.6570 -0.3748  0.1544
  110OSM    H5G11412   3.172   3.878  10.015 -2.7891  1.4449  0.7196
  110OSM    C6F11413   3.066   3.873   9.830  0.2166  0.0639  0.3147
  110OSM    H6F11414   3.005   3.958   9.868  0.9107 -0.3008  2.4151
  110OSM    H6G11415   3.005   3.790   9.790  2.4960 -0.8018 -1.6128
  110OSM    C7F11416   3.166   3.923   9.722 -0.0289 -0.1536 -1.2493
  110OSM    H7F11417   3.268   3.883   9.742 -1.1644 -2.2544  0.7636
  110OSM    H7G11418   3.181   4.033   9.733 -0.6975 -0.3094  3.1563
  110OSM    C8F11419   3.119   3.884   9.583 -0.1760  0.2986  0.5214
  110OSM    H8F11420   3.166   3.952   9.509 -2.7416 -0.9350 -2.4461
  110OSM    H8G11421   3.010   3.901   9.573 -0.8201 -1.9794  2.5935
  110OSM    C9F11422   3.140   3.744   9.531 -0.1891 -0.2382 -0.3613
  110OSM    H9F11423   3.139   3.667   9.609  3.0871  1.3079  1.4229
  110OSM   C10F11424   3.162   3.720   9.399 -0.2198  0.4491  0.6121
  110OSM   H10F11425   3.166   3.616   9.364  1.4351  0.8873 -0.5740
  110OSM   C11F11426   3.172   3.821   9.282  0.2863 -0.0141 -0.0238
  110OSM   H11F11427   3.272   3.815   9.235  0.0671 -0.2113 -0.4713
  110OSM   H11G11428   3.166   3.927   9.314  0.6810  0.4934 -1.5668
  110OSM   C12F11429   3.064   3.787   9.186 -0.0010 -0.4505 -0.1009
  110OSM   H12F11430   2.969   3.780   9.243 -0.4253 -0.3113 -0.7847
  110OSM   H12G11431   3.072   3.685   9.143 -0.4928 -0.2957 -0.5653
  110OSM   C13F11432   3.065   3.890   9.080  0.3625 -0.0321  0.6687
  110OSM   H13F11433   3.162   3.886   9.027 -0.1632  1.0794 -0.4304
  110OSM   H13G11434   3.041   3.993   9.115 -1.0294 -0.6543  1.6152
  110OSM   C14F11435   2.968   3.851   8.966  0.1788  0.2100  0.5570
  110OSM   H14F11436   2.867   3.822   9.002 -0.5342 -1.1693 -2.2738
  110OSM   H14G11437   3.012   3.762   8.915  0.0626 -1.1580  2.7249
  110OSM   C15F11438   2.921   3.972   8.880 -0.4772  0.8618 -0.4678
  110OSM   H15F11439   3.012   4.028   8.852 -0.9845  2.6315  1.1883
  110OSM   H15G11440   2.873   4.045   8.949  2.7243  3.0173 -0.3536
  110OSM   C16F11441   2.839   3.924   8.757 -0.5430  1.2255  0.1721
  110OSM   H16F11442   2.770   3.841   8.779 -1.7090  1.2110 -3.0646
  110OSM   H16G11443   2.908   3.883   8.680 -1.2343 -0.8561  0.6046
  110OSM   C17F11444   2.765   4.046   8.692  0.0656 -0.3915  0.1972
  110OSM   H17F11445   2.679   4.077   8.755 -1.6884 -1.9421 -1.3020
  110OSM   H17G11446   2.728   4.019   8.591 -1.8344  0.1448  0.7027
  110OSM   C18F11447   2.852   4.173   8.670 -0.2355  0.2415 -0.0408
  110OSM   H18F11448   2.794   4.253   8.620 -0.0229  0.1302 -0.4649
  110OSM   H18G11449   2.934   4.158   8.596  0.1877  2.4098 -0.0814
  110OSM   H18H11450   2.890   4.224   8.762  1.6927 -1.0519 -0.0426
  111OSM      N11451   4.006   2.277  10.887  0.8630 -0.2151  0.1206
  111OSM    C1511452   3.979   2.253  11.033  0.4277 -0.4359  0.1368
  111OSM   H15A11453   4.028   2.334  11.085  0.9178 -0.3327 -0.4781
  111OSM   H15B11454   4.032   2.165  11.069  0.0029 -0.9137 -0.3795
  111OSM   H15C11455   3.875   2.251  11.060  0.0385 -0.9525 -1.2934
  111OSM    C1411456   4.152   2.262  10.850  0.0215  0.0651  0.4247
  111OSM   H14A11457   4.168   2.268  10.743  1.2103 -0.9469  0.5164
  111OSM   H14B11458   4.195   2.168  10.882 -0.6244 -0.0396  0.9834
  111OSM   H14C11459   4.214   2.343  10.886 -0.9609  2.8074 -3.4352
  111OSM    C1311460   3.933   2.171  10.806  0.5061  0.3138  0.0190
  111OSM   H13A11461   3.836   2.150  10.848  1.0088  0.4150  1.2743
  111OSM   H13B11462   3.995   2.083  10.815 -2.1598 -1.4748  2.2107
  111OSM   H13C11463   3.920   2.213  10.708 -0.8095 -0.2051 -0.0479
  111OSM    C1211464   3.942   2.413  10.856 -0.6579  0.1599 -0.1094
  111OSM   H12A11465   3.975   2.489  10.925 -0.1364  2.0470 -2.2985
  111OSM   H12B11466   3.837   2.405  10.880 -0.8471  4.0349  0.9331
  111OSM    C1111467   3.964   2.482  10.713 -0.5794 -0.2130  0.1270
  111OSM   H11A11468   3.894   2.565  10.691  0.2476  0.9056  1.5644
  111OSM   H11B11469   3.959   2.399  10.639  1.6103 -0.5155  0.2464
  111OSM      P11470   4.143   2.654  10.780 -0.3932 -0.2388  0.4024
  111OSM    O1311471   4.041   2.691  10.880 -0.5673  0.0257 -0.0084
  111OSM    O1411472   4.281   2.637  10.829  0.4225  0.0598 -0.2050
  111OSM    O1111473   4.155   2.766  10.670  0.4740  0.6217  0.2220
  111OSM    O1211474   4.095   2.525  10.709  0.1211  0.2360  0.3222
  111OSM    C1S11475   4.176   2.729  10.532  0.2194 -0.4432  0.1689
  111OSM    H1S11476   4.240   2.639  10.527 -1.9330 -2.0539  0.5483
  111OSM    H1T11477   4.226   2.824  10.501 -1.6895  1.0937  1.5744
  111OSM     NF11478   4.092   2.685  10.310 -0.5536 -0.4475 -0.1670
  111OSM    HNF11479   4.082   2.761  10.247  0.2442  0.3526  0.6545
  111OSM    C2S11480   4.045   2.713  10.443  0.1083 -0.1183 -0.9377
  111OSM    H2S11481   3.991   2.622  10.475  2.0601 -0.9626  0.1639
  111OSM    C3S11482   3.954   2.833  10.461  0.0787 -0.1944 -0.5065
  111OSM    H3S11483   3.998   2.931  10.434 -1.0840  0.1665 -1.1809
  111OSM     O311484   3.912   2.857  10.598 -0.1385 -0.1424 -0.3201
  111OSM    HO311485   3.982   2.821  10.654  1.1562 -0.7395 -2.2247
  111OSM    C4S11486   3.831   2.820  10.378 -0.7739 -0.0118  0.4861
  111OSM    H4S11487   3.753   2.756  10.421  0.3222  0.3162  3.1777
  111OSM    C5S11488   3.808   2.901  10.267  0.0547 -1.1980 -0.4260
  111OSM    H5S11489   3.873   2.986  10.240 -1.4767 -0.3846 -1.6994
  111OSM    C6S11490   3.688   2.877  10.179  0.4439  0.2915 -0.3526
  111OSM    H6S11491   3.720   2.934  10.089  1.5188 -3.3446 -2.5011
  111OSM    H6T11492   3.603   2.936  10.218 -0.2341 -0.9908  0.1928
  111OSM    C7S11493   3.646   2.733  10.141  0.0262 -0.4395  0.5124
  111OSM    H7S11494   3.550   2.742  10.086  0.5092  0.2207 -0.2304
  111OSM    H7T11495   3.626   2.684  10.239  2.7591  0.4068  1.5808
  111OSM    C8S11496   3.743   2.644  10.057 -0.1273  0.2830  0.1504
  111OSM    H8S11497   3.696   2.543  10.051 -0.6829  0.5439 -0.0020
  111OSM    H8T11498   3.833   2.644  10.122 -0.8382  2.9786  1.2910
  111OSM    C9S11499   3.777   2.701   9.915 -0.5203  0.0228  0.3070
  111OSM    H9S11500   3.874   2.663   9.877 -0.3822 -0.0301  0.7059
  111OSM    H9T11501   3.796   2.811   9.919  0.1086 -0.0223 -1.0055
  111OSM   C10S11502   3.664   2.662   9.814  0.2614 -0.9360 -0.0330
  111OSM   H10S11503   3.585   2.718   9.867  1.1762  0.7371 -0.3763
  111OSM   H10T11504   3.642   2.553   9.822 -3.5285 -0.3026 -0.1458
  111OSM   C11S11505   3.683   2.721   9.676 -0.5337 -0.2331 -0.5140
  111OSM   H11S11506   3.784   2.701   9.636  0.5471  1.7469  1.0649
  111OSM   H11T11507   3.679   2.832   9.675  1.1190 -0.1347  0.0916
  111OSM   C12S11508   3.589   2.661   9.566  0.2370 -0.0370 -0.6456
  111OSM   H12S11509   3.487   2.697   9.588  0.6367  1.0480 -0.5156
  111OSM   H12T11510   3.583   2.550   9.562  0.1714 -0.0556 -0.1553
  111OSM   C13S11511   3.634   2.699   9.426  0.5858  0.2613  0.0354
  111OSM   H13S11512   3.740   2.670   9.408  0.5746 -0.2556  0.7792
  111OSM   H13T11513   3.645   2.809   9.420 -4.5579  0.9771 -0.6552
  111OSM   C14S11514   3.536   2.650   9.318  0.3415 -0.4839 -0.1609
  111OSM   H14S11515   3.435   2.689   9.340 -0.6636 -2.5548 -0.8765
  111OSM   H14T11516   3.519   2.540   9.314 -1.4557 -0.2126 -0.6348
  111OSM   C15S11517   3.578   2.700   9.179 -0.2133  1.0403  0.0965
  111OSM   H15S11518   3.685   2.679   9.158 -0.9673 -2.7543 -0.5792
  111OSM   H15T11519   3.567   2.811   9.178 -1.7024  0.9455  1.4368
  111OSM   C16S11520   3.494   2.633   9.066 -0.9088 -0.0464  0.1868
  111OSM   H16S11521   3.385   2.635   9.087 -1.2745 -1.6810 -1.2883
  111OSM   H16T11522   3.529   2.528   9.059  2.1734  0.8128  1.2366
  111OSM   C17S11523   3.527   2.700   8.929 -0.2982  0.7737 -0.1365
  111OSM   H17S11524   3.636   2.698   8.911 -0.0443 -1.4858  1.2652
  111OSM   H17T11525   3.498   2.807   8.936 -0.8304  0.5325  2.6329
  111OSM   C18S11526   3.466   2.621   8.811  0.5922 -0.5719 -0.0326
  111OSM   H18S11527   3.356   2.622   8.826  0.6216 -1.5580  0.3444
  111OSM   H18T11528   3.506   2.517   8.810  0.1276 -0.7886  1.6857
  111OSM   H18U11529   3.473   2.674   8.713  0.7131 -0.7137 -0.1019
  111OSM    C1F11530   4.157   2.574  10.271 -0.3671 -0.0984  0.2303
  111OSM     OF11531   4.172   2.483  10.354 -0.0451  0.0991  0.0389
  111OSM    C2F11532   4.209   2.574  10.129  0.3684 -0.1719  0.6400
  111OSM    H2F11533   4.297   2.641  10.141  0.4080  0.1423 -1.1341
  111OSM    H2G11534   4.135   2.624  10.063  0.9937 -0.5788 -0.3987
  111OSM    C3F11535   4.245   2.440  10.064  0.0854 -0.4308 -0.5465
  111OSM    H3F11536   4.159   2.371  10.081  0.0152  0.3710  3.2763
  111OSM    H3G11537   4.332   2.408  10.125  1.8142  1.1803 -2.0371
  111OSM    C4F11538   4.300   2.463   9.921 -0.3718 -0.1845 -0.5267
  111OSM    H4F11539   4.359   2.372   9.895 -0.2047  0.0582 -1.0215
  111OSM    H4G11540   4.383   2.535   9.937 -1.9302  1.1353  2.4597
  111OSM    C5F11541   4.199   2.508   9.814  0.8479 -0.4317  0.3217
  111OSM    H5F11542   4.175   2.616   9.817  1.3427 -0.2221 -1.6870
  111OSM    H5G11543   4.096   2.469   9.831 -1.0450  3.4825 -0.9143
  111OSM    C6F11544   4.231   2.463   9.671 -0.1599  0.3457 -0.4902
  111OSM    H6F11545   4.201   2.356   9.670 -1.3330  0.6678 -0.7193
  111OSM    H6G11546   4.340   2.478   9.658  0.1912  1.5554  2.9544
  111OSM    C7F11547   4.149   2.540   9.559  0.1367 -0.1315  0.4225
  111OSM    H7F11548   4.161   2.650   9.575 -1.9004  0.0885  0.6676
  111OSM    H7G11549   4.040   2.517   9.560  0.4985 -2.0287  2.0209
  111OSM    C8F11550   4.215   2.517   9.418 -0.3911  0.6127 -0.6202
  111OSM    H8F11551   4.220   2.406   9.417 -1.6659  0.5194  0.6093
  111OSM    H8G11552   4.310   2.575   9.422 -0.2958  0.3918  1.6302
  111OSM    C9F11553   4.121   2.572   9.313  0.5979 -0.0656 -0.1487
  111OSM    H9F11554   4.028   2.613   9.356  0.7506  1.5666 -1.2621
  111OSM   C10F11555   4.131   2.566   9.183 -0.4262  0.8155 -0.1264
  111OSM   H10F11556   4.053   2.626   9.134 -3.5000  0.4630  3.8855
  111OSM   C11F11557   4.237   2.501   9.102  0.0347  0.9945  0.2246
  111OSM   H11F11558   4.330   2.493   9.162 -1.0738 -1.2649  1.7719
  111OSM   H11G11559   4.265   2.557   9.010 -1.2160 -0.0647 -0.8258
  111OSM   C12F11560   4.201   2.356   9.052  0.2324  0.0225 -0.5989
  111OSM   H12F11561   4.159   2.295   9.135 -0.2034 -0.4603 -1.1622
  111OSM   H12G11562   4.300   2.320   9.016  1.9673  1.1698  2.6409
  111OSM   C13F11563   4.099   2.362   8.945  0.5111  0.0096 -0.4816
  111OSM   H13F11564   4.005   2.399   8.991  0.9246 -0.4058  0.7465
  111OSM   H13G11565   4.074   2.262   8.904 -0.3362  0.4197 -0.9985
  111OSM   C14F11566   4.115   2.469   8.837 -0.4713  0.1737 -0.3526
  111OSM   H14F11567   4.217   2.467   8.792 -0.7425 -1.8294 -0.9780
  111OSM   H14G11568   4.090   2.568   8.880  0.6833  0.7671 -1.0074
  111OSM   C15F11569   4.010   2.450   8.728 -0.1457 -0.6049 -0.2453
  111OSM   H15F11570   3.911   2.488   8.761 -0.0320  0.0943 -0.6949
  111OSM   H15G11571   4.003   2.340   8.709 -0.4369 -0.6163 -0.0768
  111OSM   C16F11572   4.039   2.512   8.589 -0.1493 -0.1308 -0.3419
  111OSM   H16F11573   4.142   2.481   8.564 -0.2345 -1.2247  0.5816
  111OSM   H16G11574   4.025   2.621   8.574 -0.0961 -0.4488 -3.2643
  111OSM   C17F11575   3.944   2.436   8.497 -0.6541  0.3090 -0.0709
  111OSM   H17F11576   3.967   2.327   8.502 -1.6695  0.1084  0.4878
  111OSM   H17G11577   3.964   2.474   8.395 -0.5067 -0.2582 -0.2593
  111OSM   C18F11578   3.798   2.449   8.526 -0.1927  0.2607  0.1574
  111OSM   H18F11579   3.765   2.409   8.624 -1.3071 -0.8624 -0.6375
  111OSM   H18G11580   3.753   2.380   8.451  1.0295  0.4340 -0.7635
  111OSM   H18H11581   3.758   2.548   8.495 -3.0021 -1.1418 -1.0596
  112OSM      N11582   4.978   0.218  11.075  0.5734 -0.1370  0.0109
  112OSM    C1511583   5.064   0.200  11.200  0.7099 -0.3647  0.5943
  112OSM   H15A11584   5.059   0.276  11.277 -0.1603  1.6230 -1.3044
  112OSM   H15B11585   5.167   0.191  11.170  1.1867  1.4205  1.5788
  112OSM   H15C11586   5.044   0.102  11.240  0.4409  0.3840  2.3833
  112OSM    C1411587   4.837   0.207  11.114  0.2204  0.2283  0.0739
  112OSM   H14A11588   4.811   0.296  11.170  3.0538 -0.0284  2.0057
  112OSM   H14B11589   4.814   0.126  11.182  0.2135  0.8632  0.8401
  112OSM   H14C11590   4.773   0.192  11.029 -0.0104 -1.0025  0.4371
  112OSM    C1311591   5.005   0.343  11.008 -0.3779  0.6199 -0.5641
  112OSM   H13A11592   4.919   0.370  10.948 -0.8009 -0.9746 -0.7023
  112OSM   H13B11593   5.091   0.338  10.943 -0.5662  0.2097 -0.7816
  112OSM   H13C11594   5.018   0.421  11.082  0.1511  1.4467 -1.4989
  112OSM    C1211595   5.009   0.101  10.982  0.2095 -0.7616 -0.3924
  112OSM   H12A11596   4.998   0.008  11.037 -3.0259 -0.8508 -1.0117
  112OSM   H12B11597   5.109   0.124  10.950  0.3977  2.1326  1.8914
  112OSM    C1111598   4.923   0.084  10.854 -0.3287  0.0327  0.1494
  112OSM   H11A11599   4.983   0.017  10.790  1.2143 -0.7288  2.2746
  112OSM   H11B11600   4.905   0.186  10.813 -1.2667 -0.1221  0.1595
  112OSM      P11601   4.761  -0.114  10.921 -0.4418  0.5307 -0.2932
  112OSM    O1311602   4.811  -0.136  11.058  0.7583 -0.1314 -0.3966
  112OSM    O1411603   4.618  -0.140  10.900 -0.1448  0.1946  0.2168
  112OSM    O1111604   4.849  -0.194  10.819 -0.5012  0.3983 -0.7569
  112OSM    O1211605   4.798   0.031  10.880  0.0859  0.1478  0.4770
  112OSM    C1S11606   4.829  -0.167  10.684 -0.5514 -0.6699 -0.5713
  112OSM    H1S11607   4.907  -0.099  10.641  1.3690 -1.4419  1.4935
  112OSM    H1T11608   4.729  -0.123  10.665 -0.1015 -0.0971 -1.7249
  112OSM     NF11609   4.837  -0.274  10.453  0.0056 -0.5998  0.5912
  112OSM    HNF11610   4.766  -0.311  10.395  0.1355  1.3818 -0.9416
  112OSM    C2S11611   4.843  -0.298  10.599  0.4804 -0.0855 -0.5263
  112OSM    H2S11612   4.944  -0.343  10.616  0.6552  1.2739  2.8727
  112OSM    C3S11613   4.739  -0.410  10.639 -0.3329  0.0888 -0.6046
  112OSM    H3S11614   4.646  -0.350  10.635 -0.7809 -0.5759 -0.3190
  112OSM     O311615   4.751  -0.451  10.775 -0.0490  0.1725 -0.2961
  112OSM    HO311616   4.808  -0.384  10.812  2.5125  0.2384 -3.9111
  112OSM    C4S11617   4.759  -0.530  10.553 -0.5488 -0.8491  0.6985
  112OSM    H4S11618   4.817  -0.613  10.595 -2.1130 -1.9296  0.7706
  112OSM    C5S11619   4.690  -0.551  10.439  0.2918 -0.5074  0.3327
  112OSM    H5S11620   4.634  -0.470  10.391  2.5075  0.9191 -0.0357
  112OSM    C6S11621   4.709  -0.679  10.361  0.4629  0.1486 -0.3375
  112OSM    H6S11622   4.653  -0.765  10.404 -1.3235 -0.3320 -3.2675
  112OSM    H6T11623   4.817  -0.702  10.346 -0.2702 -2.0960 -3.3262
  112OSM    C7S11624   4.650  -0.680  10.218  0.4630  0.7281 -0.7298
  112OSM    H7S11625   4.543  -0.651  10.219  0.1712 -0.2091 -1.8462
  112OSM    H7T11626   4.649  -0.786  10.183  1.4967 -0.4028  2.3572
  112OSM    C8S11627   4.725  -0.581  10.130 -0.1392  0.5025  0.3881
  112OSM    H8S11628   4.834  -0.605  10.125 -0.1080  0.8376 -0.8976
  112OSM    H8T11629   4.708  -0.483  10.179 -0.6165  0.6640 -0.0972
  112OSM    C9S11630   4.662  -0.564   9.993 -0.8774 -0.7308  0.2509
  112OSM    H9S11631   4.591  -0.645   9.965  0.7827 -1.2391 -2.8868
  112OSM    H9T11632   4.733  -0.583   9.910 -3.4624 -2.8922 -1.6451
  112OSM   C10S11633   4.604  -0.426   9.968 -0.3231 -0.7398  0.9344
  112OSM   H10S11634   4.679  -0.347   9.989  0.0747 -0.6945 -0.5238
  112OSM   H10T11635   4.518  -0.412  10.036 -2.8888 -0.9006 -2.0512
  112OSM   C11S11636   4.561  -0.408   9.822  0.3536 -0.0921  0.1992
  112OSM   H11S11637   4.474  -0.475   9.807  1.6684 -1.6743 -0.7100
  112OSM   H11T11638   4.648  -0.442   9.761  0.7050 -0.0262  0.6548
  112OSM   C12S11639   4.514  -0.261   9.797  0.3878  0.3162 -0.5085
  112OSM   H12S11640   4.599  -0.193   9.814  1.1636 -0.6696 -0.3548
  112OSM   H12T11641   4.434  -0.245   9.872  0.9712 -1.9430  0.6942
  112OSM   C13S11642   4.454  -0.242   9.660 -0.3304  0.0734  0.0138
  112OSM   H13S11643   4.398  -0.332   9.628 -0.3486 -0.6077  1.8465
  112OSM   H13T11644   4.540  -0.221   9.593 -0.9870  1.1576 -0.5172
  112OSM   C14S11645   4.360  -0.121   9.642  0.1126  0.7756  0.1981
  112OSM   H14S11646   4.271  -0.125   9.710  0.3913  0.3449  0.5412
  112OSM   H14T11647   4.305  -0.122   9.546 -1.9244  1.1035  1.2899
  112OSM   C15S11648   4.426   0.015   9.666 -0.3249  0.5168 -0.4045
  112OSM   H15S11649   4.465   0.010   9.770 -1.1825 -0.3601 -0.1046
  112OSM   H15T11650   4.352   0.097   9.666 -1.2501 -0.2094 -3.1842
  112OSM   C16S11651   4.526   0.059   9.564  0.0883 -0.2470  0.8982
  112OSM   H16S11652   4.607  -0.016   9.554  0.8189  0.6701 -0.2988
  112OSM   H16T11653   4.566   0.156   9.600 -0.7427 -0.3396  2.1173
  112OSM   C17S11654   4.467   0.090   9.415  0.4723 -0.5606 -0.1393
  112OSM   H17S11655   4.427  -0.007   9.380  0.1464 -0.2315 -0.6974
  112OSM   H17T11656   4.553   0.118   9.351 -0.1750 -0.7618 -1.1236
  112OSM   C18S11657   4.356   0.187   9.384 -1.7296  0.8814 -1.1054
  112OSM   H18S11658   4.316   0.173   9.282 -1.6475 -1.7062 -0.8432
  112OSM   H18T11659   4.393   0.292   9.379  0.8666  0.0198 -1.5931
  112OSM   H18U11660   4.278   0.173   9.462  0.9463 -1.0232  1.4939
  112OSM    C1F11661   4.928  -0.201  10.395 -0.4890 -0.5838  0.3703
  112OSM     OF11662   5.035  -0.185  10.455 -0.4501  0.1958  0.2637
  112OSM    C2F11663   4.904  -0.139  10.259 -0.6927  0.1993  0.1932
  112OSM    H2F11664   4.832  -0.056  10.273  0.3497  1.0039  0.9152
  112OSM    H2G11665   4.865  -0.227  10.203  3.1472 -0.6159 -1.5128
  112OSM    C3F11666   5.030  -0.085  10.182 -0.7565 -0.9770 -0.4420
  112OSM    H3F11667   5.086  -0.177  10.158 -0.6663 -0.6016 -1.7052
  112OSM    H3G11668   5.084  -0.022  10.256 -1.9571 -0.6032  0.1535
  112OSM    C4F11669   5.003  -0.005  10.060  0.4802 -0.3929  0.0266
  112OSM    H4F11670   5.097   0.052  10.055 -0.3886  0.9799 -2.3082
  112OSM    H4G11671   4.915   0.062  10.072 -0.6877 -1.5814 -1.4233
  112OSM    C5F11672   5.002  -0.088   9.927  0.0471 -0.4629  0.4411
  112OSM    H5F11673   4.903  -0.139   9.922  0.2774 -0.7755 -1.4854
  112OSM    H5G11674   5.078  -0.168   9.940 -0.8236 -1.7432 -1.6939
  112OSM    C6F11675   5.033  -0.009   9.795  0.8788  0.0012  0.5279
  112OSM    H6F11676   5.139   0.026   9.790  0.2822  1.9842  0.7125
  112OSM    H6G11677   4.968   0.081   9.788  0.7244 -0.1485 -0.1086
  112OSM    C7F11678   5.005  -0.096   9.674  0.6206  0.5636  0.3536
  112OSM    H7F11679   4.895  -0.092   9.655  0.2817 -3.1028  0.8992
  112OSM    H7G11680   5.032  -0.200   9.699  0.5012 -0.1753 -2.2892
  112OSM    C8F11681   5.079  -0.049   9.544 -0.5849  0.1118 -0.3867
  112OSM    H8F11682   5.105   0.058   9.554  0.2355 -0.2204  1.4475
  112OSM    H8G11683   5.011  -0.063   9.457  0.8210 -0.7197 -1.4088
  112OSM    C9F11684   5.202  -0.133   9.520  0.2677  0.4482  0.1473
  112OSM    H9F11685   5.231  -0.210   9.593  0.0644  0.1091 -0.1225
  112OSM   C10F11686   5.288  -0.111   9.420  0.1115 -0.2427 -0.1959
  112OSM   H10F11687   5.377  -0.174   9.407 -0.1617 -1.0660  1.6104
  112OSM   C11F11688   5.262  -0.007   9.316  0.1675  0.0282  0.0043
  112OSM   H11F11689   5.291   0.096   9.343  2.7828 -0.6004 -0.1430
  112OSM   H11G11690   5.153   0.003   9.296 -0.3876  1.1878  3.0702
  112OSM   C12F11691   5.334  -0.051   9.184 -0.0853 -0.5259 -0.2035
  112OSM   H12F11692   5.285  -0.136   9.131  0.0825  1.5385 -4.0420
  112OSM   H12G11693   5.439  -0.078   9.210  0.0668 -0.2659 -0.5381
  112OSM   C13F11694   5.347   0.067   9.085 -0.1244  0.7451  0.0777
  112OSM   H13F11695   5.409   0.152   9.121 -0.1804  1.3474 -1.1957
  112OSM   H13G11696   5.243   0.099   9.063 -0.9527 -1.6986  0.0609
  112OSM   C14F11697   5.395   0.025   8.945  0.2602 -0.1002  0.6486
  112OSM   H14F11698   5.312  -0.008   8.878  1.2939  1.0739 -1.2846
  112OSM   H14G11699   5.475  -0.052   8.945 -1.4766 -2.0075  1.6968
  112OSM   C15F11700   5.469   0.145   8.876  0.1637 -0.1683  0.3247
  112OSM   H15F11701   5.510   0.105   8.780 -1.1480 -0.1776 -0.2631
  112OSM   H15G11702   5.552   0.173   8.943  1.3940  0.6305 -1.4396
  112OSM   C16F11703   5.389   0.269   8.849 -0.1024 -0.5071 -0.1671
  112OSM   H16F11704   5.337   0.298   8.944 -0.8912 -0.4281 -0.6164
  112OSM   H16G11705   5.314   0.256   8.768 -1.6323  1.9113  0.7370
  112OSM   C17F11706   5.472   0.387   8.802 -0.2036  0.5331  0.1485
  112OSM   H17F11707   5.554   0.409   8.874  0.0818 -2.2405  0.7876
  112OSM   H17G11708   5.399   0.471   8.808 -1.9334 -0.7377 -1.7792
  112OSM   C18F11709   5.538   0.368   8.664  0.1270 -0.6401  0.5244
  112OSM   H18F11710   5.580   0.468   8.638 -0.0046 -0.4513  1.0208
  112OSM   H18G11711   5.459   0.322   8.600  0.5809 -0.2836 -0.3190
  112OSM   H18H11712   5.625   0.299   8.666  1.2465  0.5667 -2.0424
  113OSM      N11713   0.221   3.572  10.933  0.3526  0.1607 -0.7730
  113OSM    C1511714   0.098   3.590  11.020 -0.3303  0.3060  0.3012
  113OSM   H15A11715   0.070   3.694  11.020 -2.2900 -0.1644  1.5064
  113OSM   H15B11716   0.116   3.550  11.119  0.1054 -1.2588 -0.3751
  113OSM   H15C11717   0.014   3.537  10.978  0.4454  0.0232 -0.9294
  113OSM    C1411718   0.333   3.639  11.006 -1.2802 -0.3419  0.2524
  113OSM   H14A11719   0.307   3.727  11.062 -0.9390 -1.1416  1.7369
  113OSM   H14B11720   0.405   3.676  10.934 -0.5917 -1.6881  0.2189
  113OSM   H14C11721   0.382   3.571  11.075  1.1631 -1.5115 -2.4242
  113OSM    C1311722   0.238   3.428  10.922 -0.1356  0.1533 -0.5729
  113OSM   H13A11723   0.219   3.372  11.012 -0.6141 -0.2233 -0.9014
  113OSM   H13B11724   0.332   3.397  10.879  1.1081  1.1376  1.2666
  113OSM   H13C11725   0.156   3.393  10.861  1.1552 -0.1386 -2.2273
  113OSM    C1211726   0.195   3.636  10.794  0.0153  0.1618 -0.8554
  113OSM   H12A11727   0.163   3.738  10.805 -1.5944 -0.3111 -0.9077
  113OSM   H12B11728   0.110   3.585  10.751  0.4491 -1.0164 -0.3719
  113OSM    C1111729   0.318   3.639  10.696  0.3521 -0.1908 -0.2885
  113OSM   H11A11730   0.289   3.642  10.589 -1.5146 -0.7321  0.1708
  113OSM   H11B11731   0.366   3.539  10.709  1.3384  0.3534  0.3814
  113OSM      P11732   0.563   3.715  10.687  0.1649 -0.1593 -0.1806
  113OSM    O1311733   0.647   3.712  10.809  0.1948 -0.0562 -0.2446
  113OSM    O1411734   0.574   3.599  10.595  0.1443 -0.6580  0.0423
  113OSM    O1111735   0.593   3.852  10.626 -0.0386  0.0743  0.8468
  113OSM    O1211736   0.409   3.743  10.729  0.5440 -0.1065 -0.2569
  113OSM    C1S11737   0.708   3.888  10.543  1.0324 -0.0144  0.9901
  113OSM    H1S11738   0.785   3.807  10.538 -0.3869 -1.3644 -2.5387
  113OSM    H1T11739   0.763   3.970  10.592  1.6304 -0.1270  0.5260
  113OSM     NF11740   0.756   3.927  10.302 -0.7234  0.4833 -0.1833
  113OSM    HNF11741   0.792   4.016  10.274  3.6390 -1.0548 -0.1981
  113OSM    C2S11742   0.655   3.930  10.405 -0.2727 -0.3832  0.3265
  113OSM    H2S11743   0.574   3.858  10.383 -0.2514 -0.8690  1.7205
  113OSM    C3S11744   0.592   4.068  10.409  0.5769  0.7743  0.4314
  113OSM    H3S11745   0.659   4.153  10.434 -0.4598  1.2237  1.8104
  113OSM     O311746   0.486   4.077  10.501 -0.4243  0.3946  0.0759
  113OSM    HO311747   0.507   4.000  10.553 -1.3746  0.1875  0.1688
  113OSM    C4S11748   0.537   4.105  10.269  0.6913 -1.4585 -0.1438
  113OSM    H4S11749   0.464   4.047  10.211  0.8905  0.4008 -2.4180
  113OSM    C5S11750   0.587   4.213  10.200 -0.0813 -0.5684  0.1502
  113OSM    H5S11751   0.674   4.270  10.236 -1.7078  1.7647  0.6024
  113OSM    C6S11752   0.535   4.251  10.059 -0.0246 -0.5407  0.4236
  113OSM    H6S11753   0.577   4.186   9.978 -0.0172 -0.7433  0.5898
  113OSM    H6T11754   0.562   4.354  10.030  2.1200 -1.5856 -1.6671
  113OSM    C7S11755   0.383   4.252  10.029 -0.0365  0.1914  0.1132
  113OSM    H7S11756   0.326   4.316  10.099  0.1905  1.8032 -1.1158
  113OSM    H7T11757   0.333   4.153  10.021 -0.4982  0.4737 -0.6777
  113OSM    C8S11758   0.347   4.305   9.886  0.5310  0.7353 -0.3984
  113OSM    H8S11759   0.381   4.411   9.881  2.1680  0.3394  1.4275
  113OSM    H8T11760   0.237   4.294   9.870  0.8094  0.1935 -2.1306
  113OSM    C9S11761   0.401   4.236   9.755 -0.3241 -0.4577 -0.3590
  113OSM    H9S11762   0.363   4.132   9.767 -1.3747  0.0892  1.6248
  113OSM    H9T11763   0.512   4.243   9.757 -0.3794  0.4839 -0.2974
  113OSM   C10S11764   0.371   4.308   9.622  0.1022 -0.5259 -0.0971
  113OSM   H10S11765   0.425   4.405   9.633 -1.1311  0.0817  0.8373
  113OSM   H10T11766   0.263   4.331   9.613  0.1337 -0.7370 -1.2291
  113OSM   C11S11767   0.425   4.242   9.495  0.3164  0.2077 -0.0517
  113OSM   H11S11768   0.367   4.152   9.467  2.7905 -1.8944  1.1604
  113OSM   H11T11769   0.529   4.203   9.500 -0.3198 -1.8069 -1.4717
  113OSM   C12S11770   0.420   4.346   9.373 -0.3106 -0.0755  0.5355
  113OSM   H12S11771   0.479   4.437   9.394 -1.0122  1.2903 -2.7567
  113OSM   H12T11772   0.320   4.388   9.350  0.8248  2.2323 -0.4685
  113OSM   C13S11773   0.487   4.286   9.237  1.1320  0.3626 -0.0580
  113OSM   H13S11774   0.431   4.192   9.216 -0.2880  0.8261  1.4390
  113OSM   H13T11775   0.591   4.255   9.256  1.5514  1.4812 -0.4380
  113OSM   C14S11776   0.455   4.381   9.123  0.1808  0.0478  0.1587
  113OSM   H14S11777   0.487   4.487   9.132  0.4843  0.0229 -0.5623
  113OSM   H14T11778   0.346   4.376   9.102  0.7281  0.3501 -3.4775
  113OSM   C15S11779   0.514   4.327   8.989  0.7514  0.1169  0.1629
  113OSM   H15S11780   0.464   4.230   8.967  0.7889 -0.2812  1.7080
  113OSM   H15T11781   0.619   4.299   9.015  0.0214 -2.2529  0.8305
  113OSM   C16S11782   0.522   4.428   8.872  0.2869 -0.5917  0.2237
  113OSM   H16S11783   0.564   4.386   8.779 -1.0736 -2.4080  0.3753
  113OSM   H16T11784   0.592   4.511   8.897 -1.0355  2.0636 -3.9282
  113OSM   C17S11785   0.387   4.504   8.841 -0.2178  0.2823 -0.5365
  113OSM   H17S11786   0.409   4.580   8.763  0.6003 -2.7418 -3.4259
  113OSM   H17T11787   0.351   4.554   8.934  0.9797 -1.6219  1.0486
  113OSM   C18S11788   0.280   4.412   8.790  0.5263  0.0485  0.3057
  113OSM   H18S11789   0.328   4.340   8.721  0.6714  0.2557  0.1914
  113OSM   H18T11790   0.200   4.462   8.731 -0.0109 -1.7138 -0.5081
  113OSM   H18U11791   0.222   4.360   8.869 -0.9066 -0.0155 -0.7427
  113OSM    C1F11792   0.815   3.817  10.257 -0.1641  0.0293  0.1394
  113OSM     OF11793   0.786   3.702  10.293 -1.1019 -0.1731 -0.0715
  113OSM    C2F11794   0.919   3.842  10.147  0.4387 -0.2438  0.0395
  113OSM    H2F11795   1.002   3.910  10.176  0.8552 -0.8676  0.3482
  113OSM    H2G11796   0.855   3.889  10.069 -0.8518 -0.8649  0.6918
  113OSM    C3F11797   0.990   3.714  10.110  0.2341 -0.1625 -1.1856
  113OSM    H3F11798   0.923   3.628  10.089  3.1954 -2.8788 -0.3049
  113OSM    H3G11799   1.047   3.683  10.201  0.0949  0.8019 -0.7580
  113OSM    C4F11800   1.091   3.725   9.992  0.2374  0.8504  0.1216
  113OSM    H4F11801   1.143   3.821  10.010 -0.8569  0.9656  3.1263
  113OSM    H4G11802   1.036   3.734   9.895 -0.9502 -1.0653  0.5591
  113OSM    C5F11803   1.199   3.608   9.983  0.2460  0.1240  0.1956
  113OSM    H5F11804   1.231   3.568  10.082  1.1406  0.8413  0.2082
  113OSM    H5G11805   1.295   3.659   9.960  1.0266 -0.6863  1.4991
  113OSM    C6F11806   1.183   3.504   9.876 -0.0256  0.4722  0.0799
  113OSM    H6F11807   1.274   3.440   9.869  0.4645  1.3519 -3.1868
  113OSM    H6G11808   1.186   3.568   9.786 -0.8409  0.1281 -0.2021
  113OSM    C7F11809   1.057   3.413   9.865  0.4069  0.0791  0.0896
  113OSM    H7F11810   0.969   3.480   9.853 -0.5491 -1.2975 -0.9177
  113OSM    H7G11811   1.045   3.348   9.955  0.4681 -1.6966 -1.1366
  113OSM    C8F11812   1.061   3.317   9.741 -0.8364  0.5686  0.2560
  113OSM    H8F11813   1.159   3.265   9.736 -2.1001 -2.0188 -5.0643
  113OSM    H8G11814   1.057   3.383   9.651 -1.7513 -1.4300 -1.2287
  113OSM    C9F11815   0.944   3.222   9.731  0.6249  0.9618  0.0393
  113OSM    H9F11816   0.935   3.156   9.819  0.5551 -1.5063 -1.7183
  113OSM   C10F11817   0.845   3.199   9.640 -0.1550  0.0422 -0.4970
  113OSM   H10F11818   0.770   3.118   9.649  1.0865 -1.2552 -1.3287
  113OSM   C11F11819   0.826   3.286   9.522  0.1465  0.2276 -0.1317
  113OSM   H11F11820   0.912   3.349   9.491  0.6780 -0.1465  0.5791
  113OSM   H11G11821   0.744   3.358   9.542  0.9196  1.0811  0.0351
  113OSM   C12F11822   0.773   3.207   9.399 -0.6507 -0.1847 -0.8165
  113OSM   H12F11823   0.684   3.141   9.415 -0.4302 -0.1887  0.5379
  113OSM   H12G11824   0.847   3.131   9.368  0.0482 -0.8295  2.0888
  113OSM   C13F11825   0.727   3.287   9.274  0.1958 -0.7634 -0.1154
  113OSM   H13F11826   0.807   3.336   9.215 -0.0688  0.7403  0.7363
  113OSM   H13G11827   0.663   3.374   9.300  0.6691 -0.4607  0.0431
  113OSM   C14F11828   0.636   3.208   9.178 -0.0323 -0.1480 -0.3738
  113OSM   H14F11829   0.532   3.205   9.217  0.5723 -0.2020  1.3180
  113OSM   H14G11830   0.672   3.103   9.168 -0.7230 -0.3445 -0.9302
  113OSM   C15F11831   0.633   3.279   9.038 -0.2909 -0.2097  0.1665
  113OSM   H15F11832   0.566   3.224   8.968 -1.0186  0.2415  0.5012
  113OSM   H15G11833   0.738   3.289   9.001  0.4444 -1.5982  1.7443
  113OSM   C16F11834   0.565   3.424   9.034 -0.1522  0.4008  0.4312
  113OSM   H16F11835   0.618   3.497   9.098 -0.7099  0.6982  0.5587
  113OSM   H16G11836   0.463   3.420   9.078 -0.1814  1.6468  0.5029
  113OSM   C17F11837   0.573   3.494   8.897  0.0391  0.4554 -0.2463
  113OSM   H17F11838   0.675   3.494   8.852  0.6332  0.2769  1.0382
  113OSM   H17G11839   0.558   3.598   8.931  0.7067 -0.3550  2.8222
  113OSM   C18F11840   0.466   3.448   8.798  0.2145  0.2573 -0.2040
  113OSM   H18F11841   0.466   3.337   8.794 -0.5413 -0.0089  3.5404
  113OSM   H18G11842   0.479   3.490   8.696 -2.1787 -0.6922 -0.9770
  113OSM   H18H11843   0.370   3.489   8.837  0.3139  0.9139 -0.6343
  114OSM      N11844   2.792   5.747  10.847 -0.4236 -0.2991 -0.4010
  114OSM    C1511845   2.752   5.867  10.928 -0.0516  0.5122  0.6359
  114OSM   H15A11846   2.842   5.920  10.957  0.7696  0.1107 -1.0814
  114OSM   H15B11847   2.687   5.839  11.010  0.2414 -1.3371  0.2647
  114OSM   H15C11848   2.697   5.935  10.864 -2.0146 -0.9214  0.7103
  114OSM    C1411849   2.668   5.672  10.815  0.3051  0.0754  0.2453
  114OSM   H14A11850   2.694   5.572  10.781  1.5602  0.9823 -1.6100
  114OSM   H14B11851   2.606   5.731  10.749  0.9858  1.5087  0.8518
  114OSM   H14C11852   2.609   5.660  10.905  1.5305  0.8842  1.1740
  114OSM    C1311853   2.847   5.790  10.714  0.7241  0.4763 -0.6068
  114OSM   H13A11854   2.884   5.891  10.703 -2.0390  1.3451 -3.2068
  114OSM   H13B11855   2.761   5.796  10.650 -0.0407 -0.0536  0.3525
  114OSM   H13C11856   2.919   5.715  10.684  0.6666 -0.8255  2.1848
  114OSM    C1211857   2.879   5.653  10.926  0.1354 -0.4179  0.4441
  114OSM   H12A11858   2.823   5.631  11.016 -1.7303  1.2561 -0.2338
  114OSM   H12B11859   2.977   5.694  10.943  0.2643 -0.0980 -0.9308
  114OSM    C1111860   2.917   5.519  10.851  0.1623 -0.2002 -0.5454
  114OSM   H11A11861   2.995   5.473  10.916  1.6848 -0.4114 -2.4333
  114OSM   H11B11862   2.967   5.544  10.755 -2.3348  1.3728 -1.5272
  114OSM      P11863   2.819   5.311  10.732 -0.3046 -0.3566  0.5488
  114OSM    O1311864   2.931   5.222  10.773  0.5309  0.4210 -0.5665
  114OSM    O1411865   2.684   5.251  10.711 -0.1056  0.3985  0.5296
  114OSM    O1111866   2.868   5.393  10.600  0.1660 -0.0106  0.2328
  114OSM    O1211867   2.807   5.428  10.841 -0.2286 -0.2692  0.1032
  114OSM    C1S11868   2.867   5.320  10.475  0.5146 -0.3381  0.1811
  114OSM    H1S11869   2.766   5.283  10.449  0.9492 -0.1681 -1.8911
  114OSM    H1T11870   2.943   5.239  10.486  0.1288 -0.7523 -0.1925
  114OSM     NF11871   2.938   5.309  10.240 -0.3305 -0.9137  0.3458
  114OSM    HNF11872   3.031   5.279  10.221 -0.1659 -0.9855  1.2370
  114OSM    C2S11873   2.927   5.402  10.351 -0.0858  0.0744  0.0778
  114OSM    H2S11874   2.848   5.472  10.317 -0.4876  0.8459  2.4045
  114OSM    C3S11875   3.057   5.480  10.392  0.1979  0.0627  0.0827
  114OSM    H3S11876   3.129   5.405  10.430  0.3904  0.5694  0.7487
  114OSM     O311877   3.033   5.572  10.507  0.0616  0.3786 -0.4164
  114OSM    HO311878   2.964   5.522  10.550 -0.3731  0.1697 -1.3311
  114OSM    C4S11879   3.109   5.550  10.277  0.4036  0.4386  0.4434
  114OSM    H4S11880   3.193   5.490  10.239 -0.9872 -1.1226 -0.2231
  114OSM    C5S11881   3.081   5.675  10.234  0.4749 -0.0847 -0.1899
  114OSM    H5S11882   3.019   5.738  10.299 -0.2925 -1.3847  0.3839
  114OSM    C6S11883   3.161   5.752  10.123  1.0787  0.0918 -0.3974
  114OSM    H6S11884   3.234   5.683  10.076  1.4470 -0.9915  1.6123
  114OSM    H6T11885   3.209   5.843  10.164 -0.4487  1.1551 -0.8783
  114OSM    C7S11886   3.063   5.808  10.014  0.1723  0.6738  0.0822
  114OSM    H7S11887   3.014   5.896  10.061  2.2524  1.2747  1.2416
  114OSM    H7T11888   2.999   5.726   9.975 -0.3611  1.5996 -1.0612
  114OSM    C8S11889   3.150   5.854   9.902  0.2000 -0.1085 -0.3295
  114OSM    H8S11890   3.225   5.774   9.887 -0.4533 -0.6766 -0.6246
  114OSM    H8T11891   3.209   5.944   9.930 -0.2290  0.4979 -1.2767
  114OSM    C9S11892   3.079   5.882   9.766  0.4153  0.1301 -0.1346
  114OSM    H9S11893   2.985   5.937   9.790 -0.9309 -0.5464 -3.3591
  114OSM    H9T11894   3.048   5.783   9.726  0.2553  0.4033 -0.7038
  114OSM   C10S11895   3.154   5.963   9.661 -0.4039 -0.5205  0.1589
  114OSM   H10S11896   3.259   5.941   9.690 -0.7340 -1.1286  0.9465
  114OSM   H10T11897   3.124   6.070   9.670 -3.8830 -1.5180  2.6441
  114OSM   C11S11898   3.123   5.909   9.524 -0.6087  0.3827  0.8587
  114OSM   H11S11899   3.135   5.990   9.449  2.6346 -0.7097  0.0138
  114OSM   H11T11900   3.021   5.866   9.515 -0.3876 -0.0851  0.5619
  114OSM   C12S11901   3.223   5.807   9.480 -0.0516 -0.1705 -0.4993
  114OSM   H12S11902   3.214   5.720   9.548  1.6306 -0.1715 -0.2281
  114OSM   H12T11903   3.327   5.844   9.490  0.7284 -1.8529 -1.8584
  114OSM   C13S11904   3.197   5.778   9.332  0.2221  0.2548  0.0451
  114OSM   H13S11905   3.090   5.757   9.314  0.4867 -0.0933 -1.2453
  114OSM   H13T11906   3.244   5.682   9.303 -0.6887 -0.0405 -0.4726
  114OSM   C14S11907   3.257   5.891   9.244  0.0121 -0.1571 -0.6308
  114OSM   H14S11908   3.366   5.888   9.227  0.7723 -1.1064  3.4300
  114OSM   H14T11909   3.246   5.990   9.294 -0.5823 -0.4376 -0.1842
  114OSM   C15S11910   3.191   5.892   9.103 -1.3219  0.2085  0.3002
  114OSM   H15S11911   3.083   5.915   9.110 -1.7370 -1.1455 -1.3023
  114OSM   H15T11912   3.199   5.790   9.062 -0.2413 -0.2405  1.5418
  114OSM   C16S11913   3.254   5.983   8.994  0.6918  0.4639  0.0864
  114OSM   H16S11914   3.360   5.958   8.970  0.5569 -0.3518  0.3103
  114OSM   H16T11915   3.251   6.089   9.029 -0.1872  1.7181 -3.3582
  114OSM   C17S11916   3.169   5.976   8.863  0.0669 -0.8225  0.3158
  114OSM   H17S11917   3.196   6.063   8.800  1.0354 -0.5056  1.1298
  114OSM   H17T11918   3.068   5.973   8.910  0.2102 -2.8609  0.6195
  114OSM   C18S11919   3.195   5.846   8.780  0.0220  0.1124  0.6121
  114OSM   H18S11920   3.143   5.835   8.682 -0.8563 -0.2366  1.1054
  114OSM   H18T11921   3.159   5.759   8.839 -1.4080 -0.3874 -0.8993
  114OSM   H18U11922   3.303   5.820   8.767  0.3795  1.7720 -0.0225
  114OSM    C1F11923   2.837   5.251  10.181  0.7513  0.4386 -0.0606
  114OSM     OF11924   2.730   5.270  10.239  0.4365  0.2311 -0.2104
  114OSM    C2F11925   2.854   5.163  10.063 -0.1225 -0.0971  0.4958
  114OSM    H2F11926   2.750   5.149  10.025  0.3521 -0.8764 -0.5543
  114OSM    H2G11927   2.903   5.065  10.077  1.3901  0.4072 -0.9391
  114OSM    C3F11928   2.941   5.235   9.957 -0.2730  0.3227 -0.1692
  114OSM    H3F11929   2.952   5.164   9.872  0.4104 -0.4922  0.5752
  114OSM    H3G11930   3.037   5.240  10.013 -1.1956 -1.4865  1.7289
  114OSM    C4F11931   2.873   5.366   9.908  0.2557 -0.2488  0.0469
  114OSM    H4F11932   2.850   5.435   9.992 -0.9108  1.1163 -1.3358
  114OSM    H4G11933   2.770   5.342   9.872  0.8521 -3.5627  0.2914
  114OSM    C5F11934   2.949   5.437   9.795 -0.3728  0.1580  0.1354
  114OSM    H5F11935   3.057   5.427   9.814 -0.3920 -0.0573  0.1355
  114OSM    H5G11936   2.924   5.545   9.796  1.2639  0.5638 -0.5075
  114OSM    C6F11937   2.929   5.389   9.651 -0.2124 -0.2551  0.3369
  114OSM    H6F11938   2.821   5.383   9.630 -0.3768  1.3365  0.6147
  114OSM    H6G11939   2.978   5.290   9.632  1.0425  0.6300 -1.3654
  114OSM    C7F11940   3.004   5.472   9.550  0.5686 -0.3735  0.1371
  114OSM    H7F11941   3.107   5.468   9.591  0.3398 -1.4922  0.6480
  114OSM    H7G11942   2.967   5.577   9.542  1.1295 -0.2006 -0.2302
  114OSM    C8F11943   2.988   5.416   9.407 -0.0216 -0.5150 -0.7164
  114OSM    H8F11944   3.009   5.307   9.413 -1.8796 -1.0298 -2.5977
  114OSM    H8G11945   3.067   5.462   9.345  2.4288 -1.2180  1.6670
  114OSM    C9F11946   2.851   5.424   9.349 -0.3055 -0.2675  0.0824
  114OSM    H9F11947   2.771   5.385   9.413 -1.2043 -2.5093 -2.2820
  114OSM   C10F11948   2.826   5.462   9.221  0.1708 -0.5960 -0.3539
  114OSM   H10F11949   2.725   5.462   9.178 -0.1880  1.2834  0.3728
  114OSM   C11F11950   2.937   5.494   9.126 -0.0568 -0.1204  0.0126
  114OSM   H11F11951   3.013   5.562   9.171 -0.0910  0.8109 -1.2648
  114OSM   H11G11952   2.897   5.568   9.054  1.9907  2.0685  0.9772
  114OSM   C12F11953   2.989   5.376   9.038 -1.0881  0.3433 -0.2054
  114OSM   H12F11954   2.915   5.294   9.038 -1.4742  0.6670  1.6833
  114OSM   H12G11955   3.069   5.337   9.105 -2.4813 -0.5696  0.9844
  114OSM   C13F11956   3.033   5.407   8.892 -0.0294 -0.0064 -0.1545
  114OSM   H13F11957   3.045   5.305   8.850  1.7711 -0.3281  1.0282
  114OSM   H13G11958   3.131   5.457   8.897  0.5991 -1.2677  0.9835
  114OSM   C14F11959   2.938   5.486   8.800 -0.1715 -0.8805  0.2996
  114OSM   H14F11960   2.910   5.585   8.843 -0.6947 -0.2279 -1.4355
  114OSM   H14G11961   2.840   5.435   8.789  0.6971 -2.2097 -1.8088
  114OSM   C15F11962   3.002   5.511   8.663  0.3312  0.4184  0.2410
  114OSM   H15F11963   2.999   5.419   8.600  0.2790  0.3994  0.2706
  114OSM   H15G11964   3.108   5.540   8.675  0.0925  1.1237  0.7054
  114OSM   C16F11965   2.935   5.629   8.594 -0.2024 -0.5507  0.5735
  114OSM   H16F11966   2.925   5.721   8.655 -1.9031 -0.4705  0.2348
  114OSM   H16G11967   2.828   5.610   8.572 -0.7002  0.8193  1.6577
  114OSM   C17F11968   3.001   5.650   8.455  0.1103 -0.3196 -0.1355
  114OSM   H17F11969   2.997   5.559   8.391 -2.5470 -0.2541 -0.1963
  114OSM   H17G11970   3.104   5.687   8.475 -0.6268  2.8162 -1.3946
  114OSM   C18F11971   2.928   5.766   8.376 -0.3012  0.2955 -0.0097
  114OSM   H18F11972   2.946   5.869   8.415 -1.5614  0.6995 -0.4493
  114OSM   H18G11973   2.820   5.740   8.366 -0.3887  0.5976  0.1260
  114OSM   H18H11974   2.967   5.772   8.273 -0.9425 -0.6397 -0.3260
  115OSM      N11975   2.480   6.268  10.709  0.2830 -0.1191  0.1891
  115OSM    C1511976   2.472   6.270  10.857 -0.4803  0.1725  0.3761
  115OSM   H15A11977   2.551   6.328  10.902 -0.5228  0.9106 -0.4715
  115OSM   H15B11978   2.470   6.171  10.899 -1.8317 -0.1385 -0.3471
  115OSM   H15C11979   2.380   6.314  10.895  0.0010 -0.5731  2.5353
  115OSM    C1411980   2.602   6.184  10.666  1.2996  0.7863 -0.2469
  115OSM   H14A11981   2.684   6.224  10.724 -0.9678  3.1385  1.5705
  115OSM   H14B11982   2.615   6.194  10.560 -0.0736 -1.3000 -0.6652
  115OSM   H14C11983   2.583   6.078  10.673 -2.0200  1.1744 -1.5786
  115OSM    C1311984   2.359   6.198  10.659  0.3860 -0.0224 -0.4387
  115OSM   H13A11985   2.348   6.103  10.710 -1.3052 -1.1314 -2.7033
  115OSM   H13B11986   2.365   6.182  10.552  2.2685  1.4803 -0.6116
  115OSM   H13C11987   2.279   6.267  10.679  0.6732 -0.4339  2.5801
  115OSM    C1211988   2.489   6.410  10.652  0.5947 -0.0652  0.6150
  115OSM   H12A11989   2.400   6.468  10.673 -0.6036 -1.5305 -0.1999
  115OSM   H12B11990   2.504   6.387  10.548  1.9477 -2.1641  1.1955
  115OSM    C1111991   2.609   6.492  10.703  0.4480  0.6085  0.6788
  115OSM   H11A11992   2.628   6.567  10.624 -0.6131  1.0569  0.8348
  115OSM   H11B11993   2.699   6.427  10.715 -1.4982 -2.7045 -1.0913
  115OSM      P11994   2.484   6.672  10.832 -0.4826  0.1184 -0.3649
  115OSM    O1311995   2.423   6.694  10.961  0.1961 -0.1608 -0.8307
  115OSM    O1411996   2.563   6.788  10.781 -0.0535 -0.5616  0.3031
  115OSM    O1111997   2.368   6.638  10.738 -0.1836  0.0650  0.1749
  115OSM    O1211998   2.586   6.553  10.827  0.0154 -0.5634  0.3652
  115OSM    C1S11999   2.363   6.692  10.605 -0.1276  0.4549 -0.0906
  115OSM    H1S12000   2.454   6.673  10.544  1.1470  4.0862  0.4508
  115OSM    H1T12001   2.352   6.802  10.606  0.7133  0.5850 -1.7786
  115OSM     NF12002   2.246   6.674  10.378 -0.4951 -0.5335  0.1329
  115OSM    HNF12003   2.189   6.745  10.339 -0.7139 -0.5439  0.4313
  115OSM    C2S12004   2.243   6.641  10.516 -0.1445  1.1918 -0.4112
  115OSM    H2S12005   2.258   6.531  10.518  3.1689  1.5269  1.6865
  115OSM    C3S12006   2.115   6.669  10.599  0.7777 -0.3826  0.3242
  115OSM    H3S12007   2.103   6.776  10.628 -1.2321 -0.6298  0.5614
  115OSM     O312008   2.112   6.609  10.728 -0.2151 -0.0033  0.0578
  115OSM    HO312009   2.197   6.567  10.744 -0.5029 -0.4533  0.4294
  115OSM    C4S12010   1.983   6.627  10.535 -0.5745 -0.2206  0.6104
  115OSM    H4S12011   1.988   6.526  10.490 -1.8161 -0.1462  0.2885
  115OSM    C5S12012   1.864   6.692  10.546 -0.6742  0.5168  0.3826
  115OSM    H5S12013   1.866   6.791  10.595  0.5783  0.7669 -0.1338
  115OSM    C6S12014   1.723   6.651  10.500 -0.2452  0.3925 -0.1002
  115OSM    H6S12015   1.677   6.742  10.455  0.8353  0.3668 -1.3019
  115OSM    H6T12016   1.654   6.634  10.586  0.4467 -0.0122  0.3837
  115OSM    C7S12017   1.698   6.533  10.404 -0.1340  0.4122  0.2104
  115OSM    H7S12018   1.589   6.515  10.400 -0.1078  0.4865 -2.2480
  115OSM    H7T12019   1.753   6.446  10.446  0.6820  0.4402 -0.7596
  115OSM    C8S12020   1.735   6.570  10.261 -0.6316  0.4953  0.4338
  115OSM    H8S12021   1.836   6.618  10.261  0.0132 -0.7864 -0.4040
  115OSM    H8T12022   1.668   6.651  10.226  1.0749  1.2051 -1.3909
  115OSM    C9S12023   1.728   6.465  10.153 -0.3428 -0.3420 -0.2930
  115OSM    H9S12024   1.626   6.423  10.136 -2.0073  2.4391  1.8175
  115OSM    H9T12025   1.808   6.391  10.171 -0.0827 -0.2935 -1.2256
  115OSM   C10S12026   1.762   6.527  10.009  0.1407 -0.1973  0.2534
  115OSM   H10S12027   1.860   6.578  10.000 -0.6672  1.1163 -2.2478
  115OSM   H10T12028   1.681   6.601   9.992 -0.6106 -1.1689 -0.4801
  115OSM   C11S12029   1.751   6.436   9.894  0.0159 -0.7796  0.5349
  115OSM   H11S12030   1.654   6.384   9.886  0.6961 -2.2505  1.4335
  115OSM   H11T12031   1.830   6.358   9.901  0.3075 -0.7765 -1.8266
  115OSM   C12S12032   1.762   6.510   9.753  0.6006 -0.4662  0.0612
  115OSM   H12S12033   1.868   6.538   9.734  0.3715  0.7047  0.4497
  115OSM   H12T12034   1.696   6.597   9.733  0.9372 -0.4574 -1.1074
  115OSM   C13S12035   1.741   6.414   9.633  0.2912  0.1847  0.1024
  115OSM   H13S12036   1.641   6.369   9.652 -0.4398  2.3732  1.8316
  115OSM   H13T12037   1.808   6.326   9.640  3.2869  2.3133 -0.2638
  115OSM   C14S12038   1.746   6.477   9.497  0.4506  0.2750 -1.1221
  115OSM   H14S12039   1.833   6.545   9.503  0.0447  0.6850  1.7728
  115OSM   H14T12040   1.670   6.558   9.507 -1.0986 -1.3577  2.8624
  115OSM   C15S12041   1.728   6.391   9.371  0.5894  0.0917 -0.4556
  115OSM   H15S12042   1.630   6.339   9.383 -0.2103  1.1907 -1.9292
  115OSM   H15T12043   1.819   6.327   9.376  1.1759  0.8889 -0.7135
  115OSM   C16S12044   1.723   6.474   9.246 -0.4473 -0.0306 -0.1678
  115OSM   H16S12045   1.804   6.549   9.251 -0.8822  0.7387 -2.8319
  115OSM   H16T12046   1.632   6.539   9.242  1.4841  3.0627  1.9642
  115OSM   C17S12047   1.743   6.401   9.117  0.0093 -0.4495  0.1398
  115OSM   H17S12048   1.733   6.467   9.029  1.3532  1.8608  1.6177
  115OSM   H17T12049   1.660   6.328   9.111 -1.7392  1.2948  1.6365
  115OSM   C18S12050   1.872   6.319   9.101  0.7691 -0.2876  0.0319
  115OSM   H18S12051   1.868   6.269   9.002  0.2798 -0.6282  0.2199
  115OSM   H18T12052   1.904   6.244   9.176 -0.1076 -0.2420  0.4710
  115OSM   H18U12053   1.959   6.385   9.079  1.0554  0.0458  1.9678
  115OSM    C1F12054   2.337   6.622  10.293  0.2088 -0.0473 -0.3886
  115OSM     OF12055   2.399   6.523  10.316 -0.2275  0.1314  0.2984
  115OSM    C2F12056   2.359   6.703  10.173  0.0561 -0.0585  0.1897
  115OSM    H2F12057   2.398   6.804  10.199  0.1060 -0.6673  2.8006
  115OSM    H2G12058   2.262   6.717  10.122 -0.4923  0.0831  1.2480
  115OSM    C3F12059   2.451   6.646  10.070  0.3488  0.3212 -0.1366
  115OSM    H3F12060   2.419   6.550  10.023 -2.6477  1.4849 -0.7301
  115OSM    H3G12061   2.548   6.626  10.118 -0.8466 -2.6233  1.2721
  115OSM    C4F12062   2.473   6.737   9.949  0.2975  0.0097 -0.1663
  115OSM    H4F12063   2.511   6.831   9.995  0.6434 -0.8324  1.3467
  115OSM    H4G12064   2.374   6.759   9.903 -0.4322 -0.9828  0.8684
  115OSM    C5F12065   2.555   6.665   9.852 -1.1389 -0.2685 -0.0768
  115OSM    H5F12066   2.506   6.580   9.800  1.3969 -1.1671 -1.1744
  115OSM    H5G12067   2.641   6.619   9.907 -1.3639  0.1487  0.6383
  115OSM    C6F12068   2.610   6.761   9.748 -0.8138  0.2606 -0.2456
  115OSM    H6F12069   2.676   6.833   9.801 -1.5145  0.2232  0.6962
  115OSM    H6G12070   2.520   6.803   9.700 -1.1438 -0.3821 -0.1974
  115OSM    C7F12071   2.685   6.679   9.641 -0.4073 -0.7384 -0.2744
  115OSM    H7F12072   2.631   6.583   9.630 -2.4467  0.2184  0.7268
  115OSM    H7G12073   2.784   6.657   9.686  0.4905 -0.8133 -2.1640
  115OSM    C8F12074   2.709   6.755   9.511 -0.3121  0.4124  0.5569
  115OSM    H8F12075   2.787   6.830   9.535  1.6121 -1.8190  1.6150
  115OSM    H8G12076   2.620   6.813   9.479 -1.7543 -1.3840  1.1647
  115OSM    C9F12077   2.758   6.654   9.408  0.2678  0.3164  0.2224
  115OSM    H9F12078   2.844   6.594   9.443 -0.9374 -1.4400  0.2681
  115OSM   C10F12079   2.704   6.620   9.290  0.4380 -0.2020  0.9050
  115OSM   H10F12080   2.767   6.563   9.219 -0.9795  0.5609 -1.0373
  115OSM   C11F12081   2.579   6.678   9.230 -0.1078 -0.7162 -0.2559
  115OSM   H11F12082   2.492   6.675   9.299 -1.8878 -1.9537 -2.4251
  115OSM   H11G12083   2.547   6.607   9.151  1.0997 -1.0084 -0.5032
  115OSM   C12F12084   2.603   6.815   9.171 -0.2246  0.3690  0.7667
  115OSM   H12F12085   2.704   6.829   9.126  0.4130  2.5505  2.6686
  115OSM   H12G12086   2.607   6.890   9.253  3.9711 -1.9830  3.1008
  115OSM   C13F12087   2.499   6.854   9.064 -0.8657 -0.3404 -0.3371
  115OSM   H13F12088   2.399   6.827   9.103 -1.6100  0.5321 -1.5458
  115OSM   H13G12089   2.514   6.784   8.978  1.5290 -1.9297  1.2624
  115OSM   C14F12090   2.510   7.007   9.021 -0.2162  0.3577  0.3612
  115OSM   H14F12091   2.583   7.013   8.937 -1.0061 -0.4305 -0.4032
  115OSM   H14G12092   2.560   7.052   9.109 -1.3534  0.8145  0.7843
  115OSM   C15F12093   2.380   7.072   8.974  0.0657 -0.3309  0.6133
  115OSM   H15F12094   2.305   7.061   9.054  0.9289 -1.6072  1.2857
  115OSM   H15G12095   2.353   7.006   8.888 -0.1257  0.8663 -0.2786
  115OSM   C16F12096   2.402   7.216   8.924 -0.5919  0.0293  0.0966
  115OSM   H16F12097   2.500   7.225   8.873  0.3689 -1.3524  1.5843
  115OSM   H16G12098   2.408   7.282   9.013  1.8781 -0.1550  0.1546
  115OSM   C17F12099   2.294   7.271   8.824 -0.1889  0.2232  0.2569
  115OSM   H17F12100   2.198   7.234   8.865 -0.1504  1.5246  1.5919
  115OSM   H17G12101   2.308   7.222   8.725 -0.8040 -2.7090  1.5294
  115OSM   C18F12102   2.279   7.422   8.812  0.0434 -0.4094  0.7076
  115OSM   H18F12103   2.258   7.462   8.913  0.2443 -1.3188  1.1184
  115OSM   H18G12104   2.191   7.439   8.746 -1.3188 -1.8413  2.0678
  115OSM   H18H12105   2.373   7.468   8.776  1.8166 -3.7066  0.7083
  116OSM      N12106   3.573   2.812  11.059 -0.1289 -0.4696  0.2036
  116OSM    C1512107   3.465   2.902  11.106 -0.5110 -0.4466 -0.5102
  116OSM   H15A12108   3.426   2.969  11.031  1.3311 -1.1328 -2.1570
  116OSM   H15B12109   3.499   2.957  11.193  0.2513 -1.4331 -0.1631
  116OSM   H15C12110   3.384   2.842  11.146  0.2252 -1.1982 -0.1148
  116OSM    C1412111   3.684   2.894  11.011 -0.1823 -0.3961 -0.0615
  116OSM   H14A12112   3.653   2.961  10.932  2.0679  0.8644  0.0352
  116OSM   H14B12113   3.769   2.833  10.985  0.5204 -0.4240  2.1142
  116OSM   H14C12114   3.718   2.958  11.090  0.0211  0.4270 -0.7971
  116OSM    C1312115   3.617   2.728  11.174 -0.2706  0.5320  0.1052
  116OSM   H13A12116   3.697   2.660  11.152  0.4395  1.0326  1.0774
  116OSM   H13B12117   3.539   2.657  11.195  1.5510 -1.5935 -0.0482
  116OSM   H13C12118   3.627   2.770  11.273 -0.6383 -2.1874  1.3615
  116OSM    C1212119   3.524   2.734  10.939 -0.2870 -0.1018  0.5910
  116OSM   H12A12120   3.473   2.807  10.877  0.8210  0.4594  0.3269
  116OSM   H12B12121   3.451   2.661  10.971  0.8676 -1.8800 -0.6891
  116OSM    C1112122   3.630   2.652  10.862 -0.1437  0.5087 -0.2718
  116OSM   H11A12123   3.726   2.706  10.847  0.9672 -0.9157  1.3659
  116OSM   H11B12124   3.583   2.624  10.766 -0.9505  1.2900 -0.1178
  116OSM      P12125   3.600   2.397  10.930 -0.3604  0.0350  0.3068
  116OSM    O1312126   3.676   2.311  11.021 -0.4160 -0.0259  0.2672
  116OSM    O1412127   3.453   2.415  10.953 -0.6833 -0.3696  0.3813
  116OSM    O1112128   3.640   2.364  10.780  0.3102  0.7780 -0.4494
  116OSM    O1212129   3.670   2.536  10.933 -0.6899 -0.3848 -0.0043
  116OSM    C1S12130   3.539   2.369  10.680 -0.4501 -0.2943  0.3975
  116OSM    H1S12131   3.469   2.455  10.689  0.0914  0.3361 -1.0543
  116OSM    H1T12132   3.463   2.290  10.697 -0.0881 -0.4214  1.4727
  116OSM     NF12133   3.502   2.458  10.455  0.0439  0.3912  0.0035
  116OSM    HNF12134   3.463   2.410  10.377  1.0796 -1.0053  0.3076
  116OSM    C2S12135   3.604   2.391  10.535  0.1997  0.1063 -0.2856
  116OSM    H2S12136   3.702   2.444  10.536  0.7697 -0.8705 -1.4455
  116OSM    C3S12137   3.646   2.252  10.477 -0.1656 -0.3641  0.3088
  116OSM    H3S12138   3.557   2.195  10.441  0.1751  0.0665 -1.3130
  116OSM     O312139   3.706   2.169  10.574 -0.2719 -0.0279 -0.0301
  116OSM    HO312140   3.695   2.218  10.656  0.1100 -1.5334  0.9706
  116OSM    C4S12141   3.716   2.274  10.349 -0.9054  0.0145  0.2820
  116OSM    H4S12142   3.642   2.284  10.269 -1.4283 -0.0918  0.7480
  116OSM    C5S12143   3.847   2.280  10.318 -0.5237 -0.4267 -0.1141
  116OSM    H5S12144   3.928   2.274  10.391  1.5055  0.9448 -2.1097
  116OSM    C6S12145   3.898   2.296  10.173  0.5101 -0.4234 -0.3903
  116OSM    H6S12146   3.993   2.238  10.165  0.3007 -0.8270  0.0355
  116OSM    H6T12147   3.921   2.405  10.168  2.3927 -0.6993  1.0399
  116OSM    C7S12148   3.807   2.251  10.060  0.1814  0.2801 -0.3905
  116OSM    H7S12149   3.715   2.313  10.052  0.1950  0.2358 -0.9288
  116OSM    H7T12150   3.779   2.144  10.070  1.5470  0.1131  3.0674
  116OSM    C8S12151   3.885   2.273   9.930  0.4227  0.7288  0.2874
  116OSM    H8S12152   3.964   2.197   9.914 -0.8384 -0.8256  1.2044
  116OSM    H8T12153   3.914   2.381   9.931  0.1803  0.9416 -3.0722
  116OSM    C9S12154   3.800   2.266   9.808 -0.3149  0.6299  0.7078
  116OSM    H9S12155   3.711   2.332   9.807 -0.1546  0.8689 -0.9577
  116OSM    H9T12156   3.783   2.157   9.796  1.5397  0.4402 -0.6676
  116OSM   C10S12157   3.871   2.309   9.681  0.6073  0.7051  0.3203
  116OSM   H10S12158   3.973   2.269   9.663  0.1330 -0.9620  1.1526
  116OSM   H10T12159   3.875   2.420   9.684  0.7074  0.6855  1.5249
  116OSM   C11S12160   3.767   2.276   9.563 -0.2752 -0.8661  0.6172
  116OSM   H11S12161   3.671   2.331   9.576  0.2137 -0.3020  2.0235
  116OSM   H11T12162   3.753   2.166   9.557  2.8102 -1.3583  0.5528
  116OSM   C12S12163   3.833   2.319   9.425 -0.5817  0.2728  0.7512
  116OSM   H12S12164   3.932   2.275   9.399 -0.7436  0.6627 -0.5728
  116OSM   H12T12165   3.851   2.429   9.433  2.3768 -0.0666 -0.1155
  116OSM   C13S12166   3.737   2.306   9.300  0.3784  0.3929 -0.0036
  116OSM   H13S12167   3.703   2.410   9.281 -0.6260  0.5397  2.2139
  116OSM   H13T12168   3.642   2.252   9.320 -1.0687  2.7859  0.0232
  116OSM   C14S12169   3.801   2.256   9.172 -0.1241  0.0242 -0.0148
  116OSM   H14S12170   3.849   2.157   9.189  0.3517  0.0409 -1.1802
  116OSM   H14T12171   3.886   2.313   9.129  0.7818 -1.1250  0.1945
  116OSM   C15S12172   3.694   2.258   9.064  0.5301  0.4525  0.0371
  116OSM   H15S12173   3.661   2.360   9.033 -3.9511 -0.6309  0.4811
  116OSM   H15T12174   3.601   2.202   9.090 -0.1443  2.2578  1.7057
  116OSM   C16S12175   3.750   2.188   8.935 -0.0869 -0.4304 -0.2073
  116OSM   H16S12176   3.757   2.080   8.960  0.0227 -0.5818 -0.8721
  116OSM   H16T12177   3.842   2.242   8.906  0.6199 -0.9309  1.0390
  116OSM   C17S12178   3.649   2.190   8.810 -0.0543  0.3514  0.5941
  116OSM   H17S12179   3.717   2.204   8.724  1.8906  4.9877  2.5870
  116OSM   H17T12180   3.598   2.288   8.811 -1.0974 -0.1723  1.1298
  116OSM   C18S12181   3.542   2.088   8.788 -0.4277  0.0341  0.0300
  116OSM   H18S12182   3.587   1.987   8.780 -0.0604  0.3061 -1.8441
  116OSM   H18T12183   3.493   2.110   8.691  1.5545  1.0396 -0.8162
  116OSM   H18U12184   3.461   2.080   8.864 -1.4345 -0.8979 -1.1111
  116OSM    C1F12185   3.461   2.583  10.469 -0.7795  0.2551  0.1976
  116OSM     OF12186   3.511   2.668  10.537 -0.3823 -0.2180  0.3612
  116OSM    C2F12187   3.330   2.614  10.404  0.6405  0.1034 -0.1430
  116OSM    H2F12188   3.251   2.628  10.481  1.8619 -2.3169  1.7083
  116OSM    H2G12189   3.299   2.524  10.348 -0.7566  1.1264 -1.0813
  116OSM    C3F12190   3.335   2.741  10.321 -0.0996 -0.4585  0.0973
  116OSM    H3F12191   3.431   2.748  10.266  1.1107  0.9434  2.2770
  116OSM    H3G12192   3.344   2.824  10.394  0.0751 -0.4996  0.1219
  116OSM    C4F12193   3.204   2.767  10.241 -0.4460 -0.0188  0.5564
  116OSM    H4F12194   3.110   2.767  10.300 -1.0453  0.9193 -0.3742
  116OSM    H4G12195   3.194   2.680  10.173 -1.3958  0.9566 -0.5929
  116OSM    C5F12196   3.210   2.896  10.160 -0.3924 -0.2170 -0.6925
  116OSM    H5F12197   3.257   2.974  10.224  0.2392  0.9144 -2.4578
  116OSM    H5G12198   3.106   2.925  10.134 -0.9304 -0.8669  0.6368
  116OSM    C6F12199   3.290   2.895  10.026 -0.0641 -0.1489 -0.3302
  116OSM    H6F12200   3.245   2.817   9.960 -0.2320  0.1840 -0.6113
  116OSM    H6G12201   3.398   2.875  10.044  0.3739  2.5054  0.4099
  116OSM    C7F12202   3.290   3.029   9.947 -0.2123 -0.2652  0.0555
  116OSM    H7F12203   3.305   3.119  10.011  2.2563 -0.5039 -0.0815
  116OSM    H7G12204   3.186   3.035   9.908 -0.9219 -0.2344  1.8865
  116OSM    C8F12205   3.398   3.034   9.833  0.4603  0.4402  0.3568
  116OSM    H8F12206   3.497   3.026   9.883  0.3743 -0.9086  0.3375
  116OSM    H8G12207   3.397   3.136   9.788  1.9716  1.1040  1.7204
  116OSM    C9F12208   3.374   2.932   9.729 -0.3404  0.7598 -0.0389
  116OSM    H9F12209   3.392   2.831   9.768  0.4569  2.3933  4.2998
  116OSM   C10F12210   3.322   2.949   9.607 -0.3833  0.1490  0.2165
  116OSM   H10F12211   3.297   2.864   9.542 -1.3069  0.7360 -0.2134
  116OSM   C11F12212   3.258   3.082   9.562  0.0821 -0.1401 -0.5349
  116OSM   H11F12213   3.270   3.155   9.644 -1.8404 -0.9161  0.5111
  116OSM   H11G12214   3.150   3.059   9.575  0.3449 -0.6069  0.9889
  116OSM   C12F12215   3.318   3.125   9.431 -0.1619  0.3429 -0.3089
  116OSM   H12F12216   3.301   3.043   9.358  1.4954  0.3005 -0.7031
  116OSM   H12G12217   3.427   3.136   9.451 -0.3989  0.6249  0.9333
  116OSM   C13F12218   3.263   3.254   9.368  0.0445  0.0319 -0.2892
  116OSM   H13F12219   3.303   3.340   9.427 -0.9928 -0.5091  1.2644
  116OSM   H13G12220   3.153   3.253   9.387  0.2725  1.4724  1.2948
  116OSM   C14F12221   3.310   3.285   9.226  0.0828 -0.0452 -0.5415
  116OSM   H14F12222   3.288   3.194   9.166 -2.4327  0.2648 -0.1984
  116OSM   H14G12223   3.418   3.296   9.245 -0.1648  0.0047  0.9241
  116OSM   C15F12224   3.241   3.402   9.156  0.5455 -0.3410 -0.1487
  116OSM   H15F12225   3.251   3.489   9.224 -2.2183 -0.5766  0.6653
  116OSM   H15G12226   3.132   3.385   9.159  0.5917 -0.4630  1.6998
  116OSM   C16F12227   3.310   3.427   9.020 -0.1835 -0.2004 -0.1989
  116OSM   H16F12228   3.415   3.396   9.041  0.4274  1.2229 -1.0219
  116OSM   H16G12229   3.301   3.533   8.989  2.0546  0.0456 -0.1628
  116OSM   C17F12230   3.260   3.332   8.906  0.1370  0.0963  0.1198
  116OSM   H17F12231   3.155   3.362   8.886  0.8880  1.2748 -2.3899
  116OSM   H17G12232   3.247   3.226   8.937  0.6096 -0.0689 -0.2397
  116OSM   C18F12233   3.332   3.330   8.772 -0.6250 -0.2436  0.5201
  116OSM   H18F12234   3.293   3.254   8.701  0.8104  1.6766 -2.5865
  116OSM   H18G12235   3.441   3.306   8.780 -0.3267  0.3147 -1.3581
  116OSM   H18H12236   3.320   3.430   8.726  1.6548  0.3272  1.0584
  117OSM      N12237   1.716   2.963  10.735  0.7009 -0.4824  0.5770
  117OSM    C1512238   1.718   2.864  10.843  0.0241 -0.2126  0.5231
  117OSM   H15A12239   1.631   2.877  10.906  0.5064 -0.6911  1.2994
  117OSM   H15B12240   1.805   2.852  10.906 -0.4570 -0.0725  1.2280
  117OSM   H15C12241   1.690   2.770  10.799  0.3225 -1.3279  2.5537
  117OSM    C1412242   1.812   2.924  10.628 -0.4638  0.1403 -0.8946
  117OSM   H14A12243   1.779   2.970  10.536 -0.3371 -1.7879 -1.9528
  117OSM   H14B12244   1.813   2.819  10.605 -1.6974  0.3805 -2.2388
  117OSM   H14C12245   1.913   2.949  10.656 -0.8592 -0.0174  0.7838
  117OSM    C1312246   1.576   2.959  10.668 -0.4354  0.4078 -0.4949
  117OSM   H13A12247   1.501   2.986  10.740 -0.9143 -0.3029 -0.7210
  117OSM   H13B12248   1.559   2.857  10.638 -1.5358  0.3355  0.3435
  117OSM   H13C12249   1.572   3.022  10.580  1.2177  2.2286  0.6473
  117OSM    C1212250   1.734   3.103  10.768 -0.2418  0.1339  0.0871
  117OSM   H12A12251   1.832   3.123  10.809 -0.7836  3.4378  0.0176
  117OSM   H12B12252   1.653   3.140  10.829  0.0149  0.5369  0.1877
  117OSM    C1112253   1.724   3.206  10.654 -0.3495  0.4664 -0.8713
  117OSM   H11A12254   1.622   3.200  10.610 -0.7074 -1.3223  0.1016
  117OSM   H11B12255   1.802   3.176  10.582 -0.7830 -2.7513 -0.1588
  117OSM      P12256   1.662   3.436  10.782 -0.3744  0.3885  0.2252
  117OSM    O1312257   1.585   3.371  10.889 -0.1215  0.6122  0.6376
  117OSM    O1412258   1.747   3.547  10.817  0.6598  0.0876  0.2104
  117OSM    O1112259   1.560   3.480  10.675  0.1382 -0.2440 -0.0058
  117OSM    O1212260   1.757   3.331  10.710 -0.0537 -0.2793  0.0945
  117OSM    C1S12261   1.591   3.503  10.535  0.0372  0.8334 -0.4995
  117OSM    H1S12262   1.687   3.455  10.508 -0.3861  0.7521 -1.9592
  117OSM    H1T12263   1.612   3.612  10.531  0.8734  0.7920  1.6302
  117OSM     NF12264   1.512   3.465  10.298  0.4327 -0.1085 -0.1918
  117OSM    HNF12265   1.482   3.551  10.258  1.1918 -0.9653 -2.8148
  117OSM    C2S12266   1.479   3.445  10.441  0.1879 -0.5234  0.0120
  117OSM    H2S12267   1.468   3.335  10.455  0.2394 -0.6454 -0.8057
  117OSM    C3S12268   1.342   3.510  10.484  0.3586  0.1796  0.6009
  117OSM    H3S12269   1.341   3.619  10.502 -0.7945 -0.1099  2.6153
  117OSM     O312270   1.293   3.468  10.613  0.2814  0.1559 -0.4031
  117OSM    HO312271   1.376   3.437  10.651  0.0589 -0.2634 -0.2519
  117OSM    C4S12272   1.233   3.462  10.384  0.7225  0.2868  0.3960
  117OSM    H4S12273   1.178   3.543  10.333 -1.2706  0.1609  2.2477
  117OSM    C5S12274   1.187   3.344  10.346  0.9887 -0.0057 -0.0717
  117OSM    H5S12275   1.220   3.252  10.395 -0.0474  0.0574  0.7706
  117OSM    C6S12276   1.079   3.327  10.239  0.2207 -0.1005  0.1264
  117OSM    H6S12277   1.123   3.274  10.152  0.1416  0.1092 -0.0415
  117OSM    H6T12278   1.042   3.426  10.207  0.7517 -0.5163 -1.9589
  117OSM    C7S12279   0.955   3.246  10.289  0.5038 -0.0632  0.0866
  117OSM    H7S12280   0.912   3.301  10.376 -0.6079 -0.4941 -0.1637
  117OSM    H7T12281   0.992   3.153  10.337 -0.2932 -0.4796 -0.0810
  117OSM    C8S12282   0.846   3.199  10.189 -0.0828 -0.8211 -0.3117
  117OSM    H8S12283   0.771   3.137  10.243 -1.9253 -0.4378 -2.2596
  117OSM    H8T12284   0.892   3.133  10.113  1.7273 -0.8631  0.7686
  117OSM    C9S12285   0.775   3.313  10.112  0.1380  0.8858  0.5733
  117OSM    H9S12286   0.842   3.343  10.029  0.0385  0.3010  0.2745
  117OSM    H9T12287   0.744   3.390  10.185 -1.4511 -0.7829  1.7683
  117OSM   C10S12288   0.655   3.255  10.038  0.3226 -1.0064 -0.0756
  117OSM   H10S12289   0.562   3.232  10.093 -1.6550  1.4454 -2.1360
  117OSM   H10T12290   0.692   3.155  10.003  4.7857 -1.1936  4.1247
  117OSM   C11S12291   0.622   3.353   9.921  0.7000 -0.7241  0.3444
  117OSM   H11S12292   0.713   3.382   9.864  0.3449  1.1206  0.6654
  117OSM   H11T12293   0.570   3.439   9.967  0.2781 -0.5419 -0.4620
  117OSM   C12S12294   0.521   3.309   9.810 -0.4715  0.4819 -0.0412
  117OSM   H12S12295   0.445   3.238   9.849 -0.4453  1.0227  1.0319
  117OSM   H12T12296   0.578   3.251   9.735  0.1159 -0.0957  0.8307
  117OSM   C13S12297   0.436   3.428   9.748  0.2075 -0.3781  0.2514
  117OSM   H13S12298   0.507   3.506   9.713  0.8730 -1.3719 -0.6914
  117OSM   H13T12299   0.384   3.477   9.833 -2.1455 -2.5766  0.1917
  117OSM   C14S12300   0.344   3.378   9.641 -0.1018  0.3276 -1.0842
  117OSM   H14S12301   0.276   3.296   9.672  0.1169 -0.1803 -1.8953
  117OSM   H14T12302   0.417   3.335   9.569  1.6940 -0.7744  1.2625
  117OSM   C15S12303   0.259   3.488   9.577 -0.6263  0.5196 -0.1164
  117OSM   H15S12304   0.214   3.558   9.651 -1.0486  0.0595  0.0668
  117OSM   H15T12305   0.172   3.436   9.533 -1.8024 -0.0284  2.6639
  117OSM   C16S12306   0.334   3.563   9.467  0.1580  0.0653 -0.3709
  117OSM   H16S12307   0.444   3.547   9.474  0.5662  0.7907 -3.7101
  117OSM   H16T12308   0.325   3.672   9.488 -0.0098  0.1009 -0.6255
  117OSM   C17S12309   0.310   3.528   9.322  0.5068 -1.1947 -0.5198
  117OSM   H17S12310   0.201   3.518   9.304  0.2504 -2.0856  1.2498
  117OSM   H17T12311   0.350   3.432   9.282  2.0707  0.4434 -3.0978
  117OSM   C18S12312   0.371   3.642   9.239 -0.4727 -0.1552  0.5066
  117OSM   H18S12313   0.330   3.745   9.244  1.6235  0.9860 -2.8599
  117OSM   H18T12314   0.363   3.616   9.131 -0.8038  0.6036  0.3426
  117OSM   H18U12315   0.479   3.647   9.264  0.3086  0.1578 -2.4630
  117OSM    C1F12316   1.596   3.383  10.228  0.3755  0.3244 -0.3998
  117OSM     OF12317   1.659   3.288  10.280 -0.1429 -0.2039  0.3289
  117OSM    C2F12318   1.608   3.417  10.083 -0.3225 -1.0786  0.6319
  117OSM    H2F12319   1.511   3.452  10.042  0.8668  2.5152  0.5505
  117OSM    H2G12320   1.621   3.326  10.021 -2.1085 -0.5012 -0.6715
  117OSM    C3F12321   1.715   3.521  10.059 -0.2951  1.1967  0.5365
  117OSM    H3F12322   1.810   3.474  10.094 -1.7559 -3.0684 -0.6353
  117OSM    H3G12323   1.706   3.606  10.129 -1.9754  0.4203  1.3133
  117OSM    C4F12324   1.721   3.573   9.912 -0.1567  0.1730 -0.5875
  117OSM    H4F12325   1.732   3.485   9.846 -0.4229  1.0152 -1.7873
  117OSM    H4G12326   1.812   3.635   9.907  1.1001 -1.1612  2.8980
  117OSM    C5F12327   1.611   3.673   9.878  0.2214  0.3748  0.3828
  117OSM    H5F12328   1.626   3.769   9.933  3.4606 -0.2064  0.6840
  117OSM    H5G12329   1.518   3.632   9.922  0.7888 -2.4693 -0.8930
  117OSM    C6F12330   1.594   3.704   9.726  0.3557 -0.3654 -0.5881
  117OSM    H6F12331   1.615   3.612   9.666  0.2599 -0.5510 -0.3391
  117OSM    H6G12332   1.675   3.773   9.693  0.3548 -0.1329 -0.1004
  117OSM    C7F12333   1.462   3.770   9.687  0.2154  0.4945  0.1895
  117OSM    H7F12334   1.453   3.868   9.739 -0.2787  1.1199 -1.0087
  117OSM    H7G12335   1.378   3.708   9.725  0.8607 -0.7204 -0.3423
  117OSM    C8F12336   1.431   3.790   9.534  0.4339 -0.0306 -0.3320
  117OSM    H8F12337   1.450   3.697   9.476  1.8756  1.3557 -2.2201
  117OSM    H8G12338   1.513   3.862   9.512 -1.4850  2.3179 -0.2525
  117OSM    C9F12339   1.291   3.849   9.510  0.0478 -0.5098  0.6543
  117OSM    H9F12340   1.268   3.957   9.512 -1.1369 -0.7567  0.4387
  117OSM   C10F12341   1.181   3.768   9.497 -0.0875  0.3290  0.0173
  117OSM   H10F12342   1.083   3.812   9.473 -0.0766 -0.2660 -1.1863
  117OSM   C11F12343   1.186   3.618   9.507  0.6063 -0.0327 -0.3284
  117OSM   H11F12344   1.088   3.592   9.553  1.3789  0.2211  1.5172
  117OSM   H11G12345   1.262   3.582   9.579  1.2563 -0.7530 -1.3377
  117OSM   C12F12346   1.204   3.532   9.375 -0.5503  0.7505  0.7465
  117OSM   H12F12347   1.235   3.431   9.410  1.5267  0.8041 -0.7893
  117OSM   H12G12348   1.294   3.576   9.328 -0.5110  0.7901  0.8575
  117OSM   C13F12349   1.076   3.534   9.294  0.4844  0.3049 -0.3279
  117OSM   H13F12350   1.054   3.642   9.281 -1.9220 -0.2177 -0.9591
  117OSM   H13G12351   0.993   3.492   9.353 -1.3000  0.4931 -2.5648
  117OSM   C14F12352   1.087   3.448   9.171  0.5752  0.2047 -0.1377
  117OSM   H14F12353   1.154   3.486   9.091 -1.5766 -1.6711 -3.0341
  117OSM   H14G12354   0.989   3.449   9.119  0.7212  0.5449 -0.4121
  117OSM   C15F12355   1.125   3.297   9.191 -0.7716  0.7788 -0.6758
  117OSM   H15F12356   1.064   3.265   9.278  0.6067  0.6522  0.2808
  117OSM   H15G12357   1.226   3.281   9.234 -0.9687  1.6540  0.1468
  117OSM   C16F12358   1.089   3.207   9.067  0.0582 -0.1314  0.2099
  117OSM   H16F12359   0.998   3.253   9.023 -0.1772 -0.6490  0.1502
  117OSM   H16G12360   1.076   3.102   9.101  1.1858 -0.2666  0.2531
  117OSM   C17F12361   1.205   3.208   8.970  0.2707 -0.2186  0.3227
  117OSM   H17F12362   1.289   3.144   9.002  0.0101 -0.2761  0.8935
  117OSM   H17G12363   1.235   3.313   8.949  1.1541 -0.6882 -0.9067
  117OSM   C18F12364   1.152   3.153   8.834 -0.5564  0.5882  0.3283
  117OSM   H18F12365   1.129   3.044   8.838 -0.0158  0.1232 -4.0113
  117OSM   H18G12366   1.231   3.162   8.756 -0.3440  1.2322  0.6138
  117OSM   H18H12367   1.063   3.204   8.792 -1.2254 -0.0692  0.9162
  118OSM      N12368   1.537   5.556  10.831 -0.4743  0.6791  0.6354
  118OSM    C1512369   1.595   5.659  10.742  0.6785 -0.4096 -0.8125
  118OSM   H15A12370   1.664   5.717  10.801 -1.7272  0.9515  0.8196
  118OSM   H15B12371   1.522   5.712  10.683  0.4705 -0.5598 -0.6943
  118OSM   H15C12372   1.664   5.605  10.679  0.7415 -0.6894 -0.5102
  118OSM    C1412373   1.646   5.488  10.916  0.7877 -0.2843 -0.4554
  118OSM   H14A12374   1.671   5.543  11.005 -0.6641  1.4924 -1.0951
  118OSM   H14B12375   1.734   5.463  10.857  1.5660  0.0667  0.5316
  118OSM   H14C12376   1.603   5.394  10.948 -0.9323  1.3777  2.4833
  118OSM    C1312377   1.444   5.618  10.922 -0.3099 -0.6420  0.1958
  118OSM   H13A12378   1.406   5.540  10.986 -2.2513 -1.9482 -2.3098
  118OSM   H13B12379   1.375   5.676  10.861  1.4813  0.2004 -1.1276
  118OSM   H13C12380   1.484   5.695  10.986 -0.5576 -0.7916  0.5349
  118OSM    C1212381   1.470   5.447  10.747 -0.0793  0.6065  0.4547
  118OSM   H12A12382   1.431   5.373  10.816  1.3910  0.4970  1.2175
  118OSM   H12B12383   1.546   5.390  10.694 -1.7722  0.2656 -1.7208
  118OSM    C1112384   1.349   5.488  10.666  0.4192 -0.1954  0.3050
  118OSM   H11A12385   1.321   5.411  10.591  1.4005 -0.9341  0.6735
  118OSM   H11B12386   1.379   5.579  10.610 -0.4819 -0.5672 -0.8309
  118OSM      P12387   1.153   5.408  10.834  0.3577  0.0422  0.2076
  118OSM    O1312388   1.244   5.315  10.909 -0.1543 -0.0648  0.4482
  118OSM    O1412389   1.040   5.479  10.902 -0.2047 -0.2233  0.5425
  118OSM    O1112390   1.093   5.329  10.717  0.4753 -0.2852 -0.1341
  118OSM    O1212391   1.234   5.520  10.749 -0.2790 -0.2512 -0.2883
  118OSM    C1S12392   1.035   5.400  10.613  0.3591 -0.1128  0.4274
  118OSM    H1S12393   1.106   5.467  10.561  1.4868 -0.9191  0.8952
  118OSM    H1T12394   0.944   5.457  10.643 -0.7746 -1.1304 -0.9051
  118OSM     NF12395   0.948   5.372  10.386  0.2661 -0.3244 -0.9165
  118OSM    HNF12396   0.851   5.386  10.372 -0.3191 -0.8396  2.1070
  118OSM    C2S12397   0.985   5.296  10.507  0.0499 -0.2070 -0.7861
  118OSM    H2S12398   1.082   5.244  10.486  0.7817 -0.0109  1.7492
  118OSM    C3S12399   0.863   5.205  10.559 -0.8254 -0.8642  0.2071
  118OSM    H3S12400   0.778   5.269  10.592  1.4463  2.1955  0.4815
  118OSM     O312401   0.906   5.136  10.679  0.3915 -0.0961 -0.0309
  118OSM    HO312402   0.983   5.183  10.713  1.1555 -0.6605 -0.9584
  118OSM    C4S12403   0.808   5.106  10.455 -0.5280  0.1556 -0.3709
  118OSM    H4S12404   0.891   5.049  10.409  1.8859  2.8772  0.2701
  118OSM    C5S12405   0.680   5.089  10.418  1.0140  0.2876  0.9947
  118OSM    H5S12406   0.607   5.150  10.473  0.9540 -0.4580  1.7768
  118OSM    C6S12407   0.616   4.991  10.312  0.2111  1.2493 -0.2877
  118OSM    H6S12408   0.545   4.918  10.356  3.0289 -2.2483 -1.1217
  118OSM    H6T12409   0.701   4.931  10.273  1.6999  2.9233  0.2193
  118OSM    C7S12410   0.553   5.052  10.183  0.4361  0.3548 -0.3766
  118OSM    H7S12411   0.461   5.110  10.204 -0.1301  0.0678 -1.9383
  118OSM    H7T12412   0.541   4.956  10.128  0.6283  0.4910 -0.6580
  118OSM    C8S12413   0.657   5.135  10.105 -0.3280  0.3255 -0.4079
  118OSM    H8S12414   0.752   5.077  10.097 -1.3109 -1.3247 -0.5979
  118OSM    H8T12415   0.686   5.221  10.169  1.1526 -1.4112  1.3910
  118OSM    C9S12416   0.611   5.179   9.962  0.2452  0.2695 -0.0206
  118OSM    H9S12417   0.521   5.234   9.994 -0.0078 -0.3611  0.3736
  118OSM    H9T12418   0.581   5.098   9.892 -1.2627  0.0325  0.8786
  118OSM   C10S12419   0.710   5.284   9.904  0.5491  0.0668 -0.1944
  118OSM   H10S12420   0.794   5.220   9.871  0.4970  0.3768 -0.9326
  118OSM   H10T12421   0.734   5.352   9.989  0.9751 -0.1793 -0.1187
  118OSM   C11S12422   0.647   5.361   9.789  0.4458  0.1823  0.0729
  118OSM   H11S12423   0.716   5.446   9.769 -0.7765  0.7612 -1.9429
  118OSM   H11T12424   0.545   5.387   9.824 -1.2690 -1.1007 -3.4980
  118OSM   C12S12425   0.630   5.277   9.665 -0.5471  0.4244 -0.1559
  118OSM   H12S12426   0.563   5.190   9.679  1.9285 -1.3589  1.3326
  118OSM   H12T12427   0.731   5.234   9.651  0.7634  2.3561  2.3291
  118OSM   C13S12428   0.599   5.364   9.542  0.7398 -0.5384  0.7420
  118OSM   H13S12429   0.683   5.434   9.524 -0.1554  0.5156  0.5229
  118OSM   H13T12430   0.510   5.426   9.566  1.3885  0.6429  0.2021
  118OSM   C14S12431   0.580   5.281   9.410 -0.1716 -0.2096 -0.1277
  118OSM   H14S12432   0.505   5.206   9.441 -0.5065 -0.2419 -0.9850
  118OSM   H14T12433   0.675   5.235   9.374 -0.0351  0.3834 -0.5524
  118OSM   C15S12434   0.512   5.356   9.295 -0.1550 -0.1471  0.0782
  118OSM   H15S12435   0.575   5.439   9.257 -0.0461  1.3353  3.2493
  118OSM   H15T12436   0.418   5.406   9.326 -1.1301 -1.3813 -0.7511
  118OSM   C16S12437   0.479   5.257   9.180  0.5924  0.2266  0.1655
  118OSM   H16S12438   0.383   5.204   9.197  2.0384 -2.1130  1.5099
  118OSM   H16T12439   0.557   5.179   9.177  0.0379 -0.3022 -1.5279
  118OSM   C17S12440   0.480   5.302   9.032  0.0526 -0.3758  0.3980
  118OSM   H17S12441   0.401   5.380   9.020  0.2288 -0.2226  0.2262
  118OSM   H17T12442   0.463   5.221   8.958 -0.8258 -0.0243  0.2008
  118OSM   C18S12443   0.604   5.371   8.974  0.0765 -0.6346 -0.5537
  118OSM   H18S12444   0.629   5.465   9.027  1.6064 -1.3158 -0.0007
  118OSM   H18T12445   0.595   5.404   8.868  0.3133  2.5707  0.3230
  118OSM   H18U12446   0.685   5.294   8.975 -0.3411 -1.0753 -0.2401
  118OSM    C1F12447   1.038   5.425  10.301  0.4922  0.5207 -0.2756
  118OSM     OF12448   1.154   5.397  10.322 -0.4780  0.1855 -0.5734
  118OSM    C2F12449   0.977   5.519  10.206  0.1251 -0.0708  0.5578
  118OSM    H2F12450   0.974   5.620  10.252 -0.5529 -1.1551  3.0695
  118OSM    H2G12451   0.873   5.483  10.187 -0.0009  0.4149  0.3091
  118OSM    C3F12452   1.059   5.510  10.077 -0.4226 -0.0615  0.2279
  118OSM    H3F12453   1.164   5.534  10.106 -1.0873 -1.4486  4.3810
  118OSM    H3G12454   1.024   5.591  10.009 -1.8062  0.9833  2.1026
  118OSM    C4F12455   1.063   5.381  10.007 -0.2578  0.1593 -0.0686
  118OSM    H4F12456   0.964   5.332  10.001  0.3020 -1.3390  1.8994
  118OSM    H4G12457   1.127   5.311  10.065  1.1875  2.6337  1.5514
  118OSM    C5F12458   1.126   5.394   9.867  0.1430 -0.6369 -0.3264
  118OSM    H5F12459   1.232   5.428   9.874 -0.0229  0.4677 -2.2679
  118OSM    H5G12460   1.070   5.471   9.810  1.6102  1.6320  1.1440
  118OSM    C6F12461   1.121   5.262   9.781  0.8132  0.4801 -0.1100
  118OSM    H6F12462   1.016   5.235   9.758  0.1460 -0.6152  3.6366
  118OSM    H6G12463   1.154   5.169   9.832 -2.9782 -1.3989 -0.7303
  118OSM    C7F12464   1.180   5.265   9.639  0.0847  0.7955  0.0883
  118OSM    H7F12465   1.166   5.162   9.600 -1.2443  0.0869  2.2766
  118OSM    H7G12466   1.289   5.281   9.650  0.1554  0.8534 -0.6258
  118OSM    C8F12467   1.131   5.361   9.540 -0.2551 -0.9672  0.4405
  118OSM    H8F12468   1.221   5.358   9.475  0.8817 -0.5582  1.9271
  118OSM    H8G12469   1.118   5.461   9.587 -1.7426 -2.5941  3.9315
  118OSM    C9F12470   0.999   5.314   9.481 -0.8446  0.5050  0.1184
  118OSM    H9F12471   0.938   5.248   9.545  1.7605 -1.5594  0.6554
  118OSM   C10F12472   0.960   5.352   9.360 -0.1679  0.0249  0.1560
  118OSM   H10F12473   0.862   5.317   9.324 -0.8126  1.8336  0.0499
  118OSM   C11F12474   1.027   5.441   9.261  0.2319 -0.0350 -0.6375
  118OSM   H11F12475   1.126   5.478   9.296  0.0929  0.8580 -1.1376
  118OSM   H11G12476   0.966   5.530   9.234  0.6275  0.6852  0.7427
  118OSM   C12F12477   1.046   5.376   9.124 -0.4558 -0.2114  0.4183
  118OSM   H12F12478   0.950   5.364   9.069 -0.2772 -0.7593  0.2221
  118OSM   H12G12479   1.085   5.272   9.116 -0.6617 -0.2138 -0.7414
  118OSM   C13F12480   1.144   5.471   9.052 -0.5902  0.1339  0.1782
  118OSM   H13F12481   1.241   5.478   9.106 -0.7446  0.1540  0.4547
  118OSM   H13G12482   1.109   5.575   9.036  1.3683  0.6299 -1.3111
  118OSM   C14F12483   1.169   5.422   8.907 -0.2003 -0.0061 -0.3173
  118OSM   H14F12484   1.217   5.322   8.907  0.5403  0.3417 -0.1892
  118OSM   H14G12485   1.248   5.493   8.875  1.6594 -1.5314  0.6677
  118OSM   C15F12486   1.045   5.417   8.813 -0.2905  0.3622  0.4323
  118OSM   H15F12487   1.064   5.489   8.731 -1.3364 -0.4461 -0.5674
  118OSM   H15G12488   0.958   5.462   8.866 -1.0141  0.0987 -0.4955
  118OSM   C16F12489   1.012   5.278   8.756  0.3703  0.1594 -0.5299
  118OSM   H16F12490   0.908   5.288   8.718 -0.3939 -1.3300  1.0339
  118OSM   H16G12491   1.010   5.204   8.838  2.0286 -1.1322 -1.5871
  118OSM   C17F12492   1.111   5.214   8.654 -0.2743 -0.5239  0.3123
  118OSM   H17F12493   1.212   5.203   8.700  1.3302  1.1721 -2.4870
  118OSM   H17G12494   1.147   5.265   8.562  2.7317 -3.8715 -0.5855
  118OSM   C18F12495   1.060   5.075   8.628 -0.0266 -0.8680  0.1287
  118OSM   H18F12496   1.058   5.004   8.713 -0.0856 -2.0561 -0.8387
  118OSM   H18G12497   1.122   5.024   8.551 -0.9790  3.1693 -3.7197
  118OSM   H18H12498   0.962   5.069   8.576  0.5684 -0.4978 -1.0839
  119OSM      N12499   3.728   1.333  10.864  0.3336  0.0433 -0.6284
  119OSM    C1512500   3.667   1.263  10.981  0.2390 -0.7060  0.5133
  119OSM   H15A12501   3.561   1.246  10.967  0.5599 -2.0600 -0.3564
  119OSM   H15B12502   3.672   1.320  11.073 -0.2973 -0.4153  0.3689
  119OSM   H15C12503   3.717   1.170  11.003  1.9298 -0.0528 -0.3895
  119OSM    C1412504   3.678   1.472  10.855  0.6040 -0.4783  0.1651
  119OSM   H14A12505   3.571   1.469  10.839  0.7026 -0.4813 -0.4985
  119OSM   H14B12506   3.725   1.534  10.780 -2.1460  1.9224  0.2498
  119OSM   H14C12507   3.683   1.519  10.952 -4.0374 -1.3394  1.0780
  119OSM    C1312508   3.875   1.333  10.896  0.2367 -0.6553  0.4484
  119OSM   H13A12509   3.907   1.230  10.903 -0.4422 -0.8077  1.5504
  119OSM   H13B12510   3.892   1.382  10.991 -2.8653 -0.4929  1.0376
  119OSM   H13C12511   3.938   1.382  10.824  1.4990  0.9735  2.5378
  119OSM    C1212512   3.704   1.260  10.732 -0.4295  0.2589  0.3277
  119OSM   H12A12513   3.756   1.166  10.731  0.8669  0.9469 -0.7762
  119OSM   H12B12514   3.758   1.317  10.658 -0.6990  0.9237  0.6330
  119OSM    C1112515   3.560   1.242  10.680 -0.4091 -0.0784  0.2373
  119OSM   H11A12516   3.572   1.196  10.580 -0.4489 -1.0331  0.6663
  119OSM   H11B12517   3.515   1.340  10.653 -0.6512  0.1231  1.3245
  119OSM      P12518   3.455   1.020  10.759 -0.1043  0.0924 -0.1440
  119OSM    O1312519   3.571   0.945  10.803 -0.3352  0.1963  0.6500
  119OSM    O1412520   3.326   0.987  10.832 -0.5670  0.0993 -0.1211
  119OSM    O1112521   3.435   0.993  10.607 -0.3416  0.7193  0.4258
  119OSM    O1212522   3.477   1.172  10.775  0.1523 -0.6074 -0.0497
  119OSM    C1S12523   3.312   1.042  10.548  0.0303 -0.3486  0.2421
  119OSM    H1S12524   3.309   1.152  10.565  1.0669  0.0319 -1.7302
  119OSM    H1T12525   3.217   0.995  10.580 -1.9013  1.3715 -2.4553
  119OSM     NF12526   3.215   1.119  10.328 -0.3584  0.1213  0.3573
  119OSM    HNF12527   3.118   1.094  10.320 -0.2669  0.3689 -2.3948
  119OSM    C2S12528   3.316   1.031  10.387 -0.4713 -0.4807 -1.4684
  119OSM    H2S12529   3.418   1.066  10.359 -0.4921  1.3757  0.5684
  119OSM    C3S12530   3.313   0.887  10.343  0.0985  0.2030  0.5745
  119OSM    H3S12531   3.220   0.834  10.373  0.1563 -2.3370 -3.0837
  119OSM     O312532   3.402   0.798  10.413 -0.2230  0.7125  0.2912
  119OSM    HO312533   3.446   0.848  10.482 -0.9380  0.4372  0.9620
  119OSM    C4S12534   3.323   0.877  10.194 -0.6728  0.2296 -0.1797
  119OSM    H4S12535   3.227   0.859  10.143 -0.7994  1.1375 -0.2726
  119OSM    C5S12536   3.431   0.864  10.122 -0.3450 -0.4033  0.3297
  119OSM    H5S12537   3.525   0.857  10.179 -0.6608  0.7621  1.0257
  119OSM    C6S12538   3.442   0.851   9.976 -0.6406 -0.0913  1.1113
  119OSM    H6S12539   3.547   0.839   9.942 -1.0281 -0.8610  0.1432
  119OSM    H6T12540   3.425   0.955   9.940 -1.2196 -0.5412  0.0318
  119OSM    C7S12541   3.346   0.758   9.900  0.4300  0.6434  0.2644
  119OSM    H7S12542   3.285   0.705   9.976  2.6193  1.1533  2.5243
  119OSM    H7T12543   3.419   0.687   9.854 -0.4418  0.6252 -1.1407
  119OSM    C8S12544   3.275   0.831   9.792 -0.0062 -0.3318  0.1824
  119OSM    H8S12545   3.255   0.935   9.824  2.0599 -0.4084  1.8928
  119OSM    H8T12546   3.172   0.789   9.784  0.4449 -1.5490  0.5445
  119OSM    C9S12547   3.333   0.833   9.643 -0.3797  0.5232  0.1237
  119OSM    H9S12548   3.353   0.727   9.617  0.6100  0.9610 -1.0009
  119OSM    H9T12549   3.432   0.884   9.645 -0.7425  1.2900 -0.6373
  119OSM   C10S12550   3.246   0.907   9.547  0.0013 -0.5230 -0.1324
  119OSM   H10S12551   3.227   1.011   9.583 -4.0752 -0.5076 -1.8442
  119OSM   H10T12552   3.145   0.864   9.536 -1.3768  1.3107  3.6269
  119OSM   C11S12553   3.312   0.923   9.408  0.0546  0.1025 -0.3006
  119OSM   H11S12554   3.368   0.836   9.369 -1.3090 -0.3627 -1.3099
  119OSM   H11T12555   3.393   0.998   9.417  0.7266 -0.6708  0.2128
  119OSM   C12S12556   3.206   0.956   9.307 -0.3793  0.2029 -0.4482
  119OSM   H12S12557   3.119   0.890   9.328  0.2157 -0.0835  1.3113
  119OSM   H12T12558   3.240   0.925   9.206  4.6926 -0.5596  1.2431
  119OSM   C13S12559   3.193   1.103   9.308  0.2219  0.2192  0.2828
  119OSM   H13S12560   3.288   1.148   9.271 -0.4380  1.4767  0.0346
  119OSM   H13T12561   3.161   1.127   9.411 -1.2536 -0.7134  0.0603
  119OSM   C14S12562   3.089   1.160   9.210  0.4694  0.2191 -0.3190
  119OSM   H14S12563   3.077   1.264   9.248 -1.2694 -0.7130  1.9066
  119OSM   H14T12564   2.992   1.115   9.240  1.0867  0.2776  1.8854
  119OSM   C15S12565   3.124   1.150   9.067  0.0531  0.4060  0.4229
  119OSM   H15S12566   3.112   1.046   9.028  0.0277  0.6172 -0.1455
  119OSM   H15T12567   3.231   1.178   9.055 -0.1190  0.7582 -0.3778
  119OSM   C16S12568   3.069   1.259   8.978  0.0004 -0.5210  0.3611
  119OSM   H16S12569   3.106   1.355   9.018  0.0574 -1.0799  1.7075
  119OSM   H16T12570   2.960   1.252   9.000 -0.0418 -1.4787 -0.0968
  119OSM   C17S12571   3.102   1.235   8.834  0.9627 -0.0034 -0.6173
  119OSM   H17S12572   3.029   1.289   8.771  0.3902 -0.5661 -0.4498
  119OSM   H17T12573   3.090   1.126   8.815  0.5763  0.1868 -1.5092
  119OSM   C18S12574   3.237   1.283   8.795  0.4646  0.2573  0.5384
  119OSM   H18S12575   3.253   1.389   8.822 -1.4000  0.1529  2.3050
  119OSM   H18T12576   3.265   1.264   8.689  1.5919 -2.1528  1.1959
  119OSM   H18U12577   3.313   1.223   8.850 -1.1854 -0.0180  2.6587
  119OSM    C1F12578   3.249   1.242  10.293  0.0223 -0.3050  0.7873
  119OSM     OF12579   3.351   1.289  10.342  0.2460  0.0558  0.1549
  119OSM    C2F12580   3.170   1.310  10.184 -0.1217  0.0751  0.1117
  119OSM    H2F12581   3.207   1.414  10.172 -2.9247  1.0232 -1.2224
  119OSM    H2G12582   3.064   1.323  10.214 -0.7042 -1.2277 -1.2460
  119OSM    C3F12583   3.168   1.245  10.048  0.1879  0.0285  0.6406
  119OSM    H3F12584   3.151   1.135  10.054 -2.5356  0.3503  0.1211
  119OSM    H3G12585   3.268   1.261  10.003 -0.1119  0.3542  0.0880
  119OSM    C4F12586   3.069   1.313   9.955 -0.0086  0.1339 -0.6245
  119OSM    H4F12587   3.055   1.421   9.976  0.0991  0.0575 -0.1413
  119OSM    H4G12588   2.973   1.259   9.968  2.1816 -4.1440 -0.5402
  119OSM    C5F12589   3.106   1.298   9.804  0.3957  0.1820 -0.7081
  119OSM    H5F12590   3.112   1.187   9.793  2.8384 -0.0135  1.6050
  119OSM    H5G12591   3.205   1.342   9.780  1.1811 -0.3422  1.3844
  119OSM    C6F12592   3.003   1.360   9.711 -1.2087  0.3349 -0.0319
  119OSM    H6F12593   2.995   1.468   9.735 -0.0747  0.2663  0.7020
  119OSM    H6G12594   2.911   1.300   9.721 -1.4329  0.5304 -0.8483
  119OSM    C7F12595   3.052   1.361   9.565 -0.1347 -0.0567  0.0418
  119OSM    H7F12596   3.047   1.253   9.537  0.4518 -0.8919  2.7954
  119OSM    H7G12597   3.153   1.404   9.549 -0.9724  1.9414 -0.1404
  119OSM    C8F12598   2.972   1.448   9.468  0.1347 -0.1075  0.8786
  119OSM    H8F12599   3.030   1.463   9.374  0.3137 -0.0651  0.9955
  119OSM    H8G12600   2.939   1.536   9.527 -1.1142  0.6224 -0.8245
  119OSM    C9F12601   2.840   1.386   9.434  0.0535  0.0444  0.0159
  119OSM    H9F12602   2.804   1.303   9.496  1.0154  0.1260  0.7016
  119OSM   C10F12603   2.770   1.413   9.326 -0.3832 -0.0970  0.3941
  119OSM   H10F12604   2.672   1.366   9.305 -1.0512  0.7250  1.5566
  119OSM   C11F12605   2.815   1.510   9.215  0.6744  1.1394 -0.1141
  119OSM   H11F12606   2.846   1.452   9.126  0.7316  1.2816 -0.1877
  119OSM   H11G12607   2.901   1.575   9.241  2.3219 -1.5082  1.6323
  119OSM   C12F12608   2.696   1.606   9.166 -0.2074  0.0756  0.5244
  119OSM   H12F12609   2.740   1.686   9.102 -0.5781  0.0116  0.1827
  119OSM   H12G12610   2.656   1.657   9.256 -0.2839 -1.9419  1.6778
  119OSM   C13F12611   2.581   1.531   9.083  0.2672  0.4815 -0.8341
  119OSM   H13F12612   2.532   1.455   9.148  0.8652 -0.9244 -1.9696
  119OSM   H13G12613   2.632   1.469   9.006  0.3312  1.2837 -1.4558
  119OSM   C14F12614   2.485   1.624   9.006  0.2782 -0.7064  0.2242
  119OSM   H14F12615   2.537   1.681   8.927  0.3499 -1.3775 -0.2284
  119OSM   H14G12616   2.443   1.695   9.080  2.1243 -1.5543  2.1905
  119OSM   C15F12617   2.369   1.553   8.924 -0.0053  0.4617  0.7305
  119OSM   H15F12618   2.413   1.478   8.854  2.8746  0.0301  2.8081
  119OSM   H15G12619   2.324   1.634   8.863 -2.9175 -2.5623 -1.4745
  119OSM   C16F12620   2.270   1.494   9.023 -0.3681  0.3571 -1.1536
  119OSM   H16F12621   2.233   1.576   9.088 -1.0338  1.4362 -2.8244
  119OSM   H16G12622   2.314   1.413   9.085 -0.5073  2.6606  2.2487
  119OSM   C17F12623   2.149   1.420   8.963  0.0945  0.2999 -0.8021
  119OSM   H17F12624   2.194   1.342   8.898  0.9164 -2.1490  2.5081
  119OSM   H17G12625   2.086   1.484   8.897 -1.2838 -0.0487  0.1293
  119OSM   C18F12626   2.064   1.345   9.061  0.7587  0.0020 -0.0606
  119OSM   H18F12627   2.127   1.280   9.126  0.1044  1.0692  1.7136
  119OSM   H18G12628   1.985   1.278   9.020 -0.3263 -1.5863  4.1010
  119OSM   H18H12629   2.000   1.416   9.117 -1.4384 -1.3691 -0.6973
  120OSM      N12630   0.812   2.024  10.997  0.0429  0.3638 -0.8341
  120OSM    C1512631   0.738   1.914  10.917 -0.1148 -0.1611  0.1694
  120OSM   H15A12632   0.655   1.872  10.972 -0.3223 -0.8172 -0.6195
  120OSM   H15B12633   0.806   1.831  10.901  0.7403  0.8411 -1.7082
  120OSM   H15C12634   0.707   1.961  10.825  1.2723  2.0688  0.7536
  120OSM    C1412635   0.702   2.085  11.081 -0.0988 -0.2958 -1.1336
  120OSM   H14A12636   0.668   2.017  11.157 -1.5541  2.5825  0.9777
  120OSM   H14B12637   0.624   2.124  11.018 -0.0065  1.0946 -0.4365
  120OSM   H14C12638   0.733   2.162  11.150 -1.0057 -1.3851  0.5482
  120OSM    C1312639   0.913   1.957  11.088 -0.4097 -0.1720 -0.1134
  120OSM   H13A12640   0.991   1.923  11.021  0.8878 -0.1867  1.3399
  120OSM   H13B12641   0.869   1.864  11.121 -1.2194  0.3044  0.1837
  120OSM   H13C12642   0.934   2.016  11.177  1.9738  1.5687 -1.6959
  120OSM    C1212643   0.876   2.126  10.908  0.1169  0.1204 -0.5631
  120OSM   H12A12644   0.944   2.178  10.974  1.0058  0.4895 -1.7388
  120OSM   H12B12645   0.803   2.203  10.884 -0.6806 -0.0885  1.0653
  120OSM    C1112646   0.947   2.072  10.782  0.0718  0.0908  1.1649
  120OSM   H11A12647   1.016   1.987  10.799  2.4683  1.7748  0.3005
  120OSM   H11B12648   1.020   2.140  10.734  0.7556 -1.5911 -0.2442
  120OSM      P12649   0.781   2.144  10.596  0.1473 -0.3660 -0.1617
  120OSM    O1312650   0.640   2.101  10.577 -0.7974  0.0403 -0.1988
  120OSM    O1412651   0.813   2.283  10.642 -0.9495  0.3312 -0.0272
  120OSM    O1112652   0.843   2.135  10.454 -0.4756 -0.0932  0.4138
  120OSM    O1212653   0.858   2.035  10.673  0.0954  0.3899 -0.3461
  120OSM    C1S12654   0.826   2.014  10.367 -0.2885  0.0282  0.8574
  120OSM    H1S12655   0.728   2.022  10.316 -0.2510  0.7406  0.8879
  120OSM    H1T12656   0.828   1.914  10.416 -0.1972  0.0669  0.9331
  120OSM     NF12657   0.912   1.909  10.161  0.5712  0.4655 -0.2147
  120OSM    HNF12658   0.944   1.815  10.172 -0.8794  0.0974  1.3095
  120OSM    C2S12659   0.947   2.000  10.269 -0.4150  0.1167 -0.5709
  120OSM    H2S12660   0.970   2.098  10.221  0.6935 -0.1245 -0.5556
  120OSM    C3S12661   1.075   1.963  10.350 -0.1049 -0.0730 -0.4008
  120OSM    H3S12662   1.052   1.867  10.401 -0.9935 -1.1739 -2.7474
  120OSM     O312663   1.115   2.068  10.447 -0.7388 -0.3182 -0.3481
  120OSM    HO312664   1.036   2.115  10.474 -0.2454 -0.0491  0.6967
  120OSM    C4S12665   1.183   1.946  10.251  0.9627  0.2373 -0.6752
  120OSM    H4S12666   1.218   1.843  10.231  0.1197 -0.0547 -0.6843
  120OSM    C5S12667   1.248   2.044  10.187  1.3582 -0.1337  0.9041
  120OSM    H5S12668   1.222   2.150  10.203  0.3173  0.0369 -1.5252
  120OSM    C6S12669   1.362   2.025  10.093  0.0446  0.0163 -1.0441
  120OSM    H6S12670   1.436   1.955  10.136 -0.6093 -0.2245 -0.2661
  120OSM    H6T12671   1.418   2.116  10.064 -0.0738  0.9492  1.3483
  120OSM    C7S12672   1.332   1.974   9.957 -0.6581  0.5926 -0.5581
  120OSM    H7S12673   1.313   1.865   9.952 -0.5712  0.5301  0.3521
  120OSM    H7T12674   1.426   1.988   9.899  0.3345 -2.6955  0.0497
  120OSM    C8S12675   1.217   2.033   9.884  0.2077  0.2049 -0.0289
  120OSM    H8S12676   1.221   2.144   9.878 -0.1413  0.2720  0.8594
  120OSM    H8T12677   1.125   1.993   9.932 -0.4714  0.6944 -0.8931
  120OSM    C9S12678   1.209   1.995   9.736  0.2385 -0.4005  0.2723
  120OSM    H9S12679   1.121   2.049   9.696  0.3412 -0.0153  0.5683
  120OSM    H9T12680   1.195   1.886   9.717  0.0376 -0.3043 -0.1545
  120OSM   C10S12681   1.321   2.030   9.643 -0.2649  0.8448  0.0343
  120OSM   H10S12682   1.411   1.972   9.669  1.0346  2.5261 -0.5337
  120OSM   H10T12683   1.355   2.136   9.651 -0.7257  0.9501  0.8360
  120OSM   C11S12684   1.274   2.000   9.500  0.1493 -0.0112 -0.5275
  120OSM   H11S12685   1.199   2.070   9.457 -0.1867  0.3951  0.6910
  120OSM   H11T12686   1.207   1.911   9.505 -1.2933  0.8683 -2.6742
  120OSM   C12S12687   1.379   1.979   9.389  0.2394 -0.2840  0.3556
  120OSM   H12S12688   1.452   1.903   9.426  1.3645  0.8226  0.4535
  120OSM   H12T12689   1.421   2.079   9.365 -1.5378  0.7264  1.3076
  120OSM   C13S12690   1.327   1.936   9.249 -0.2444  0.0793 -0.1626
  120OSM   H13S12691   1.251   2.005   9.207  0.2780  0.0537 -1.1916
  120OSM   H13T12692   1.278   1.837   9.259 -0.5986  0.2865  0.2046
  120OSM   C14S12693   1.432   1.906   9.138 -0.0230  0.1653 -0.5467
  120OSM   H14S12694   1.508   1.840   9.184  0.8123  0.9166 -0.8181
  120OSM   H14T12695   1.474   2.008   9.123 -0.4347  1.4384  4.9413
  120OSM   C15S12696   1.374   1.829   9.017  0.3942 -0.6068 -0.7640
  120OSM   H15S12697   1.294   1.883   8.963  1.9788  2.3389 -0.4050
  120OSM   H15T12698   1.327   1.736   9.056 -2.0469  0.9128  0.1072
  120OSM   C16S12699   1.485   1.784   8.927 -0.4423  0.4891  0.1961
  120OSM   H16S12700   1.561   1.735   8.991 -1.2461  0.7933  1.4204
  120OSM   H16T12701   1.536   1.877   8.893  0.2471  0.0560  0.0330
  120OSM   C17S12702   1.443   1.687   8.813 -1.4704 -0.4876 -0.1052
  120OSM   H17S12703   1.403   1.597   8.864 -0.5411 -2.8300 -3.2003
  120OSM   H17T12704   1.535   1.660   8.757 -0.5553 -1.0378  1.5749
  120OSM   C18S12705   1.350   1.749   8.710 -0.2885  0.7574  0.0713
  120OSM   H18S12706   1.266   1.798   8.763 -0.3445  1.2743 -0.4921
  120OSM   H18T12707   1.303   1.671   8.646 -3.1043  1.7631  0.7837
  120OSM   H18U12708   1.404   1.815   8.640 -0.1718  0.6092  0.0205
  120OSM    C1F12709   0.825   1.946  10.068 -0.0511 -0.2827 -0.0676
  120OSM     OF12710   0.786   2.062  10.068  0.0844 -0.0174 -0.2104
  120OSM    C2F12711   0.783   1.850   9.968  0.0125 -0.8488  0.4412
  120OSM    H2F12712   0.673   1.841   9.959  0.0786 -1.3696  0.0810
  120OSM    H2G12713   0.822   1.749   9.996  1.1636 -1.8464 -3.8986
  120OSM    C3F12714   0.846   1.879   9.828 -0.2293  0.0702  0.5239
  120OSM    H3F12715   0.955   1.860   9.843  0.4060  0.4822 -2.9122
  120OSM    H3G12716   0.828   1.986   9.806  2.5302  0.6205  0.5262
  120OSM    C4F12717   0.785   1.782   9.721 -0.0198 -0.2328 -0.4328
  120OSM    H4F12718   0.676   1.802   9.723  0.0201 -0.0942  1.1840
  120OSM    H4G12719   0.807   1.679   9.755  1.2983 -0.3784 -1.6158
  120OSM    C5F12720   0.850   1.791   9.585 -0.6036 -0.2405 -0.3272
  120OSM    H5F12721   0.937   1.722   9.594 -0.3421 -0.0628 -1.4157
  120OSM    H5G12722   0.870   1.900   9.572  0.1014 -0.5409 -1.9163
  120OSM    C6F12723   0.767   1.754   9.467 -0.0224 -0.4829 -0.0083
  120OSM    H6F12724   0.669   1.799   9.490  0.8128  0.9716  0.8555
  120OSM    H6G12725   0.756   1.643   9.470  0.3489 -0.5041  2.8130
  120OSM    C7F12726   0.822   1.797   9.332  0.1496 -0.4273  0.1254
  120OSM    H7F12727   0.853   1.904   9.336 -1.4632  0.2959 -3.3282
  120OSM    H7G12728   0.743   1.782   9.255  0.2218 -2.0070  0.3374
  120OSM    C8F12729   0.950   1.715   9.310  0.6230  0.5988  0.3178
  120OSM    H8F12730   0.928   1.606   9.319  2.6189  0.1406  0.0795
  120OSM    H8G12731   1.025   1.725   9.391 -0.4204  0.0094  1.3946
  120OSM    C9F12732   1.019   1.739   9.188 -0.6828 -0.4814  0.0772
  120OSM    H9F12733   1.030   1.842   9.153 -0.1192 -0.9517 -1.2141
  120OSM   C10F12734   1.078   1.653   9.103  0.0432 -0.1359 -0.1653
  120OSM   H10F12735   1.115   1.704   9.012 -0.4125  2.3660  0.9509
  120OSM   C11F12736   1.088   1.503   9.121 -0.8325 -0.7795  0.8279
  120OSM   H11F12737   1.027   1.442   9.051  0.7268 -0.9558 -0.4291
  120OSM   H11G12738   1.073   1.456   9.221  0.1125 -0.8068  0.9667
  120OSM   C12F12739   1.232   1.454   9.078 -0.0418  0.5358 -0.0955
  120OSM   H12F12740   1.254   1.384   9.162 -1.2890  0.7732  0.4558
  120OSM   H12G12741   1.317   1.524   9.087  0.0395  0.4305 -0.0483
  120OSM   C13F12742   1.235   1.383   8.943 -0.5438  0.1927  0.1699
  120OSM   H13F12743   1.209   1.453   8.860 -1.1415 -1.6654 -1.2823
  120OSM   H13G12744   1.154   1.308   8.951 -1.0468  0.4016 -2.1554
  120OSM   C14F12745   1.363   1.304   8.899  0.2665  0.4216 -0.2370
  120OSM   H14F12746   1.379   1.223   8.973  1.1425  1.1487  0.3854
  120OSM   H14G12747   1.437   1.386   8.885 -2.3274  2.7887 -1.0718
  120OSM   C15F12748   1.347   1.260   8.756  0.0134 -0.2836 -0.1760
  120OSM   H15F12749   1.452   1.237   8.727 -0.5235 -3.4762  0.0014
  120OSM   H15G12750   1.314   1.348   8.697 -1.2193  0.2015  1.1907
  120OSM   C16F12751   1.269   1.125   8.740  0.3581  0.4848 -0.3866
  120OSM   H16F12752   1.161   1.141   8.761  0.2322  1.0277 -1.4026
  120OSM   H16G12753   1.315   1.053   8.811 -0.5301  1.5882  1.3779
  120OSM   C17F12754   1.267   1.090   8.591 -0.3861  0.3168  0.3381
  120OSM   H17F12755   1.267   1.185   8.533  3.6351  0.3476  0.1522
  120OSM   H17G12756   1.170   1.036   8.580 -0.0784 -0.5393  1.6317
  120OSM   C18F12757   1.380   1.001   8.544  0.1705  0.8710 -0.4326
  120OSM   H18F12758   1.399   0.916   8.613  0.8763 -1.1628 -2.9613
  120OSM   H18G12759   1.473   1.061   8.544  0.6216  0.1861 -0.7018
  120OSM   H18H12760   1.357   0.962   8.442 -0.3895  2.4243 -0.9201
  121OSM      N12761   0.526   4.201  10.997  0.2598 -0.4846  0.9135
  121OSM    C1512762   0.648   4.125  11.052  0.8899  0.1601  0.4469
  121OSM   H15A12763   0.634   4.072  11.145 -1.1535  1.3217  0.8331
  121OSM   H15B12764   0.715   4.207  11.071  1.1555  0.0806 -0.1062
  121OSM   H15C12765   0.691   4.067  10.971 -1.3726  0.7836 -1.2803
  121OSM    C1412766   0.428   4.109  10.936  0.1263 -0.5055 -0.6386
  121OSM   H14A12767   0.363   4.159  10.867 -0.6270 -0.0431  0.3914
  121OSM   H14B12768   0.378   4.061  11.019 -0.5678  0.1129 -0.6966
  121OSM   H14C12769   0.482   4.032  10.882 -0.2322 -2.0573  1.1191
  121OSM    C1312770   0.465   4.283  11.106  0.6850 -0.4479 -0.7706
  121OSM   H13A12771   0.390   4.351  11.069  0.4733  0.1930  0.7455
  121OSM   H13B12772   0.534   4.351  11.154 -0.9811 -0.6714  2.1500
  121OSM   H13C12773   0.405   4.227  11.176  2.0883  0.4909  1.2981
  121OSM    C1212774   0.584   4.292  10.890  0.1109  0.4024 -0.2780
  121OSM   H12A12775   0.657   4.350  10.944 -0.1882  1.7391 -1.2803
  121OSM   H12B12776   0.508   4.358  10.851 -0.4675  0.7002  1.2950
  121OSM    C1112777   0.649   4.216  10.766 -0.5935 -0.5750 -0.0336
  121OSM   H11A12778   0.641   4.275  10.671 -0.6848  0.1686  0.4267
  121OSM   H11B12779   0.598   4.119  10.746  0.8691 -1.1266 -1.3489
  121OSM      P12780   0.896   4.280  10.800 -0.1505 -0.0826 -0.0096
  121OSM    O1312781   0.875   4.368  10.918  0.3464  0.3115 -0.0557
  121OSM    O1412782   1.030   4.219  10.800 -0.2690 -0.1890  0.7936
  121OSM    O1112783   0.877   4.365  10.670 -0.0359  0.5126 -0.5052
  121OSM    O1212784   0.783   4.174  10.799  0.2114 -0.6658 -0.1125
  121OSM    C1S12785   0.960   4.362  10.551  0.2649 -0.2271 -0.3801
  121OSM    H1S12786   1.005   4.260  10.546  0.6032 -0.2364  1.6653
  121OSM    H1T12787   1.038   4.440  10.554  0.9097 -0.8489 -0.6303
  121OSM     NF12788   0.944   4.386  10.313  0.2304 -0.4848  0.2368
  121OSM    HNF12789   0.990   4.461  10.266  0.4916  0.6419  2.1876
  121OSM    C2S12790   0.870   4.401  10.430  0.2854  0.0676 -0.3043
  121OSM    H2S12791   0.785   4.330  10.428  1.2914 -1.1863 -0.2577
  121OSM    C3S12792   0.813   4.548  10.442  0.0715 -0.1600 -0.6118
  121OSM    H3S12793   0.903   4.613  10.454 -0.7992  1.0238 -0.3250
  121OSM     O312794   0.730   4.569  10.564 -0.1797 -0.5141 -0.0860
  121OSM    HO312795   0.766   4.507  10.628 -2.4971 -2.0366 -0.1157
  121OSM    C4S12796   0.721   4.591  10.324 -0.6098  0.5582 -0.4318
  121OSM    H4S12797   0.774   4.666  10.264  1.4527 -0.7274 -0.2948
  121OSM    C5S12798   0.591   4.567  10.303  0.5891  0.3903 -0.5483
  121OSM    H5S12799   0.539   4.506  10.378 -0.5646  0.4256 -1.2883
  121OSM    C6S12800   0.502   4.603  10.187  0.1981 -0.7708  0.0339
  121OSM    H6S12801   0.426   4.676  10.219  0.1773 -0.1951 -1.2686
  121OSM    H6T12802   0.452   4.508  10.155  1.9723 -1.4423 -0.8803
  121OSM    C7S12803   0.568   4.664  10.058 -0.7213  0.3069 -0.5331
  121OSM    H7S12804   0.649   4.599  10.019  0.5794  1.9041 -0.6145
  121OSM    H7T12805   0.618   4.760  10.083 -1.7107  0.9142 -0.8595
  121OSM    C8S12806   0.460   4.699   9.956 -0.3912 -0.1738  0.2091
  121OSM    H8S12807   0.393   4.772  10.007 -1.8671 -0.4908 -1.1930
  121OSM    H8T12808   0.391   4.613   9.941  0.5006 -0.8461 -0.1229
  121OSM    C9S12809   0.519   4.759   9.826 -0.3857 -0.0711  1.0280
  121OSM    H9S12810   0.613   4.708   9.798  0.1029  1.3918 -0.1090
  121OSM    H9T12811   0.553   4.862   9.849 -0.7730  0.3136 -0.0476
  121OSM   C10S12812   0.413   4.769   9.713 -0.8388  0.1068  0.0324
  121OSM   H10S12813   0.335   4.836   9.755  0.0163 -0.3667  2.5243
  121OSM   H10T12814   0.367   4.668   9.703  1.7381 -1.0344 -1.2855
  121OSM   C11S12815   0.449   4.812   9.579 -0.1934 -0.2954 -0.9242
  121OSM   H11S12816   0.526   4.738   9.548 -1.9894 -1.9853 -1.5759
  121OSM   H11T12817   0.480   4.919   9.578 -0.6392 -0.1440  0.2521
  121OSM   C12S12818   0.343   4.795   9.471 -0.0328  0.3076 -0.9023
  121OSM   H12S12819   0.262   4.872   9.477  0.0511  0.3604 -0.3270
  121OSM   H12T12820   0.298   4.695   9.488  0.9828 -0.1133 -0.6765
  121OSM   C13S12821   0.400   4.821   9.330  0.2876 -0.6629 -0.2934
  121OSM   H13S12822   0.470   4.744   9.291  0.5130 -0.3234 -0.5696
  121OSM   H13T12823   0.451   4.919   9.336 -1.1052  0.1549 -1.2060
  121OSM   C14S12824   0.286   4.833   9.225 -0.1813 -0.2863  0.2934
  121OSM   H14S12825   0.213   4.915   9.245 -0.0815 -0.7355  2.7128
  121OSM   H14T12826   0.223   4.742   9.225 -0.7673  0.1019  1.2958
  121OSM   C15S12827   0.323   4.854   9.075  0.8425 -0.4578 -0.0841
  121OSM   H15S12828   0.371   4.770   9.021  0.7868  0.5443 -1.7393
  121OSM   H15T12829   0.393   4.941   9.078 -1.1500  1.2481 -0.8589
  121OSM   C16S12830   0.206   4.911   8.996  0.0906  0.4405 -0.7654
  121OSM   H16S12831   0.148   4.985   9.056  0.7248  0.6549 -0.3996
  121OSM   H16T12832   0.138   4.826   8.977 -0.1638  0.2484  0.8720
  121OSM   C17S12833   0.233   4.958   8.847  0.3986  0.8716  0.1986
  121OSM   H17S12834   0.280   4.875   8.791  1.2383  0.5755  1.3041
  121OSM   H17T12835   0.312   5.036   8.856 -0.8474  2.0964  1.0548
  121OSM   C18S12836   0.112   4.999   8.769  0.2312 -0.1617  0.9853
  121OSM   H18S12837   0.084   5.098   8.810  1.6669  0.3547  0.7715
  121OSM   H18T12838   0.024   4.932   8.775 -2.0172  2.2938 -1.6375
  121OSM   H18U12839   0.119   5.020   8.661 -2.5694 -0.2036  0.7304
  121OSM    C1F12840   0.993   4.266  10.280  0.6843 -0.2740 -0.4957
  121OSM     OF12841   0.955   4.166  10.343 -0.1791 -0.8711 -0.1183
  121OSM    C2F12842   1.103   4.250  10.173  0.4149 -0.4375 -0.0730
  121OSM    H2F12843   1.108   4.144  10.140  2.4968 -0.7692  1.1406
  121OSM    H2G12844   1.205   4.269  10.212  0.8219 -1.9017 -0.3673
  121OSM    C3F12845   1.086   4.345  10.054 -0.3919 -0.0709  0.1937
  121OSM    H3F12846   1.176   4.330   9.989 -0.3751  0.3976  0.1107
  121OSM    H3G12847   1.093   4.454  10.072 -0.9342  0.1361 -0.7978
  121OSM    C4F12848   0.961   4.298   9.978 -0.0597 -0.3500  0.3897
  121OSM    H4F12849   0.871   4.295  10.043 -0.2688 -0.3140  0.0999
  121OSM    H4G12850   0.973   4.199   9.930 -1.8906 -1.0290  1.2617
  121OSM    C5F12851   0.919   4.398   9.869 -0.2379 -0.4192 -0.3755
  121OSM    H5F12852   1.007   4.432   9.810 -0.2389  0.3672  0.0759
  121OSM    H5G12853   0.878   4.491   9.913 -0.1147  0.8752 -2.8044
  121OSM    C6F12854   0.812   4.339   9.780  0.4703  0.2942  0.5231
  121OSM    H6F12855   0.729   4.298   9.842  0.6484  0.4098  0.8402
  121OSM    H6G12856   0.851   4.249   9.726  0.0333 -1.0943  2.4027
  121OSM    C7F12857   0.750   4.425   9.675  0.2185  0.2733 -0.1844
  121OSM    H7F12858   0.694   4.507   9.725 -0.3034  0.4232 -1.0065
  121OSM    H7G12859   0.672   4.369   9.620  1.5670 -0.5204 -1.3722
  121OSM    C8F12860   0.845   4.480   9.559 -0.4567 -0.0585  0.1559
  121OSM    H8F12861   0.909   4.396   9.523  0.7076  2.3215 -4.0646
  121OSM    H8G12862   0.918   4.539   9.618  0.0461 -0.5415  0.0285
  121OSM    C9F12863   0.778   4.554   9.451 -0.4459 -0.2480 -0.2801
  121OSM    H9F12864   0.686   4.606   9.482  0.5123  1.0298  0.4950
  121OSM   C10F12865   0.818   4.558   9.325 -0.0899 -0.5880 -0.7113
  121OSM   H10F12866   0.748   4.592   9.247  1.1272  1.2492 -1.0701
  121OSM   C11F12867   0.951   4.497   9.275  0.2903 -0.5217 -0.4775
  121OSM   H11F12868   0.997   4.421   9.341  1.3378  1.2585  0.9366
  121OSM   H11G12869   1.023   4.581   9.263  1.6687 -1.7137 -0.8373
  121OSM   C12F12870   0.947   4.436   9.131 -0.9128 -0.1299 -0.6971
  121OSM   H12F12871   0.863   4.363   9.137 -0.0454 -1.1046 -0.0242
  121OSM   H12G12872   1.034   4.371   9.107 -1.6630 -0.7998 -1.6905
  121OSM   C13F12873   0.919   4.532   9.011 -0.2006  0.4689  0.8595
  121OSM   H13F12874   0.991   4.612   9.039  1.3422 -0.9662  1.1619
  121OSM   H13G12875   0.811   4.559   9.009 -1.1024 -2.2708 -3.7850
  121OSM   C14F12876   0.958   4.480   8.870  0.4876  0.2988  1.0470
  121OSM   H14F12877   0.925   4.374   8.866 -1.4587  0.8595  1.2966
  121OSM   H14G12878   1.069   4.475   8.875  0.5744  2.3880  2.4685
  121OSM   C15F12879   0.911   4.565   8.751 -0.7289  0.2523 -0.3811
  121OSM   H15F12880   0.969   4.658   8.738  1.5834 -0.8267  1.3952
  121OSM   H15G12881   0.803   4.593   8.759 -1.2318 -1.8741  1.3459
  121OSM   C16F12882   0.913   4.484   8.624 -0.7584 -0.0852 -0.2318
  121OSM   H16F12883   0.843   4.398   8.623 -3.2197  1.8243 -1.3472
  121OSM   H16G12884   1.008   4.434   8.593 -0.9002 -1.0211  0.7922
  121OSM   C17F12885   0.870   4.569   8.502 -0.3120  0.7737 -0.4306
  121OSM   H17F12886   0.943   4.651   8.487 -1.3271  1.7302 -0.2179
  121OSM   H17G12887   0.780   4.628   8.530 -0.5879 -0.1126  0.6218
  121OSM   C18F12888   0.846   4.480   8.375 -0.3217  0.8379  1.1149
  121OSM   H18F12889   0.804   4.548   8.297 -1.6365  1.1562  2.0687
  121OSM   H18G12890   0.777   4.396   8.397  0.1510 -0.0707 -0.6759
  121OSM   H18H12891   0.939   4.438   8.331 -2.0118 -0.0591 -1.9207
  122OSM      N12892   1.510   2.162  10.592  0.3984  0.4111  0.0835
  122OSM    C1512893   1.453   2.094  10.470  0.1251 -1.1166  0.6438
  122OSM   H15A12894   1.505   2.003  10.441 -0.5561 -1.1136 -0.6757
  122OSM   H15B12895   1.443   2.172  10.396  1.3132  0.1609  1.7821
  122OSM   H15C12896   1.351   2.067  10.494 -0.6302  2.1046  1.5482
  122OSM    C1412897   1.519   2.065  10.703  0.3389 -0.2566  0.1841
  122OSM   H14A12898   1.577   1.976  10.683  1.7503  0.3152  1.5081
  122OSM   H14B12899   1.420   2.030  10.727 -0.9427  0.2913 -3.5262
  122OSM   H14C12900   1.564   2.104  10.793 -1.6536 -0.3093  1.2611
  122OSM    C1312901   1.648   2.209  10.555  0.3483  0.1254  0.0602
  122OSM   H13A12902   1.680   2.276  10.633 -0.1525 -0.0381  0.4144
  122OSM   H13B12903   1.631   2.263  10.464  0.6017 -2.6354 -1.7413
  122OSM   H13C12904   1.727   2.136  10.542 -0.8559 -1.2558  0.2120
  122OSM    C1212905   1.420   2.282  10.617 -0.2350 -0.0773 -0.4195
  122OSM   H12A12906   1.319   2.250  10.635 -0.2126 -0.5406 -1.0615
  122OSM   H12B12907   1.407   2.345  10.530  1.6344  0.6365 -0.2419
  122OSM    C1112908   1.461   2.368  10.734 -0.2994  0.1018  0.2546
  122OSM   H11A12909   1.452   2.313  10.830 -4.0084  1.0775  0.6192
  122OSM   H11B12910   1.376   2.440  10.737 -0.0321  0.4003  0.8980
  122OSM      P12911   1.610   2.564  10.639  0.0699  0.2485 -0.0078
  122OSM    O1312912   1.521   2.667  10.694 -0.0922  0.3761 -0.0140
  122OSM    O1412913   1.755   2.591  10.639  0.2827 -0.3678 -0.3065
  122OSM    O1112914   1.572   2.528  10.490  0.2517 -0.3055  0.7687
  122OSM    O1212915   1.581   2.430  10.708 -0.5947  0.4874 -0.1541
  122OSM    C1S12916   1.482   2.614  10.423 -0.0529 -0.2223 -0.3986
  122OSM    H1S12917   1.497   2.722  10.444  3.2413 -0.9133  1.4266
  122OSM    H1T12918   1.377   2.595  10.453 -0.2520  1.8091  0.3333
  122OSM     NF12919   1.404   2.694  10.195 -0.4963  0.1435 -0.4470
  122OSM    HNF12920   1.316   2.661  10.162 -0.1374 -1.3245 -0.0195
  122OSM    C2S12921   1.492   2.603  10.259  0.2056  0.6443  0.4313
  122OSM    H2S12922   1.596   2.633  10.238  0.4206  0.1471  0.7633
  122OSM    C3S12923   1.468   2.451  10.225 -0.8292  0.5043 -0.0192
  122OSM    H3S12924   1.364   2.423  10.251  0.2414 -1.5995  2.3598
  122OSM     O312925   1.550   2.362  10.294 -0.0779  0.5888  0.2170
  122OSM    HO312926   1.582   2.407  10.372  0.2576  2.1278 -0.7754
  122OSM    C4S12927   1.476   2.440  10.074  0.1675 -0.4418  0.4302
  122OSM    H4S12928   1.378   2.445  10.026 -0.2423 -0.8308  1.2079
  122OSM    C5S12929   1.588   2.417   9.997  0.6907  0.4181 -0.6710
  122OSM    H5S12930   1.675   2.382  10.053  0.6393  1.4638  0.0860
  122OSM    C6S12931   1.600   2.405   9.847  0.5862 -0.0283  0.3370
  122OSM    H6S12932   1.624   2.300   9.819 -1.4160 -0.4588  0.0426
  122OSM    H6T12933   1.682   2.470   9.811  0.4767  0.4879  1.0068
  122OSM    C7S12934   1.468   2.452   9.774 -0.3669  0.7134 -0.0155
  122OSM    H7S12935   1.456   2.559   9.799  1.0047  0.4057  2.2049
  122OSM    H7T12936   1.382   2.387   9.802 -0.2023  1.1753  1.6233
  122OSM    C8S12937   1.485   2.429   9.621  0.7288 -0.0601  0.5440
  122OSM    H8S12938   1.524   2.328   9.596  1.0607  0.8579 -3.3472
  122OSM    H8T12939   1.569   2.490   9.581  0.8443  0.3115  1.3276
  122OSM    C9S12940   1.352   2.466   9.558 -0.2736  0.4517 -0.0130
  122OSM    H9S12941   1.319   2.570   9.576 -1.3653  0.0056  0.6511
  122OSM    H9T12942   1.285   2.405   9.623  1.5087 -0.9675  0.5643
  122OSM   C10S12943   1.318   2.437   9.406 -0.0799  0.2615 -0.1342
  122OSM   H10S12944   1.215   2.469   9.381 -0.2077 -1.1740 -1.6165
  122OSM   H10T12945   1.325   2.328   9.382 -0.5834  0.4409 -1.1180
  122OSM   C11S12946   1.413   2.510   9.307  0.2602  0.2464 -0.8227
  122OSM   H11S12947   1.453   2.603   9.352  1.2389 -0.4785 -0.1704
  122OSM   H11T12948   1.362   2.537   9.212  1.3349  1.9731 -0.9445
  122OSM   C12S12949   1.531   2.426   9.253 -0.1638  0.3662 -0.3168
  122OSM   H12S12950   1.523   2.325   9.298  2.0651  0.0962 -0.3984
  122OSM   H12T12951   1.632   2.452   9.291 -0.5183  0.8179  0.3235
  122OSM   C13S12952   1.532   2.406   9.103 -0.2087  0.2251  0.8582
  122OSM   H13S12953   1.634   2.368   9.079 -1.0046 -2.5481  1.5220
  122OSM   H13T12954   1.511   2.499   9.046 -3.5581 -1.3480 -0.7375
  122OSM   C14S12955   1.441   2.301   9.050 -0.6492  0.1620  1.1274
  122OSM   H14S12956   1.350   2.300   9.115 -1.2143 -2.1698  0.3844
  122OSM   H14T12957   1.487   2.202   9.068  1.1239  0.6511 -0.4598
  122OSM   C15S12958   1.418   2.318   8.896 -0.2427  1.0565  0.5291
  122OSM   H15S12959   1.514   2.333   8.843  0.9926  1.2489  2.6979
  122OSM   H15T12960   1.368   2.417   8.885 -0.6678  0.9244  1.2345
  122OSM   C16S12961   1.359   2.199   8.813  0.1623 -0.3126 -0.6517
  122OSM   H16S12962   1.376   2.104   8.869 -2.8265 -0.6237 -0.1042
  122OSM   H16T12963   1.421   2.196   8.721  1.2032 -2.7650  0.0584
  122OSM   C17S12964   1.203   2.219   8.794 -0.2824 -0.0168  1.0733
  122OSM   H17S12965   1.188   2.294   8.715 -0.9156 -0.7832  0.4522
  122OSM   H17T12966   1.158   2.256   8.889  1.5112 -0.1049  2.0161
  122OSM   C18S12967   1.155   2.081   8.752 -0.0179  0.7472  0.8786
  122OSM   H18S12968   1.138   2.011   8.837  2.9128 -1.8244 -0.4742
  122OSM   H18T12969   1.215   2.026   8.677 -0.6490  0.3873  0.6290
  122OSM   H18U12970   1.059   2.109   8.702  1.0078  2.1038 -0.4082
  122OSM    C1F12971   1.431   2.823  10.189  0.1737 -0.2383 -0.2043
  122OSM     OF12972   1.543   2.858  10.230  0.0266  0.3486 -0.9231
  122OSM    C2F12973   1.323   2.920  10.135 -0.2936 -0.3379  0.2451
  122OSM    H2F12974   1.238   2.927  10.205  0.9104 -0.8193  1.8132
  122OSM    H2G12975   1.289   2.875  10.039  2.5245 -0.4608 -0.8135
  122OSM    C3F12976   1.378   3.057  10.086 -0.1251 -0.5860 -0.8486
  122OSM    H3F12977   1.399   3.118  10.176 -1.4804  0.8505 -1.4575
  122OSM    H3G12978   1.299   3.118  10.037 -0.3391 -0.9149 -0.9140
  122OSM    C4F12979   1.503   3.061  10.002 -0.2488 -0.2830  0.8150
  122OSM    H4F12980   1.587   3.057  10.075 -0.6814  2.7250  1.5952
  122OSM    H4G12981   1.523   3.157   9.951  0.1338 -1.1790 -0.7643
  122OSM    C5F12982   1.501   2.970   9.882  0.9638  0.4668  0.3033
  122OSM    H5F12983   1.500   2.863   9.912 -2.4450 -0.7714 -3.3927
  122OSM    H5G12984   1.589   2.970   9.814 -0.8842 -1.0108 -2.2715
  122OSM    C6F12985   1.374   2.984   9.785 -0.6195 -0.0308 -0.7870
  122OSM    H6F12986   1.389   3.074   9.722  0.1674  1.7942  1.8412
  122OSM    H6G12987   1.279   2.996   9.842 -2.1062 -1.1098 -2.9253
  122OSM    C7F12988   1.354   2.865   9.686  0.2276  0.5553 -0.2126
  122OSM    H7F12989   1.358   2.774   9.750  3.0971  1.4315  0.9829
  122OSM    H7G12990   1.451   2.869   9.633 -0.3336  0.8683 -1.2651
  122OSM    C8F12991   1.231   2.868   9.591 -0.1117  0.2187  0.7679
  122OSM    H8F12992   1.246   2.779   9.527  0.2465  1.1309 -0.4527
  122OSM    H8G12993   1.238   2.955   9.522 -3.5982  0.8098  0.9597
  122OSM    C9F12994   1.092   2.872   9.647 -0.7442  0.3383 -0.1487
  122OSM    H9F12995   1.071   2.953   9.719 -2.4428  2.0280 -2.3835
  122OSM   C10F12996   0.988   2.793   9.622 -0.1517 -0.0782  0.7038
  122OSM   H10F12997   0.895   2.795   9.681 -0.2841  0.5189  0.4730
  122OSM   C11F12998   0.967   2.688   9.522  1.0322 -0.1431 -0.0131
  122OSM   H11F12999   0.928   2.598   9.576 -0.6156  0.4357 -0.1699
  122OSM   H11G13000   1.059   2.648   9.474  1.0237 -1.5081  1.0331
  122OSM   C12F13001   0.856   2.725   9.421  0.2170  0.1816  0.3369
  122OSM   H12F13002   0.781   2.792   9.468 -0.3669 -1.2136  1.4672
  122OSM   H12G13003   0.796   2.634   9.400  1.9282 -0.8311 -0.3708
  122OSM   C13F13004   0.913   2.786   9.291  0.0473 -0.3366 -0.1198
  122OSM   H13F13005   0.995   2.853   9.325  0.8027 -0.6125 -1.3325
  122OSM   H13G13006   0.835   2.854   9.248 -0.6309 -0.0636  1.4632
  122OSM   C14F13007   0.954   2.686   9.188 -0.5487 -0.0467 -0.3885
  122OSM   H14F13008   0.865   2.622   9.167 -0.6336 -0.1391  0.2482
  122OSM   H14G13009   1.031   2.617   9.228  2.9162  3.8903  0.3987
  122OSM   C15F13010   1.024   2.756   9.068 -0.4805  0.3436 -0.4079
  122OSM   H15F13011   1.112   2.799   9.120 -0.9831 -1.6733  2.3487
  122OSM   H15G13012   0.958   2.824   9.010 -2.1461  0.3201  1.3496
  122OSM   C16F13013   1.103   2.658   8.971  0.2514  0.0585 -0.3370
  122OSM   H16F13014   1.040   2.598   8.901  1.4932 -0.4670 -1.0383
  122OSM   H16G13015   1.162   2.593   9.039 -0.5808 -1.1804 -0.7547
  122OSM   C17F13016   1.208   2.733   8.882 -0.1211 -0.9145 -0.3441
  122OSM   H17F13017   1.162   2.813   8.820 -0.5124  0.0228  1.1075
  122OSM   H17G13018   1.247   2.656   8.812 -0.2642 -1.0228 -0.3036
  122OSM   C18F13019   1.330   2.775   8.968  0.2064  0.2575 -0.2073
  122OSM   H18F13020   1.406   2.809   8.895  0.6542  0.1494  0.2110
  122OSM   H18G13021   1.354   2.695   9.041 -0.7292 -0.0650 -0.2380
  122OSM   H18H13022   1.296   2.860   9.030  0.2013 -0.9276  1.4887
  123OSM      N13023   4.720   1.533   5.844 -0.2004 -0.1567 -0.0245
  123OSM    C1513024   4.841   1.459   5.885 -0.0486  0.3343  0.1014
  123OSM   H15A13025   4.922   1.488   5.820  0.1018 -0.5950 -0.1320
  123OSM   H15B13026   4.833   1.352   5.887 -1.1460  0.3666  3.2506
  123OSM   H15C13027   4.863   1.490   5.987  1.2488 -0.8474  0.2113
  123OSM    C1413028   4.653   1.470   5.725  0.1023  0.3312  0.4147
  123OSM   H14A13029   4.571   1.534   5.698  0.3102  0.1347 -0.7222
  123OSM   H14B13030   4.616   1.371   5.751  3.0138 -0.8688  0.3363
  123OSM   H14C13031   4.716   1.458   5.639  0.0633  1.3029  0.2453
  123OSM    C1313032   4.612   1.499   5.953  0.6583 -0.4124 -0.2895
  123OSM   H13A13033   4.530   1.566   5.930  1.8839  0.5114 -2.2201
  123OSM   H13B13034   4.643   1.533   6.051  1.0656  0.7118 -0.7891
  123OSM   H13C13035   4.606   1.392   5.961  1.3658 -0.3772  1.1096
  123OSM    C1213036   4.746   1.679   5.832 -0.2411 -0.1518  0.2813
  123OSM   H12A13037   4.665   1.729   5.782  0.4645 -0.1150 -0.8696
  123OSM   H12B13038   4.825   1.698   5.760 -1.0150  2.8193  0.1115
  123OSM    C1113039   4.785   1.755   5.964  0.1826 -0.8358  0.4119
  123OSM   H11A13040   4.687   1.747   6.015 -0.6295 -1.1633 -1.1387
  123OSM   H11B13041   4.809   1.861   5.943 -0.0006 -0.9577 -0.4938
  123OSM      P13042   5.000   1.774   6.105  0.4887 -0.3068  0.0942
  123OSM    O1313043   5.056   1.696   6.217  0.0836  0.0883 -0.5367
  123OSM    O1413044   5.083   1.802   5.987  0.0554 -0.3926 -0.1206
  123OSM    O1113045   4.927   1.902   6.155 -0.2237  0.0976 -0.2681
  123OSM    O1213046   4.882   1.688   6.045  0.5223  0.3144 -0.0710
  123OSM    C1S13047   4.818   1.896   6.247  0.3659  0.1959 -0.7915
  123OSM    H1S13048   4.758   1.803   6.239 -1.2745  1.1734 -0.3020
  123OSM    H1T13049   4.747   1.979   6.230  0.4186  0.2208 -0.8920
  123OSM     NF13050   4.767   1.918   6.486 -0.2970 -0.4153 -0.3495
  123OSM    HNF13051   4.733   1.999   6.533  2.5318  0.2674  0.7164
  123OSM    C2S13052   4.875   1.920   6.394 -0.9706  0.5121  0.2375
  123OSM    H2S13053   4.951   1.840   6.407  2.3301  3.2580 -0.4245
  123OSM    C3S13054   4.957   2.054   6.400  0.0326 -0.3130  0.5926
  123OSM    H3S13055   4.881   2.129   6.370 -0.5401 -1.5128 -1.0772
  123OSM     O313056   5.056   2.080   6.304 -0.1762  0.3308  0.3381
  123OSM    HO313057   5.025   2.029   6.229  0.4138 -1.6323  1.3476
  123OSM    C4S13058   5.016   2.072   6.540  0.5474 -0.5568 -1.1837
  123OSM    H4S13059   4.956   2.130   6.611 -2.6982 -1.8401 -2.6842
  123OSM    C5S13060   5.128   2.021   6.587 -0.0385 -0.1096  0.4226
  123OSM    H5S13061   5.188   1.955   6.522  0.2457  0.7787 -0.2429
  123OSM    C6S13062   5.172   2.049   6.728 -0.3806 -0.3919 -0.0795
  123OSM    H6S13063   5.084   2.065   6.794 -1.0504 -0.0643 -1.0170
  123OSM    H6T13064   5.243   2.134   6.727 -0.3606 -0.4101 -0.2026
  123OSM    C7S13065   5.254   1.934   6.789 -0.1681 -0.6859  0.2645
  123OSM    H7S13066   5.346   1.925   6.727 -0.3401  1.4263 -0.3769
  123OSM    H7T13067   5.198   1.838   6.785  0.7863 -1.5036  3.6745
  123OSM    C8S13068   5.287   1.964   6.934  0.0859  0.2044  0.1843
  123OSM    H8S13069   5.190   1.967   6.988  0.5373 -1.4283  1.1703
  123OSM    H8T13070   5.341   2.061   6.937 -0.3312  0.4333  0.3325
  123OSM    C9S13071   5.365   1.844   6.991  0.2972  0.4763  0.1109
  123OSM    H9S13072   5.444   1.811   6.920 -1.4133 -1.0734 -1.1749
  123OSM    H9T13073   5.299   1.755   6.994  0.6743  0.1764 -0.4479
  123OSM   C10S13074   5.429   1.865   7.129  0.2193 -0.4805 -0.6179
  123OSM   H10S13075   5.493   1.954   7.144 -0.5365 -0.4881  4.4618
  123OSM   H10T13076   5.491   1.778   7.157  0.8189  0.9057  2.7672
  123OSM   C11S13077   5.325   1.874   7.245  0.9903 -0.6414  0.5599
  123OSM   H11S13078   5.245   1.797   7.232 -0.7909  1.0440  1.0601
  123OSM   H11T13079   5.267   1.968   7.239  0.0702 -1.2179  0.1599
  123OSM   C12S13080   5.364   1.860   7.385  0.6375  0.1025  0.1211
  123OSM   H12S13081   5.421   1.765   7.388  1.5871  0.6903  2.1900
  123OSM   H12T13082   5.270   1.846   7.443  1.3041  0.1759  1.2414
  123OSM   C13S13083   5.448   1.977   7.442  0.0041 -0.0547  0.2193
  123OSM   H13S13084   5.415   2.077   7.407  2.6598  1.2193  1.0820
  123OSM   H13T13085   5.555   1.971   7.412 -0.0826 -1.7872  0.1210
  123OSM   C14S13086   5.459   1.976   7.595 -0.4796  0.1154  0.0614
  123OSM   H14S13087   5.471   1.869   7.623  0.7563 -0.4540 -2.3920
  123OSM   H14T13088   5.363   2.016   7.634 -0.5173  0.0195  0.0679
  123OSM   C15S13089   5.569   2.052   7.657 -0.0834  0.0681  0.2220
  123OSM   H15S13090   5.581   2.158   7.626  0.4047 -0.1407 -0.3205
  123OSM   H15T13091   5.657   1.998   7.616  0.2227  2.5358 -2.7258
  123OSM   C16S13092   5.575   2.030   7.810  0.1915 -0.2106  0.0840
  123OSM   H16S13093   5.662   2.094   7.838 -0.4707  1.9616 -2.3600
  123OSM   H16T13094   5.604   1.929   7.844 -1.9697 -0.5917  0.9520
  123OSM   C17S13095   5.464   2.085   7.902 -0.2220 -0.0559  0.2614
  123OSM   H17S13096   5.502   2.069   8.005  0.5339 -0.4363 -0.0730
  123OSM   H17T13097   5.372   2.025   7.882 -0.4481  0.4317 -0.1715
  123OSM   C18S13098   5.438   2.229   7.878  0.1779 -0.0740  1.5516
  123OSM   H18S13099   5.522   2.296   7.907  1.1349 -1.2284  1.5136
  123OSM   H18T13100   5.349   2.255   7.939 -0.3297 -1.3964  1.4103
  123OSM   H18U13101   5.418   2.238   7.769  2.2482  0.4246  1.1517
  123OSM    C1F13102   4.708   1.800   6.523 -0.5382 -0.2846 -0.4589
  123OSM     OF13103   4.736   1.698   6.470 -0.4950  0.0938  0.3345
  123OSM    C2F13104   4.605   1.811   6.629 -0.4083  0.1226  0.7889
  123OSM    H2F13105   4.504   1.807   6.583 -0.9097  1.7875  1.6471
  123OSM    H2G13106   4.610   1.914   6.672  0.8286  0.6164 -0.4481
  123OSM    C3F13107   4.621   1.704   6.733 -0.2157  0.2813  0.2865
  123OSM    H3F13108   4.675   1.617   6.689  0.9142  0.3651  1.4558
  123OSM    H3G13109   4.525   1.661   6.769 -0.0060 -0.1102  0.3807
  123OSM    C4F13110   4.701   1.744   6.862  0.2566  0.1750 -0.4415
  123OSM    H4F13111   4.709   1.655   6.928 -1.6006  0.8873  0.8366
  123OSM    H4G13112   4.642   1.824   6.912 -0.5496  0.3891 -1.6784
  123OSM    C5F13113   4.841   1.799   6.845  0.3646  0.3131  0.4113
  123OSM    H5F13114   4.829   1.890   6.783  1.8698 -0.7229 -1.5151
  123OSM    H5G13115   4.896   1.726   6.782  0.3858 -0.8370  1.6977
  123OSM    C6F13116   4.919   1.825   6.969 -0.3762 -0.6623 -0.5628
  123OSM    H6F13117   5.015   1.873   6.942  0.1421 -1.0143  0.5852
  123OSM    H6G13118   4.967   1.731   7.005  2.8589  1.5999  1.6645
  123OSM    C7F13119   4.850   1.893   7.093 -1.2610  0.6170 -0.5382
  123OSM    H7F13120   4.772   1.830   7.141  0.2588  0.5711  2.0717
  123OSM    H7G13121   4.804   1.987   7.058  1.6727  2.3152 -0.1703
  123OSM    C8F13122   4.954   1.923   7.205 -0.6722 -0.2545  0.2407
  123OSM    H8F13123   5.049   1.972   7.173 -0.8275 -0.6480 -0.8611
  123OSM    H8G13124   4.995   1.829   7.247 -1.7522 -0.2722  1.3183
  123OSM    C9F13125   4.893   2.008   7.313  0.9708 -0.4811  0.4048
  123OSM    H9F13126   4.853   2.106   7.283 -2.3768 -1.7489  0.4011
  123OSM   C10F13127   4.875   1.985   7.444 -0.0386 -0.3528 -0.1329
  123OSM   H10F13128   4.821   2.071   7.486  0.3470  0.6227 -1.5627
  123OSM   C11F13129   4.919   1.872   7.531  1.0302  0.2695 -0.3577
  123OSM   H11F13130   4.955   1.788   7.468  2.3545 -0.3016  1.0890
  123OSM   H11G13131   4.830   1.835   7.586  1.8750 -0.4235  0.5620
  123OSM   C12F13132   5.025   1.900   7.640 -0.0454  0.2664 -0.9492
  123OSM   H12F13133   5.113   1.937   7.583  2.5291 -1.1122  1.9170
  123OSM   H12G13134   5.058   1.802   7.678  2.7363  2.0285  1.6159
  123OSM   C13F13135   4.984   1.991   7.759 -0.4069  0.7710  0.9107
  123OSM   H13F13136   4.894   1.945   7.805 -0.2535  0.1899  0.6393
  123OSM   H13G13137   4.962   2.090   7.714 -0.2923  0.8023  0.9232
  123OSM   C14F13138   5.103   2.006   7.861 -0.6584  0.5788 -0.8089
  123OSM   H14F13139   5.188   2.056   7.810  0.5720  2.2128  2.5249
  123OSM   H14G13140   5.141   1.903   7.875  0.7001  0.8407 -2.2401
  123OSM   C15F13141   5.062   2.076   7.986  0.3179  0.1736 -0.2775
  123OSM   H15F13142   4.954   2.068   8.011  0.4299  1.4373  0.7000
  123OSM   H15G13143   5.088   2.183   7.971 -0.5022  0.1147 -2.4372
  123OSM   C16F13144   5.132   2.005   8.106  0.3717 -0.2976 -0.6982
  123OSM   H16F13145   5.242   2.016   8.097  0.2174  1.9531 -0.3616
  123OSM   H16G13146   5.096   1.900   8.107 -0.7734  0.0856  0.1525
  123OSM   C17F13147   5.106   2.075   8.240  0.8878  0.5028  0.9568
  123OSM   H17F13148   4.997   2.075   8.260  0.4971 -0.1314 -0.9545
  123OSM   H17G13149   5.148   2.177   8.224 -3.1840  2.2828  0.2203
  123OSM   C18F13150   5.160   1.994   8.356 -0.7588 -0.5066 -0.2858
  123OSM   H18F13151   5.118   1.891   8.361 -2.3248 -0.0286 -2.3027
  123OSM   H18G13152   5.132   2.037   8.455 -0.4489  2.7398 -1.4890
  123OSM   H18H13153   5.271   1.990   8.350 -0.7035 -2.8505  1.1717
  124OSM      N13154   2.403   0.813   6.292  0.6279 -0.1970 -0.7098
  124OSM    C1513155   2.524   0.738   6.330 -0.8654 -0.3492  0.6322
  124OSM   H15A13156   2.530   0.714   6.435  0.0016 -1.8926  0.2597
  124OSM   H15B13157   2.606   0.803   6.302 -1.2140  1.6650  3.7664
  124OSM   H15C13158   2.519   0.641   6.282 -0.1945 -1.0689  1.9675
  124OSM    C1413159   2.373   0.906   6.405  0.4308 -0.6407 -0.3684
  124OSM   H14A13160   2.299   0.980   6.380  0.7101  0.3399  1.4872
  124OSM   H14B13161   2.464   0.961   6.425  0.2461  0.0402 -1.3423
  124OSM   H14C13162   2.338   0.854   6.493  0.2475 -1.3627 -0.8625
  124OSM    C1313163   2.429   0.898   6.167 -0.1357  0.1289  0.9347
  124OSM   H13A13164   2.508   0.970   6.182  1.7933 -1.1955 -2.1038
  124OSM   H13B13165   2.338   0.942   6.128  0.6438  1.5876  0.6907
  124OSM   H13C13166   2.473   0.834   6.092  3.1199  0.7142  2.1983
  124OSM    C1213167   2.282   0.726   6.276  0.6171  0.3135  0.3016
  124OSM   H12A13168   2.293   0.664   6.188  1.0212 -0.7498  1.0742
  124OSM   H12B13169   2.202   0.797   6.263  2.7705  2.6947 -0.7781
  124OSM    C1113170   2.253   0.620   6.389 -0.6635 -0.9924  0.2283
  124OSM   H11A13171   2.143   0.601   6.389 -1.4759  2.9710 -0.0274
  124OSM   H11B13172   2.278   0.673   6.483 -0.7570 -1.1917  0.3661
  124OSM      P13173   2.314   0.392   6.286  0.3797  0.3627  0.1323
  124OSM    O1313174   2.321   0.436   6.144  0.2619  0.1524 -0.7537
  124OSM    O1413175   2.402   0.278   6.326 -0.1629 -0.0565  0.5865
  124OSM    O1113176   2.166   0.340   6.317 -0.1091 -0.2294 -0.0213
  124OSM    O1213177   2.341   0.508   6.386 -0.1556 -0.3735 -0.1867
  124OSM    C1S13178   2.152   0.286   6.451  0.5789 -0.2378 -0.4925
  124OSM    H1S13179   2.205   0.346   6.528  2.3237 -0.5073 -1.4189
  124OSM    H1T13180   2.177   0.178   6.452 -1.7083 -0.8400  1.6014
  124OSM     NF13181   1.982   0.241   6.630  0.2679  1.1028 -0.2885
  124OSM    HNF13182   1.994   0.142   6.623  0.4359  1.1098 -0.1152
  124OSM    C2S13183   1.999   0.295   6.496 -0.4674  0.2070 -0.1384
  124OSM    H2S13184   1.976   0.403   6.505 -1.2365  0.0048  0.4832
  124OSM    C3S13185   1.907   0.224   6.390 -0.3048  0.7486 -0.7727
  124OSM    H3S13186   1.930   0.116   6.378  0.8176  0.8802  0.0251
  124OSM     O313187   1.930   0.257   6.254  0.2137 -0.1845 -0.6693
  124OSM    HO313188   2.010   0.309   6.263 -0.2776  0.4866  0.0008
  124OSM    C4S13189   1.764   0.241   6.427 -0.2202 -0.3988 -1.1944
  124OSM    H4S13190   1.729   0.150   6.477 -1.8681  0.4540 -0.7314
  124OSM    C5S13191   1.679   0.344   6.408 -0.1578  0.4105  0.1697
  124OSM    H5S13192   1.724   0.431   6.358  0.5611 -0.8648 -1.5060
  124OSM    C6S13193   1.531   0.353   6.456 -0.0891  0.0808  0.0403
  124OSM    H6S13194   1.514   0.257   6.509  0.3425 -0.9136 -1.5253
  124OSM    H6T13195   1.455   0.357   6.375  0.0603  3.4297 -0.0711
  124OSM    C7S13196   1.509   0.475   6.548 -0.1639 -0.0927  0.2136
  124OSM    H7S13197   1.512   0.567   6.485 -2.6235 -0.4896 -0.6020
  124OSM    H7T13198   1.585   0.482   6.629 -1.1221  0.9785  1.0556
  124OSM    C8S13199   1.378   0.471   6.630  0.3976  0.4841 -0.0560
  124OSM    H8S13200   1.398   0.391   6.705 -1.7235  0.0050  0.0582
  124OSM    H8T13201   1.297   0.437   6.561 -1.8330  1.2490  2.0523
  124OSM    C9S13202   1.350   0.598   6.694  0.8269 -0.8855 -0.2377
  124OSM    H9S13203   1.309   0.660   6.612 -1.3036 -0.9364  0.7227
  124OSM    H9T13204   1.447   0.631   6.738  0.1889 -0.6983  1.0856
  124OSM   C10S13205   1.245   0.591   6.805  0.8693  0.8565 -0.7649
  124OSM   H10S13206   1.167   0.521   6.771  1.4275 -0.8623  1.3015
  124OSM   H10T13207   1.200   0.692   6.817  0.2400  0.5564 -0.5388
  124OSM   C11S13208   1.291   0.536   6.947 -0.2157 -0.3750  0.1052
  124OSM   H11S13209   1.377   0.592   6.987 -0.2383 -1.5798  1.9375
  124OSM   H11T13210   1.312   0.427   6.951 -0.1137 -0.3547  0.1113
  124OSM   C12S13211   1.188   0.567   7.058 -0.0842  0.1797  0.6633
  124OSM   H12S13212   1.091   0.514   7.049 -1.2363  2.2233  0.5125
  124OSM   H12T13213   1.153   0.670   7.034 -1.0315 -0.2279  0.2571
  124OSM   C13S13214   1.235   0.546   7.201  0.0386 -0.0736 -0.5873
  124OSM   H13S13215   1.316   0.618   7.229  0.6515 -1.9470  3.0945
  124OSM   H13T13216   1.280   0.446   7.220 -0.9796 -0.2923  0.7766
  124OSM   C14S13217   1.125   0.579   7.296 -0.2502 -0.2555 -0.0271
  124OSM   H14S13218   1.034   0.527   7.261 -1.0545 -0.4962  2.2373
  124OSM   H14T13219   1.107   0.689   7.303 -0.4904 -0.1735 -1.6680
  124OSM   C15S13220   1.156   0.530   7.437  0.0518 -0.5197  0.1512
  124OSM   H15S13221   1.235   0.593   7.481 -0.0688 -0.0446 -0.2956
  124OSM   H15T13222   1.189   0.424   7.438  2.8961  0.2550 -1.1123
  124OSM   C16S13223   1.031   0.541   7.522 -0.6599  0.2071 -0.8001
  124OSM   H16S13224   0.950   0.473   7.487 -0.4021 -1.3705  1.4732
  124OSM   H16T13225   0.988   0.644   7.525 -0.0251  0.4670  1.7854
  124OSM   C17S13226   1.051   0.505   7.666 -0.9240 -0.3022 -0.4364
  124OSM   H17S13227   1.150   0.545   7.695 -0.7236  0.2319 -1.8070
  124OSM   H17T13228   1.062   0.394   7.667  1.8245 -0.0952  0.6617
  124OSM   C18S13229   0.939   0.556   7.748  0.5867 -0.5769 -0.3701
  124OSM   H18S13230   0.936   0.667   7.747  2.3768 -0.4160  1.7716
  124OSM   H18T13231   0.939   0.530   7.856  1.1891  2.0979  0.3562
  124OSM   H18U13232   0.839   0.535   7.705  0.4849  2.0627 -1.6454
  124OSM    C1F13233   1.992   0.315   6.739 -0.4334 -0.3628  0.2449
  124OSM     OF13234   1.992   0.439   6.734 -0.2807  0.3614 -0.2155
  124OSM    C2F13235   2.017   0.243   6.872  0.1201 -0.7375  0.5641
  124OSM    H2F13236   2.119   0.199   6.862  0.5959  0.0827  1.6359
  124OSM    H2G13237   1.943   0.162   6.890 -1.0216  0.2231  0.2831
  124OSM    C3F13238   2.011   0.340   6.997 -0.3785  0.1644 -0.6042
  124OSM    H3F13239   1.908   0.377   7.014 -0.2781  0.2401 -0.1507
  124OSM    H3G13240   2.080   0.424   6.976  0.1505 -0.4341 -1.3071
  124OSM    C4F13241   2.062   0.266   7.122  0.2377  1.0002  0.7433
  124OSM    H4F13242   2.097   0.334   7.203  1.3264 -0.8660  1.9200
  124OSM    H4G13243   2.156   0.213   7.099  0.1564  1.3811 -0.5252
  124OSM    C5F13244   1.953   0.185   7.194  0.3069  0.8068  0.4831
  124OSM    H5F13245   1.943   0.087   7.141  1.0356  0.7167  0.5074
  124OSM    H5G13246   1.855   0.237   7.184  0.2441  1.2956  3.0132
  124OSM    C6F13247   1.990   0.160   7.342 -0.1171  0.3506  0.3606
  124OSM    H6F13248   2.003   0.261   7.386  2.3538  0.0265  0.4962
  124OSM    H6G13249   2.083   0.100   7.343 -0.2361 -0.0546 -2.6850
  124OSM    C7F13250   1.886   0.081   7.428  0.1198  0.0470 -0.0188
  124OSM    H7F13251   1.882  -0.025   7.394  0.0674  0.7740 -2.4675
  124OSM    H7G13252   1.785   0.110   7.391  0.1719 -1.5235 -1.5189
  124OSM    C8F13253   1.901   0.113   7.572  0.2751 -0.4141  0.2424
  124OSM    H8F13254   1.810   0.081   7.627 -1.0581  0.7080 -1.1764
  124OSM    H8G13255   1.919   0.223   7.578  0.2139 -0.4110  0.3686
  124OSM    C9F13256   2.016   0.037   7.631 -0.2532 -0.0695 -0.3808
  124OSM    H9F13257   2.015  -0.073   7.634 -0.7323 -0.0560  0.8844
  124OSM   C10F13258   2.118   0.094   7.696  0.4296 -0.0739 -0.4691
  124OSM   H10F13259   2.208   0.044   7.735  1.5556  2.8897  1.0539
  124OSM   C11F13260   2.135   0.246   7.720  0.1438  0.2324  0.5640
  124OSM   H11F13261   2.123   0.307   7.629 -0.4361  0.7070  0.9506
  124OSM   H11G13262   2.234   0.262   7.769  0.5505 -0.3362 -0.0517
  124OSM   C12F13263   2.025   0.299   7.815  0.0541  0.0671  0.5705
  124OSM   H12F13264   1.929   0.253   7.785 -0.5166  1.0763  0.8035
  124OSM   H12G13265   2.013   0.406   7.785  0.9277  0.0313  0.0484
  124OSM   C13F13266   2.046   0.285   7.966 -0.8952 -0.0084  0.2351
  124OSM   H13F13267   2.134   0.343   8.002 -1.2515  1.1644 -0.7041
  124OSM   H13G13268   2.080   0.180   7.973  2.1785  0.7771 -1.2746
  124OSM   C14F13269   1.925   0.309   8.057 -0.4805 -0.7295 -0.2942
  124OSM   H14F13270   1.856   0.222   8.065 -1.8168  0.4083  0.9537
  124OSM   H14G13271   1.873   0.391   8.003  3.1439  0.5666 -2.1686
  124OSM   C15F13272   1.973   0.348   8.196 -0.6340  0.7362  0.4508
  124OSM   H15F13273   1.885   0.341   8.263 -0.9484  0.7656  0.0435
  124OSM   H15G13274   2.011   0.452   8.201 -1.5420  1.0067  2.2693
  124OSM   C16F13275   2.080   0.251   8.251 -0.1395 -0.1428  0.7309
  124OSM   H16F13276   2.173   0.277   8.197 -0.6095 -0.9578 -0.5185
  124OSM   H16G13277   2.050   0.146   8.231 -0.8726 -0.2372  2.1795
  124OSM   C17F13278   2.098   0.259   8.402  0.7554  0.2860 -0.2274
  124OSM   H17F13279   2.184   0.194   8.429  3.1809  2.8077 -1.3827
  124OSM   H17G13280   2.008   0.233   8.462  0.0556 -0.8130 -1.6927
  124OSM   C18F13281   2.146   0.399   8.442  0.2328 -0.1745 -0.1678
  124OSM   H18F13282   2.075   0.477   8.407  1.7927  0.3972 -2.2318
  124OSM   H18G13283   2.236   0.434   8.388 -1.1566  4.6834  0.2268
  124OSM   H18H13284   2.169   0.406   8.550 -0.8142  2.0103 -0.0455
  125OSM      N13285   1.939   0.600   5.969  0.3688  0.9019 -0.6315
  125OSM    C1513286   1.886   0.596   5.831  0.2249  0.5382 -0.1651
  125OSM   H15A13287   1.884   0.692   5.782  0.8263 -0.1124 -1.5230
  125OSM   H15B13288   1.787   0.553   5.825  0.8856 -1.3509  1.4425
  125OSM   H15C13289   1.958   0.543   5.770 -1.3708 -0.5737 -1.1393
  125OSM    C1413290   1.958   0.458   6.010 -0.2536  0.1385 -0.4203
  125OSM   H14A13291   2.032   0.402   5.954 -0.3240 -0.4240  0.0399
  125OSM   H14B13292   1.864   0.405   6.015 -0.3139  0.3883  3.1700
  125OSM   H14C13293   1.983   0.454   6.115  0.1457  1.6369 -0.4409
  125OSM    C1313294   2.071   0.665   5.976  0.0993 -0.2777 -0.5992
  125OSM   H13A13295   2.064   0.764   5.932 -1.3375 -0.8006 -1.6033
  125OSM   H13B13296   2.149   0.609   5.927  0.3795  1.0807 -1.7760
  125OSM   H13C13297   2.091   0.688   6.080  1.1156  2.3537 -1.2760
  125OSM    C1213298   1.841   0.667   6.065  0.1786  0.1045  0.0741
  125OSM   H12A13299   1.744   0.621   6.059  1.1649 -1.9866 -0.8286
  125OSM   H12B13300   1.833   0.774   6.052 -1.0047  0.0971  0.6038
  125OSM    C1113301   1.880   0.659   6.213  0.2317  0.3341 -0.4192
  125OSM   H11A13302   1.887   0.554   6.248  0.6060 -0.0064 -1.4955
  125OSM   H11B13303   1.789   0.691   6.268 -0.6441 -1.1184 -0.9906
  125OSM      P13304   1.952   0.893   6.264 -0.2722 -0.1462 -0.3566
  125OSM    O1313305   2.083   0.968   6.258  0.2579  0.0677 -0.5160
  125OSM    O1413306   1.841   0.938   6.184 -0.0202 -0.1343  0.1715
  125OSM    O1113307   1.896   0.888   6.419  0.2149 -0.2342  0.4734
  125OSM    O1213308   1.991   0.742   6.245 -0.1334  0.0230 -0.3043
  125OSM    C1S13309   1.959   0.781   6.498 -0.5743  0.3162  0.0948
  125OSM    H1S13310   2.068   0.795   6.485 -0.3725 -0.7671  0.4981
  125OSM    H1T13311   1.931   0.679   6.464  0.4689 -0.1566  0.6095
  125OSM     NF13312   2.010   0.702   6.717  0.0817  0.0121  0.5663
  125OSM    HNF13313   2.001   0.603   6.727 -2.4029  0.1571  0.3112
  125OSM    C2S13314   1.916   0.780   6.643 -0.0488 -0.0850 -0.5206
  125OSM    H2S13315   1.925   0.886   6.675 -1.0961  0.4139 -1.7991
  125OSM    C3S13316   1.766   0.731   6.650 -0.1073  0.6514 -0.2777
  125OSM    H3S13317   1.759   0.621   6.641 -1.2074  0.4390  2.5037
  125OSM     O313318   1.682   0.780   6.545 -0.8957  0.6539 -0.4245
  125OSM    HO313319   1.751   0.824   6.495 -0.6363 -0.3132 -0.9332
  125OSM    C4S13320   1.709   0.754   6.786  0.2608 -0.3685 -0.9693
  125OSM    H4S13321   1.668   0.855   6.797  2.9763  0.7601 -0.4191
  125OSM    C5S13322   1.716   0.665   6.889 -0.6281 -0.2117  0.4760
  125OSM    H5S13323   1.777   0.575   6.874 -0.6049  0.0747 -1.4002
  125OSM    C6S13324   1.673   0.702   7.028 -0.5488 -0.1220  0.7283
  125OSM    H6S13325   1.571   0.662   7.048 -0.5942 -0.8714 -0.8260
  125OSM    H6T13326   1.682   0.810   7.052  0.8879  0.1277 -0.7920
  125OSM    C7S13327   1.770   0.638   7.133  0.3800  0.5227  0.7282
  125OSM    H7S13328   1.875   0.672   7.123  1.2968 -1.8645  1.6554
  125OSM    H7T13329   1.776   0.529   7.112  1.4226  0.2856  2.1585
  125OSM    C8S13330   1.731   0.671   7.277  0.7991  0.1592  0.3354
  125OSM    H8S13331   1.631   0.627   7.297 -0.9783  2.7727 -1.9875
  125OSM    H8T13332   1.706   0.778   7.290 -4.1621 -0.7708  0.4364
  125OSM    C9S13333   1.826   0.614   7.385 -0.2700  0.3301  0.1223
  125OSM    H9S13334   1.928   0.658   7.381 -0.8647  1.7752  0.1797
  125OSM    H9T13335   1.837   0.504   7.375 -0.5958  0.0415  2.4329
  125OSM   C10S13336   1.775   0.634   7.535  0.0982 -0.1287  0.8945
  125OSM   H10S13337   1.679   0.580   7.521 -0.3498  0.9403 -0.5136
  125OSM   H10T13338   1.751   0.736   7.572 -1.9659 -0.5931  0.9704
  125OSM   C11S13339   1.855   0.559   7.642 -0.7006  0.8516 -0.2947
  125OSM   H11S13340   1.955   0.542   7.596 -0.9608  0.4694 -0.7319
  125OSM   H11T13341   1.808   0.460   7.654 -0.6564  0.7017 -1.2257
  125OSM   C12S13342   1.859   0.629   7.775  0.2709 -0.3229 -0.1805
  125OSM   H12S13343   1.890   0.733   7.753 -0.4924 -0.1714 -0.5613
  125OSM   H12T13344   1.939   0.587   7.841 -0.7951 -0.3357  1.1457
  125OSM   C13S13345   1.728   0.629   7.852  0.7491 -0.2980 -0.0402
  125OSM   H13S13346   1.724   0.523   7.883  0.9250  0.8400  4.6963
  125OSM   H13T13347   1.642   0.668   7.793  0.4697  0.2863  0.7252
  125OSM   C14S13348   1.723   0.692   7.986  0.1233 -0.0604 -0.5556
  125OSM   H14S13349   1.808   0.671   8.054 -0.6611  1.6618  1.0479
  125OSM   H14T13350   1.629   0.663   8.038  1.5870 -0.3059  2.0790
  125OSM   C15S13351   1.727   0.843   7.978  0.1440 -0.5645 -0.1709
  125OSM   H15S13352   1.654   0.881   7.904  1.7709  1.3958 -0.8560
  125OSM   H15T13353   1.823   0.878   7.933 -0.3086  4.2351  2.0703
  125OSM   C16S13354   1.716   0.907   8.115 -0.0511 -0.6488  0.5012
  125OSM   H16S13355   1.802   0.875   8.178  1.2345  1.3908 -0.1464
  125OSM   H16T13356   1.627   0.866   8.168 -0.1607 -0.9309  0.1050
  125OSM   C17S13357   1.703   1.065   8.124 -0.2574 -0.8427  0.2770
  125OSM   H17S13358   1.597   1.083   8.096 -0.2594  0.1534  0.8821
  125OSM   H17T13359   1.769   1.108   8.046  0.1919 -2.4172 -0.2491
  125OSM   C18S13360   1.746   1.117   8.257 -0.5007 -0.2442 -0.7709
  125OSM   H18S13361   1.747   1.228   8.258  0.7279 -0.2395 -1.2663
  125OSM   H18T13362   1.853   1.093   8.272 -0.7757 -1.1048 -0.1403
  125OSM   H18U13363   1.688   1.080   8.345  2.1193 -0.8613  0.8081
  125OSM    C1F13364   2.121   0.761   6.765 -0.0231 -0.3371  0.0234
  125OSM     OF13365   2.147   0.880   6.756 -0.8161  0.1949 -0.2637
  125OSM    C2F13366   2.213   0.662   6.830 -0.3161  0.7855 -0.5849
  125OSM    H2F13367   2.317   0.690   6.804 -0.6396  1.3838 -1.2699
  125OSM    H2G13368   2.194   0.563   6.784  0.9950 -0.0712  0.6284
  125OSM    C3F13369   2.207   0.648   6.981 -0.1445  0.3455  0.4063
  125OSM    H3F13370   2.271   0.561   7.010  0.0754 -0.4304 -2.1821
  125OSM    H3G13371   2.106   0.628   7.024 -0.0072  1.0901  1.0951
  125OSM    C4F13372   2.259   0.772   7.056  0.5743  0.0082  0.2120
  125OSM    H4F13373   2.215   0.861   7.006 -3.6769 -1.4624  0.9139
  125OSM    H4G13374   2.368   0.791   7.053  0.5431  0.2158  0.3602
  125OSM    C5F13375   2.219   0.777   7.203  0.1433 -0.1437  0.1513
  125OSM    H5F13376   2.108   0.773   7.215  0.0901  1.8523  0.6419
  125OSM    H5G13377   2.256   0.872   7.246  1.6028 -0.5571 -0.1376
  125OSM    C6F13378   2.286   0.666   7.290 -0.1503  0.4471 -0.1179
  125OSM    H6F13379   2.365   0.621   7.226 -2.1871 -3.0135 -0.4597
  125OSM    H6G13380   2.216   0.581   7.305  1.3690 -0.6965  0.8450
  125OSM    C7F13381   2.329   0.734   7.419  0.5799 -0.1656 -0.0361
  125OSM    H7F13382   2.233   0.779   7.451  2.0445  0.9956  3.2346
  125OSM    H7G13383   2.400   0.815   7.392  1.2179 -0.1968  1.4393
  125OSM    C8F13384   2.381   0.651   7.531 -0.3585 -0.2750 -0.0303
  125OSM    H8F13385   2.422   0.722   7.606  1.8934 -1.6204  0.0923
  125OSM    H8G13386   2.475   0.599   7.503  1.4076  2.5664  0.2624
  125OSM    C9F13387   2.299   0.553   7.603  0.2838  0.3001 -0.2183
  125OSM    H9F13388   2.233   0.486   7.547 -0.6150  2.1096 -1.3821
  125OSM   C10F13389   2.296   0.540   7.734  0.3313 -0.9301 -0.2909
  125OSM   H10F13390   2.239   0.461   7.786  2.7122 -2.0787  0.7459
  125OSM   C11F13391   2.360   0.632   7.835  0.2762  0.0111  0.3830
  125OSM   H11F13392   2.467   0.643   7.808  0.4997 -0.3896  1.0863
  125OSM   H11G13393   2.353   0.580   7.932 -0.7192  0.2403  0.4423
  125OSM   C12F13394   2.292   0.773   7.843 -0.6777  0.0857 -0.3046
  125OSM   H12F13395   2.183   0.752   7.841 -0.4117 -1.5868  1.0004
  125OSM   H12G13396   2.317   0.832   7.752 -1.2631  0.2484 -0.3652
  125OSM   C13F13397   2.358   0.841   7.971  0.4197 -0.2658 -0.4069
  125OSM   H13F13398   2.353   0.951   7.955  1.7387 -0.2724 -1.0110
  125OSM   H13G13399   2.466   0.818   7.963  0.4319 -0.1562 -0.5624
  125OSM   C14F13400   2.268   0.811   8.093 -0.7593  0.5338 -0.4568
  125OSM   H14F13401   2.266   0.702   8.115  1.6974  1.0551  3.0253
  125OSM   H14G13402   2.162   0.828   8.063 -1.0082 -0.2969 -0.0802
  125OSM   C15F13403   2.305   0.891   8.220 -0.2609 -0.1746 -0.2147
  125OSM   H15F13404   2.251   0.988   8.223 -1.8409 -1.0386  1.1747
  125OSM   H15G13405   2.414   0.914   8.220 -0.3600  0.4148  1.0474
  125OSM   C16F13406   2.283   0.817   8.345 -0.7250  1.0061 -0.0374
  125OSM   H16F13407   2.326   0.715   8.333  1.9472  1.9882  0.3427
  125OSM   H16G13408   2.174   0.811   8.364 -0.7644 -1.0338 -0.6984
  125OSM   C17F13409   2.353   0.871   8.475 -0.4131 -0.1219  0.9707
  125OSM   H17F13410   2.314   0.802   8.552 -0.3587 -0.2313  0.9001
  125OSM   H17G13411   2.325   0.978   8.488 -0.2650 -0.1889  1.8510
  125OSM   C18F13412   2.504   0.849   8.475 -0.3100 -0.1647 -0.1629
  125OSM   H18F13413   2.540   0.937   8.417 -0.2962  0.9358  1.4568
  125OSM   H18G13414   2.533   0.757   8.420  1.6172  0.4255 -0.2027
  125OSM   H18H13415   2.547   0.859   8.576 -0.5177  2.9830 -0.2678
  126OSM      N13416   4.873   6.038   6.263 -0.0161  0.4415 -0.3623
  126OSM    C1513417   4.756   6.079   6.181  0.2767 -0.2912 -0.0871
  126OSM   H15A13418   4.726   6.180   6.208  1.3302 -0.4911  2.0962
  126OSM   H15B13419   4.670   6.017   6.198  0.9966 -1.5333 -0.8334
  126OSM   H15C13420   4.780   6.074   6.076 -2.0570  0.6970 -0.7236
  126OSM    C1413421   4.882   5.888   6.258 -0.2713  0.5175 -0.3185
  126OSM   H14A13422   4.787   5.837   6.266 -0.7775  1.5850  0.7243
  126OSM   H14B13423   4.944   5.866   6.343 -0.0096  0.2889 -0.5679
  126OSM   H14C13424   4.935   5.852   6.171 -0.5450 -0.4997 -0.0841
  126OSM    C1313425   4.992   6.102   6.203 -0.3599  0.3799 -0.3530
  126OSM   H13A13426   5.008   6.079   6.099 -2.0374  0.1719 -0.5922
  126OSM   H13B13427   5.084   6.070   6.251 -0.5597  0.5078  0.1200
  126OSM   H13C13428   4.997   6.210   6.204 -1.2551  0.4380  0.8357
  126OSM    C1213429   4.851   6.095   6.402 -0.7363 -0.2131  0.2980
  126OSM   H12A13430   4.776   6.030   6.444  0.2023 -2.8440 -1.7845
  126OSM   H12B13431   4.822   6.199   6.408  0.8209  0.2317  0.5650
  126OSM    C1113432   4.972   6.090   6.498  0.0617  0.0066 -0.1598
  126OSM   H11A13433   4.947   6.134   6.596 -3.4029  1.4807 -1.5360
  126OSM   H11B13434   5.052   6.154   6.457 -0.7373  1.3367  0.3036
  126OSM      P13435   5.150   5.891   6.497  0.3500  0.2299  0.0589
  126OSM    O1313436   5.117   5.754   6.444  1.3170 -0.9020 -0.4946
  126OSM    O1413437   5.235   5.982   6.414  0.2702  0.0473 -0.2462
  126OSM    O1113438   5.217   5.876   6.642 -0.2294 -0.3944 -0.1606
  126OSM    O1213439   5.011   5.954   6.523  0.2425 -0.2288 -0.1524
  126OSM    C1S13440   5.151   5.930   6.761 -0.0358 -0.7531 -0.5947
  126OSM    H1S13441   5.059   5.873   6.785 -0.3216 -0.8382 -1.8234
  126OSM    H1T13442   5.116   6.034   6.744 -0.6472 -0.7356  0.6819
  126OSM     NF13443   5.165   5.930   7.016 -0.2429 -0.2556 -0.4629
  126OSM    HNF13444   5.193   6.001   7.080 -0.0240  0.3990 -1.2520
  126OSM    C2S13445   5.244   5.929   6.891 -0.0577 -0.4896  0.2179
  126OSM    H2S13446   5.297   5.832   6.880 -2.2811 -1.6620 -1.0313
  126OSM    C3S13447   5.351   6.041   6.874  0.1948  0.0810  0.7257
  126OSM    H3S13448   5.303   6.138   6.897 -0.7567 -0.2478  0.1609
  126OSM     O313449   5.413   6.045   6.747 -0.1855 -0.0861 -0.7744
  126OSM    HO313450   5.366   5.986   6.688 -2.0750  0.1898  0.3743
  126OSM    C4S13451   5.458   6.016   6.982  0.7420  0.1965  0.1100
  126OSM    H4S13452   5.429   6.039   7.086  2.2707  1.3069  0.3116
  126OSM    C5S13453   5.587   5.973   6.962 -0.0728 -0.0776  0.8501
  126OSM    H5S13454   5.630   5.952   6.863  3.7203  1.1599  2.0453
  126OSM    C6S13455   5.686   5.933   7.070  0.1985 -0.1135 -0.4768
  126OSM    H6S13456   5.738   5.842   7.033  2.0850  1.8856 -3.1515
  126OSM    H6T13457   5.645   5.916   7.172  0.7708  0.9228 -0.0622
  126OSM    C7S13458   5.803   6.034   7.090  0.7407 -0.2874 -0.5511
  126OSM    H7S13459   5.772   6.109   7.165  1.1327 -1.5805  0.9672
  126OSM    H7T13460   5.831   6.087   6.996  2.6568 -0.0573  0.1069
  126OSM    C8S13461   5.930   5.964   7.154  0.8173  0.2549 -0.3081
  126OSM    H8S13462   6.008   6.040   7.179 -1.7662  3.2239 -0.6385
  126OSM    H8T13463   5.969   5.881   7.091  1.8836 -0.5955  1.3993
  126OSM    C9S13464   5.895   5.892   7.290  0.2129 -0.0662  0.3596
  126OSM    H9S13465   5.842   5.799   7.263  1.2800 -0.1577 -1.6373
  126OSM    H9T13466   5.838   5.954   7.362 -0.6879 -0.8455  0.3326
  126OSM   C10S13467   6.033   5.853   7.357  0.7991  0.0299 -0.6924
  126OSM   H10S13468   6.083   5.951   7.374  0.6410  0.0328 -0.2202
  126OSM   H10T13469   6.079   5.789   7.279 -1.5446 -0.2502 -1.9244
  126OSM   C11S13470   6.016   5.771   7.488  0.2602 -0.3691  0.8938
  126OSM   H11S13471   6.102   5.701   7.498  0.2489 -0.4757  0.2805
  126OSM   H11T13472   5.924   5.709   7.488 -1.5567  2.1098  3.1839
  126OSM   C12S13473   6.012   5.850   7.617 -0.6511 -0.2323  0.6996
  126OSM   H12S13474   5.916   5.906   7.619 -0.4890  0.0883  0.0858
  126OSM   H12T13475   6.097   5.921   7.602 -1.0600  0.0930 -0.1551
  126OSM   C13S13476   6.041   5.771   7.744  0.5962  0.5894 -0.1825
  126OSM   H13S13477   6.136   5.717   7.724 -0.6261 -1.3489 -1.0538
  126OSM   H13T13478   5.961   5.697   7.766 -1.8845  3.8460  2.9450
  126OSM   C14S13479   6.073   5.868   7.867 -0.6357 -0.1318  0.1043
  126OSM   H14S13480   5.990   5.942   7.874  0.2569  0.7681  1.6008
  126OSM   H14T13481   6.165   5.929   7.850 -0.8158  0.0677 -0.1648
  126OSM   C15S13482   6.098   5.787   8.002  0.0635  0.5308  0.7169
  126OSM   H15S13483   6.166   5.702   7.979 -0.6068  0.0664  0.4214
  126OSM   H15T13484   5.997   5.746   8.024 -0.1399  1.8037  2.4097
  126OSM   C16S13485   6.152   5.868   8.124  0.0887  0.1050 -0.7248
  126OSM   H16S13486   6.094   5.962   8.120 -0.7016 -0.2541  1.0798
  126OSM   H16T13487   6.261   5.887   8.112  0.0119 -0.7821 -3.6963
  126OSM   C17S13488   6.131   5.784   8.255  0.1110 -0.4330  0.1417
  126OSM   H17S13489   6.199   5.815   8.337  0.8845  2.2746 -1.3803
  126OSM   H17T13490   6.169   5.682   8.237 -1.1364 -1.4880  2.8828
  126OSM   C18S13491   5.977   5.793   8.304  0.4662 -0.1874  0.7475
  126OSM   H18S13492   5.961   5.725   8.390  0.7545 -1.5753 -0.2549
  126OSM   H18T13493   5.909   5.772   8.219  2.1021  0.2231 -0.7371
  126OSM   H18U13494   5.969   5.899   8.337  1.2075  0.7621 -1.8931
  126OSM    C1F13495   5.089   5.830   7.060 -0.4618 -0.4339  0.1000
  126OSM     OF13496   5.068   5.735   6.986 -0.4193  0.5117 -0.1341
  126OSM    C2F13497   5.041   5.833   7.200  0.4716  0.9315  0.4542
  126OSM    H2F13498   5.000   5.933   7.222  1.0216  0.5173  3.8564
  126OSM    H2G13499   5.131   5.814   7.262  0.1583  0.7521  0.8600
  126OSM    C3F13500   4.926   5.732   7.223 -0.3727 -0.6782  0.2275
  126OSM    H3F13501   4.966   5.631   7.201  0.0746 -0.0593 -2.0662
  126OSM    H3G13502   4.838   5.761   7.161  1.0716 -2.5249 -2.9517
  126OSM    C4F13503   4.884   5.721   7.374 -0.5932  0.2930  0.0111
  126OSM    H4F13504   4.805   5.643   7.386 -0.6405  0.0345 -1.7723
  126OSM    H4G13505   4.833   5.813   7.407 -0.4992  1.1542 -2.1206
  126OSM    C5F13506   5.003   5.680   7.472  0.2179 -0.6784  0.6233
  126OSM    H5F13507   5.084   5.757   7.469  0.6294 -1.0851 -2.5497
  126OSM    H5G13508   5.053   5.589   7.433  2.1213  0.7655 -0.5601
  126OSM    C6F13509   4.952   5.659   7.615  0.3754 -0.2157  0.7280
  126OSM    H6F13510   4.872   5.581   7.615  2.1077 -2.0759  0.3368
  126OSM    H6G13511   4.910   5.755   7.652  0.5933 -0.2727  1.1291
  126OSM    C7F13512   5.054   5.611   7.728 -0.5089  0.3111  0.1467
  126OSM    H7F13513   5.146   5.673   7.729  0.0621 -0.5149 -0.4658
  126OSM    H7G13514   5.068   5.504   7.702 -0.7820 -0.1836  1.9290
  126OSM    C8F13515   4.992   5.628   7.869 -0.0356  0.5308 -0.4878
  126OSM    H8F13516   4.891   5.582   7.874 -0.0005  0.5195  0.1029
  126OSM    H8G13517   4.979   5.737   7.889 -0.2924  0.7022 -1.5059
  126OSM    C9F13518   5.084   5.556   7.965  0.5443 -0.4402  0.4262
  126OSM    H9F13519   5.080   5.446   7.962 -1.1896 -0.3891 -1.6786
  126OSM   C10F13520   5.170   5.613   8.051 -0.3293  0.3513 -0.4050
  126OSM   H10F13521   5.238   5.548   8.108  0.0377  1.7050  0.7582
  126OSM   C11F13522   5.189   5.761   8.075  0.1077 -0.8666 -0.3125
  126OSM   H11F13523   5.121   5.810   8.148  0.3202 -1.4896  0.3109
  126OSM   H11G13524   5.168   5.815   7.980  1.6356 -2.4540 -1.6147
  126OSM   C12F13525   5.342   5.780   8.106 -0.2804  0.0573 -0.6374
  126OSM   H12F13526   5.391   5.758   8.008 -1.5792 -2.0620 -0.8665
  126OSM   H12G13527   5.385   5.706   8.177  3.2048 -1.1369 -3.6614
  126OSM   C13F13528   5.385   5.923   8.142 -0.1829  0.4523 -0.8866
  126OSM   H13F13529   5.319   5.962   8.222  1.6951 -1.0537  1.5638
  126OSM   H13G13530   5.390   5.985   8.050 -0.4342  1.3587 -0.3006
  126OSM   C14F13531   5.518   5.921   8.217 -0.8210 -0.5202  0.0683
  126OSM   H14F13532   5.598   5.866   8.162 -0.8476  1.2869 -1.8964
  126OSM   H14G13533   5.504   5.868   8.313  0.3705  1.3642  1.3424
  126OSM   C15F13534   5.574   6.063   8.240 -0.2713  0.5072  0.2334
  126OSM   H15F13535   5.493   6.123   8.288  0.6799  2.0950 -0.0609
  126OSM   H15G13536   5.604   6.113   8.145  1.3821  1.9589  1.4402
  126OSM   C16F13537   5.691   6.067   8.335  0.5968  1.1254 -0.7896
  126OSM   H16F13538   5.772   6.008   8.288 -0.6835 -1.3305 -0.0951
  126OSM   H16G13539   5.649   6.027   8.429 -0.6600  2.0361 -0.9354
  126OSM   C17F13540   5.750   6.201   8.360 -0.3032 -0.3908  0.1058
  126OSM   H17F13541   5.671   6.259   8.412  0.6716  2.2975 -1.2317
  126OSM   H17G13542   5.769   6.267   8.273 -3.7714  1.8278  0.8111
  126OSM   C18F13543   5.871   6.192   8.458  0.1571  0.1071  0.2996
  126OSM   H18F13544   5.956   6.158   8.394 -0.3229 -0.8731  0.1593
  126OSM   H18G13545   5.849   6.109   8.528 -0.2315 -2.2519 -2.4105
  126OSM   H18H13546   5.903   6.293   8.493 -0.0114  0.8130 -1.4536
  127OSM      N13547   0.137   1.209   6.072 -0.7199 -0.1840  0.2192
  127OSM    C1513548   0.007   1.150   6.032  0.1705 -0.1499  0.0440
  127OSM   H15A13549  -0.056   1.227   5.990 -0.7276 -1.3227 -0.8303
  127OSM   H15B13550  -0.039   1.104   6.118 -0.8068  2.8069  1.2408
  127OSM   H15C13551   0.022   1.073   5.958  0.2971 -0.2832  0.2077
  127OSM    C1413552   0.251   1.105   6.080 -0.2495 -0.4445  0.0272
  127OSM   H14A13553   0.287   1.081   5.981  0.5479  1.5721 -0.2192
  127OSM   H14B13554   0.219   1.013   6.125 -0.5458 -1.9854 -3.0726
  127OSM   H14C13555   0.337   1.149   6.129  0.1313  0.0048 -1.0168
  127OSM    C1313556   0.180   1.313   5.973  0.3433 -0.7925 -1.0381
  127OSM   H13A13557   0.273   1.355   6.009 -0.0420  0.1972 -1.1864
  127OSM   H13B13558   0.108   1.393   5.966  0.6657 -0.0624  2.2949
  127OSM   H13C13559   0.192   1.281   5.871 -1.2499 -1.0931 -1.1569
  127OSM    C1213560   0.115   1.274   6.206 -0.6135  1.0142  0.2430
  127OSM   H12A13561   0.034   1.346   6.197 -2.5729 -0.6626  2.8446
  127OSM   H12B13562   0.209   1.322   6.230 -1.3153  2.3754  0.3815
  127OSM    C1113563   0.080   1.183   6.324  0.0497 -0.2275 -0.1200
  127OSM   H11A13564   0.135   1.212   6.415  0.2078  1.6272 -0.7705
  127OSM   H11B13565   0.106   1.077   6.303 -0.9006 -0.3269 -0.9010
  127OSM      P13566  -0.135   1.305   6.422 -0.3319 -0.0645  0.1913
  127OSM    O1313567  -0.046   1.427   6.434 -0.5604  0.3822 -0.4736
  127OSM    O1413568  -0.267   1.330   6.366 -0.1383 -0.1644 -0.1968
  127OSM    O1113569  -0.141   1.245   6.566  0.4459  0.0967  0.3103
  127OSM    O1213570  -0.065   1.186   6.340  0.5772 -0.4287  0.2532
  127OSM    C1S13571  -0.212   1.116   6.582 -0.3224  0.3932  1.3534
  127OSM    H1S13572  -0.150   1.032   6.543  0.8552  1.9026 -0.1779
  127OSM    H1T13573  -0.310   1.124   6.531 -1.7074 -2.2143  3.3864
  127OSM     NF13574  -0.263   0.952   6.769 -0.1747 -0.0349  0.0101
  127OSM    HNF13575  -0.351   0.917   6.802 -0.4721  2.4325  2.0744
  127OSM    C2S13576  -0.244   1.091   6.735 -0.3653 -0.2468 -0.5504
  127OSM    H2S13577  -0.156   1.129   6.792  0.3865 -1.2165 -1.0374
  127OSM    C3S13578  -0.366   1.174   6.772 -0.5495 -0.2742 -0.1640
  127OSM    H3S13579  -0.456   1.120   6.733 -0.8657  0.9151 -1.1226
  127OSM     O313580  -0.377   1.302   6.710 -0.0823  0.0877  0.1432
  127OSM    HO313581  -0.300   1.307   6.654 -0.4705 -2.3395 -0.7461
  127OSM    C4S13582  -0.358   1.189   6.923 -0.0998  0.2829  0.3087
  127OSM    H4S13583  -0.410   1.104   6.970 -1.1109  1.0644  0.6501
  127OSM    C5S13584  -0.316   1.293   7.003  0.6935  0.5282 -0.2270
  127OSM    H5S13585  -0.295   1.386   6.948  1.8899  0.7939  0.6272
  127OSM    C6S13586  -0.308   1.296   7.153  0.3641 -0.0525  0.1942
  127OSM    H6S13587  -0.369   1.378   7.197  2.7375  1.0780  1.6623
  127OSM    H6T13588  -0.205   1.328   7.182  0.2112 -0.5009  1.2968
  127OSM    C7S13589  -0.330   1.170   7.241 -0.3086 -0.5458 -0.2594
  127OSM    H7S13590  -0.252   1.092   7.228  1.5287  1.0187  0.8470
  127OSM    H7T13591  -0.430   1.126   7.217 -1.3136  0.8136  1.2092
  127OSM    C8S13592  -0.343   1.208   7.390  0.0026 -0.0400 -0.1977
  127OSM    H8S13593  -0.427   1.279   7.404  0.0826 -0.0074  0.1137
  127OSM    H8T13594  -0.250   1.247   7.436 -0.9676  0.8487  1.0695
  127OSM    C9S13595  -0.383   1.094   7.482 -0.6612 -0.0093  0.2643
  127OSM    H9S13596  -0.322   1.007   7.451 -1.6492 -0.1289 -1.5151
  127OSM    H9T13597  -0.490   1.088   7.454 -0.5831 -0.7334  0.1231
  127OSM   C10S13598  -0.371   1.138   7.631 -0.7006  0.0237  0.1717
  127OSM   H10S13599  -0.434   1.223   7.667 -1.9507 -1.6301  2.0590
  127OSM   H10T13600  -0.264   1.160   7.650 -0.2764 -1.3359 -0.5540
  127OSM   C11S13601  -0.401   1.028   7.734  0.1745 -0.6415  0.6533
  127OSM   H11S13602  -0.412   1.071   7.836 -0.1894  1.7171 -0.3088
  127OSM   H11T13603  -0.311   0.963   7.742  1.9114  1.6203  0.5959
  127OSM   C12S13604  -0.529   0.949   7.699  0.2012 -0.8621 -0.2079
  127OSM   H12S13605  -0.512   0.909   7.596  2.5713 -1.2170  0.2612
  127OSM   H12T13606  -0.623   1.008   7.695 -1.0111 -2.7224 -0.8730
  127OSM   C13S13607  -0.550   0.833   7.803 -0.1101  0.0981  0.3607
  127OSM   H13S13608  -0.451   0.784   7.818 -0.9923 -2.0062 -0.3391
  127OSM   H13T13609  -0.610   0.748   7.766  0.5473 -0.0088 -0.4965
  127OSM   C14S13610  -0.591   0.875   7.942 -0.0169  0.1480  0.1522
  127OSM   H14S13611  -0.691   0.921   7.936 -0.1837 -0.3067 -0.8055
  127OSM   H14T13612  -0.521   0.956   7.972 -0.5994  0.6671  0.1062
  127OSM   C15S13613  -0.588   0.772   8.056 -0.5038  0.7715  0.5472
  127OSM   H15S13614  -0.504   0.699   8.060 -0.0682  1.3283  2.8260
  127OSM   H15T13615  -0.684   0.715   8.054 -0.3949  0.5939  0.0409
  127OSM   C16S13616  -0.584   0.842   8.194 -0.0669  0.4998 -0.1970
  127OSM   H16S13617  -0.680   0.899   8.199 -0.3457  0.2616 -2.0525
  127OSM   H16T13618  -0.503   0.916   8.210 -1.9692  2.2937  1.9431
  127OSM   C17S13619  -0.558   0.742   8.305  0.3699 -0.1204 -0.1129
  127OSM   H17S13620  -0.627   0.657   8.289  0.3056  0.1890 -1.6324
  127OSM   H17T13621  -0.578   0.782   8.407 -2.5511 -1.2236 -0.1514
  127OSM   C18S13622  -0.416   0.679   8.318  0.3914 -0.2801  0.0314
  127OSM   H18S13623  -0.370   0.653   8.221  0.7874  0.1970  0.0872
  127OSM   H18T13624  -0.427   0.586   8.378 -1.2924 -1.5218 -2.0483
  127OSM   H18U13625  -0.353   0.753   8.373  3.2733 -2.0698 -0.6996
  127OSM    C1F13626  -0.168   0.857   6.756  0.0943  0.3795  0.7402
  127OSM     OF13627  -0.055   0.873   6.714  0.0735 -0.5400  0.8485
  127OSM    C2F13628  -0.204   0.721   6.803  1.1826  0.4202 -0.7755
  127OSM    H2F13629  -0.229   0.646   6.726 -1.4893 -0.5604  0.9013
  127OSM    H2G13630  -0.303   0.732   6.852  0.8069 -0.9348 -1.2123
  127OSM    C3F13631  -0.090   0.663   6.896  0.4851  0.5624 -0.8137
  127OSM    H3F13632   0.000   0.649   6.833 -0.0378  0.5452 -1.5814
  127OSM    H3G13633  -0.110   0.565   6.944 -1.6443  1.5405  0.4578
  127OSM    C4F13634  -0.055   0.763   7.013 -0.3969 -0.2607  0.3685
  127OSM    H4F13635  -0.034   0.868   6.984  1.0140 -0.7598 -0.5394
  127OSM    H4G13636   0.044   0.726   7.049  1.4155  0.4303 -3.3847
  127OSM    C5F13637  -0.164   0.755   7.124  0.1212  0.1641  0.5938
  127OSM    H5F13638  -0.208   0.653   7.128 -0.6809  0.5368  1.6298
  127OSM    H5G13639  -0.243   0.828   7.095 -1.2241 -0.3580  2.7696
  127OSM    C6F13640  -0.101   0.782   7.261 -0.4674 -0.6546 -0.0032
  127OSM    H6F13641  -0.057   0.884   7.269 -1.1426  0.0557 -3.4153
  127OSM    H6G13642  -0.019   0.707   7.269 -1.3909 -2.3214 -3.6553
  127OSM    C7F13643  -0.194   0.752   7.382 -0.3631 -0.3549  0.1516
  127OSM    H7F13644  -0.218   0.644   7.374 -0.0152 -0.2840 -4.6246
  127OSM    H7G13645  -0.292   0.803   7.368 -0.6789 -0.8296  0.5895
  127OSM    C8F13646  -0.136   0.787   7.523  0.5652  0.5908 -0.2198
  127OSM    H8F13647  -0.222   0.776   7.593  0.6433  0.0631 -0.2017
  127OSM    H8G13648  -0.123   0.897   7.517  1.7663  0.4239 -0.9387
  127OSM    C9F13649  -0.011   0.726   7.583  0.0289  0.9310 -0.1732
  127OSM    H9F13650   0.066   0.708   7.506 -0.1595 -1.8745  0.1858
  127OSM   C10F13651   0.004   0.706   7.719  0.1173 -0.6071  0.0030
  127OSM   H10F13652   0.098   0.665   7.761  0.4986  0.2809  0.0296
  127OSM   C11F13653  -0.100   0.737   7.830 -0.1691  0.7485  0.3509
  127OSM   H11F13654  -0.140   0.638   7.858  0.3159  0.6086  0.5562
  127OSM   H11G13655  -0.185   0.799   7.793  1.1186  1.9416 -0.7561
  127OSM   C12F13656  -0.040   0.800   7.946  0.5307 -0.0219  0.1543
  127OSM   H12F13657  -0.095   0.893   7.971 -0.4454 -1.1583  2.6923
  127OSM   H12G13658   0.064   0.838   7.949 -0.6843  3.6109  1.9384
  127OSM   C13F13659  -0.053   0.726   8.079  0.4482  0.4449  0.0513
  127OSM   H13F13660   0.016   0.639   8.075 -0.8025 -0.5133 -2.9067
  127OSM   H13G13661  -0.153   0.679   8.088 -0.9495  3.4121  1.4239
  127OSM   C14F13662  -0.060   0.804   8.204 -0.7979 -0.3973 -0.1852
  127OSM   H14F13663  -0.070   0.741   8.295  0.6241  0.0859  0.3276
  127OSM   H14G13664  -0.151   0.868   8.208  0.0465  0.7711  1.2354
  127OSM   C15F13665   0.056   0.897   8.231 -0.0889  0.3914 -0.4601
  127OSM   H15F13666   0.080   0.960   8.142  1.2929 -1.6359 -1.5988
  127OSM   H15G13667   0.147   0.834   8.227 -0.2307  0.0717  0.9168
  127OSM   C16F13668   0.047   0.971   8.364 -0.1516  0.2872 -0.3595
  127OSM   H16F13669  -0.046   1.032   8.372 -1.9655 -2.1798 -1.3813
  127OSM   H16G13670   0.137   1.036   8.362  0.0018  0.0570 -1.1480
  127OSM   C17F13671   0.046   0.883   8.500  0.8607  0.0614  0.6532
  127OSM   H17F13672   0.119   0.799   8.485  0.5318  0.2564 -2.8894
  127OSM   H17G13673  -0.046   0.821   8.504 -0.9061  2.4487 -0.6050
  127OSM   C18F13674   0.061   0.948   8.632  0.6944 -0.1219  0.4862
  127OSM   H18F13675   0.131   1.034   8.627  1.0837 -0.5042 -1.9635
  127OSM   H18G13676   0.093   0.878   8.713  1.2000 -0.0335  0.3689
  127OSM   H18H13677  -0.036   0.991   8.664  0.3546  0.0858 -0.7844
  128OSM      N13678   2.692   1.842   5.877 -0.0299  0.5522 -0.4214
  128OSM    C1513679   2.766   1.707   5.868  0.4978  0.5681 -0.5622
  128OSM   H15A13680   2.789   1.689   5.764 -0.5983  0.7872 -0.8504
  128OSM   H15B13681   2.724   1.620   5.917 -0.8144  0.5801 -1.6036
  128OSM   H15C13682   2.861   1.727   5.915  0.1049 -1.1826  1.0965
  128OSM    C1413683   2.782   1.940   5.809  0.1741 -0.3025  0.2088
  128OSM   H14A13684   2.878   1.934   5.858  1.3319  0.0887 -1.9222
  128OSM   H14B13685   2.741   2.040   5.813 -2.1227 -1.1166 -0.8491
  128OSM   H14C13686   2.795   1.914   5.705 -0.0163  2.5353 -0.5907
  128OSM    C1313687   2.557   1.827   5.820  0.7014 -0.0327  0.5023
  128OSM   H13A13688   2.486   1.769   5.877  0.1158  2.1962  2.1420
  128OSM   H13B13689   2.564   1.786   5.720 -0.7719  2.5776 -0.7901
  128OSM   H13C13690   2.514   1.924   5.801  3.5815  0.9758 -1.6903
  128OSM    C1213691   2.677   1.868   6.028  0.1585  0.5493 -0.1577
  128OSM   H12A13692   2.654   1.971   6.051 -0.4756  0.9182 -2.1786
  128OSM   H12B13693   2.775   1.867   6.074 -0.7796 -2.1382  2.0191
  128OSM    C1113694   2.574   1.782   6.106 -0.3154  0.2360 -0.3936
  128OSM   H11A13695   2.595   1.822   6.208  0.3224  0.7058 -0.7085
  128OSM   H11B13696   2.605   1.675   6.104  2.5552  0.9320  0.8132
  128OSM      P13697   2.360   1.932   6.113 -0.2005  0.2213 -0.3874
  128OSM    O1313698   2.434   2.056   6.082 -0.0358 -1.0137 -0.1308
  128OSM    O1413699   2.229   1.923   6.052  0.7497 -0.3898  0.0084
  128OSM    O1113700   2.339   1.918   6.272  0.2990 -0.3859  0.3686
  128OSM    O1213701   2.435   1.799   6.075 -0.1157 -0.1512 -0.1353
  128OSM    C1S13702   2.335   1.788   6.330 -0.0178 -0.2703 -0.9792
  128OSM    H1S13703   2.443   1.764   6.342  0.4208  1.7626 -0.5521
  128OSM    H1T13704   2.281   1.714   6.267  0.7535  0.1583 -2.1846
  128OSM     NF13705   2.318   1.681   6.548 -0.3415  0.3641  0.4770
  128OSM    HNF13706   2.282   1.594   6.516  0.8427  0.1186 -0.2615
  128OSM    C2S13707   2.271   1.789   6.469  0.0160 -0.5368  0.1215
  128OSM    H2S13708   2.298   1.888   6.513 -0.7368 -1.1833  2.1535
  128OSM    C3S13709   2.120   1.791   6.455  0.2196  0.2797  0.4748
  128OSM    H3S13710   2.086   1.692   6.418  0.4589  0.7449 -1.0677
  128OSM     O313711   2.079   1.883   6.356  0.0688 -0.3633 -0.2584
  128OSM    HO313712   2.161   1.890   6.306  1.0288  0.0594  1.3413
  128OSM    C4S13713   2.059   1.817   6.593  0.4598  0.1931 -0.2851
  128OSM    H4S13714   2.029   1.726   6.649 -2.5438 -0.0092 -2.0050
  128OSM    C5S13715   2.040   1.935   6.655 -0.3744  0.3267 -0.3728
  128OSM    H5S13716   2.074   2.031   6.615  0.2442  0.4104  0.3330
  128OSM    C6S13717   1.991   1.945   6.796  0.0084 -0.0610  0.0721
  128OSM    H6S13718   1.978   1.847   6.848 -0.0881 -0.9037 -1.5003
  128OSM    H6T13719   1.901   2.010   6.800 -0.1144 -0.1544 -1.0393
  128OSM    C7S13720   2.096   2.011   6.894 -0.3029 -0.0568  1.0881
  128OSM    H7S13721   2.106   2.116   6.859  2.6857  0.0048  1.8711
  128OSM    H7T13722   2.194   1.964   6.870  0.5545  1.5300  1.3734
  128OSM    C8S13723   2.063   2.010   7.036  0.2285 -0.2105  0.3668
  128OSM    H8S13724   2.080   1.908   7.076  0.4996 -0.7295 -1.0276
  128OSM    H8T13725   1.962   2.054   7.047 -0.2800 -1.5810  1.4869
  128OSM    C9S13726   2.165   2.105   7.111  0.4820 -0.2171  0.0009
  128OSM    H9S13727   2.182   2.199   7.054  2.8295  1.3263  2.9731
  128OSM    H9T13728   2.260   2.050   7.096 -0.1897 -1.1714 -0.9739
  128OSM   C10S13729   2.146   2.123   7.261 -0.2199  0.4375  0.2222
  128OSM   H10S13730   2.041   2.140   7.292 -0.1480 -0.5494  1.0682
  128OSM   H10T13731   2.202   2.214   7.291 -0.6686  1.2423 -1.2859
  128OSM   C11S13732   2.181   1.995   7.334 -0.5420  0.0759 -0.6035
  128OSM   H11S13733   2.285   1.984   7.297 -0.8297 -2.6607 -0.8306
  128OSM   H11T13734   2.130   1.905   7.293 -1.1014 -0.8231  1.8894
  128OSM   C12S13735   2.189   2.017   7.481  0.7379 -0.3177  0.1844
  128OSM   H12S13736   2.246   2.110   7.501  2.1999 -1.3284  0.8719
  128OSM   H12T13737   2.243   1.935   7.533  0.0492 -1.8258 -1.3615
  128OSM   C13S13738   2.058   2.026   7.552  0.2399  0.1225  0.6455
  128OSM   H13S13739   2.017   1.923   7.550 -0.1065  0.2475  1.1126
  128OSM   H13T13740   1.988   2.088   7.491  0.3042 -1.8519 -1.5727
  128OSM   C14S13741   2.060   2.069   7.697  0.5709  0.4374 -0.0462
  128OSM   H14S13742   1.957   2.064   7.738  0.4493 -0.1214 -0.4086
  128OSM   H14T13743   2.084   2.177   7.705  0.0815  0.4935  0.8221
  128OSM   C15S13744   2.151   1.986   7.788  0.0643  0.7045  0.2581
  128OSM   H15S13745   2.256   2.003   7.755  2.0158 -3.6298  3.2595
  128OSM   H15T13746   2.123   1.880   7.768  0.0956  1.0997 -2.1240
  128OSM   C16S13747   2.150   2.026   7.932  0.2572 -0.4347  0.1128
  128OSM   H16S13748   2.154   2.137   7.938 -0.9278 -0.2711 -1.4254
  128OSM   H16T13749   2.233   1.976   7.986  1.0688  1.4834  0.7297
  128OSM   C17S13750   2.013   2.007   8.003 -0.2860  0.2099 -0.4309
  128OSM   H17S13751   1.935   2.075   7.965  1.6630  2.3542 -0.8242
  128OSM   H17T13752   2.026   2.030   8.111 -4.5012 -2.2873  0.8474
  128OSM   C18S13753   1.955   1.866   7.998  0.1493  0.2751  0.3860
  128OSM   H18S13754   1.880   1.862   8.080 -0.5746 -1.8566 -0.3177
  128OSM   H18T13755   2.038   1.793   8.002  0.0479  0.1968  1.3911
  128OSM   H18U13756   1.896   1.847   7.905 -2.0747  1.9199  1.3690
  128OSM    C1F13757   2.431   1.684   6.626 -0.4782 -0.2001  0.0924
  128OSM     OF13758   2.511   1.778   6.623 -0.1518 -0.3356 -0.0316
  128OSM    C2F13759   2.460   1.565   6.716  0.4946 -0.2608 -0.4450
  128OSM    H2F13760   2.570   1.555   6.716  0.3975 -1.6392 -0.5490
  128OSM    H2G13761   2.410   1.469   6.688 -1.5170  0.3200  0.9104
  128OSM    C3F13762   2.406   1.613   6.853  0.1976 -0.3172 -0.3880
  128OSM    H3F13763   2.418   1.527   6.923 -1.3547 -0.4492 -0.2443
  128OSM    H3G13764   2.300   1.644   6.842 -1.3134 -4.3547  0.7584
  128OSM    C4F13765   2.496   1.718   6.928 -0.0024  0.1836 -0.0263
  128OSM    H4F13766   2.502   1.805   6.859 -3.2373 -0.2234 -0.9560
  128OSM    H4G13767   2.601   1.687   6.948  0.0016  0.7824  0.9271
  128OSM    C5F13768   2.426   1.768   7.061  0.1194 -1.0590 -0.1347
  128OSM    H5F13769   2.328   1.817   7.041 -1.3503 -3.5709  0.4553
  128OSM    H5G13770   2.489   1.846   7.110 -2.7924  2.2030 -1.1861
  128OSM    C6F13771   2.393   1.663   7.166  0.3093 -0.1183 -0.0711
  128OSM    H6F13772   2.322   1.584   7.134 -1.3178  0.9831  0.7171
  128OSM    H6G13773   2.338   1.717   7.245  0.5646  2.3957 -1.5126
  128OSM    C7F13774   2.521   1.606   7.233  0.5903  0.3937  0.8499
  128OSM    H7F13775   2.589   1.580   7.150 -0.1414  0.3846  0.2387
  128OSM    H7G13776   2.489   1.512   7.284 -0.1861  0.2329  0.0943
  128OSM    C8F13777   2.579   1.706   7.334 -0.4351  0.1583  0.3142
  128OSM    H8F13778   2.611   1.794   7.275 -3.2953  0.8288 -0.3733
  128OSM    H8G13779   2.676   1.661   7.364  1.7776  3.4055 -1.4375
  128OSM    C9F13780   2.493   1.747   7.455 -0.1901 -0.1148  0.4739
  128OSM    H9F13781   2.399   1.798   7.427 -0.5345 -0.3083  1.2380
  128OSM   C10F13782   2.528   1.728   7.585 -0.3880 -0.4302  0.0671
  128OSM   H10F13783   2.456   1.754   7.664 -1.1454 -2.0523 -0.0431
  128OSM   C11F13784   2.651   1.662   7.654 -0.4172  0.0244 -0.7056
  128OSM   H11F13785   2.710   1.607   7.578  0.6372 -1.5428  1.1635
  128OSM   H11G13786   2.616   1.585   7.726 -1.4555 -0.4232 -1.6541
  128OSM   C12F13787   2.743   1.769   7.727  0.4173  0.9879  0.6724
  128OSM   H12F13788   2.789   1.837   7.652  3.3292 -0.1415  1.2661
  128OSM   H12G13789   2.832   1.709   7.756  0.4405  0.0683 -1.1390
  128OSM   C13F13790   2.691   1.834   7.858  0.4436 -0.6191  0.4990
  128OSM   H13F13791   2.665   1.738   7.908  1.1251 -2.4856 -2.4496
  128OSM   H13G13792   2.601   1.895   7.839  0.2330 -1.1956 -0.4121
  128OSM   C14F13793   2.791   1.900   7.943 -0.2530 -0.2095 -0.5826
  128OSM   H14F13794   2.729   1.926   8.032 -1.5357 -0.6156 -1.3244
  128OSM   H14G13795   2.822   1.999   7.904  0.5028 -0.4885 -0.7079
  128OSM   C15F13796   2.920   1.824   7.987 -0.5029 -0.2499  0.0578
  128OSM   H15F13797   2.987   1.806   7.901 -0.2379  1.9693 -0.2710
  128OSM   H15G13798   2.879   1.727   8.023 -0.0956 -0.6700 -0.6077
  128OSM   C16F13799   2.992   1.897   8.106 -0.4902  0.6445  0.2487
  128OSM   H16F13800   3.004   2.005   8.084  3.6386  0.1024 -1.0475
  128OSM   H16G13801   3.097   1.865   8.123 -0.4898  0.5290  0.0276
  128OSM   C17F13802   2.924   1.877   8.243  0.4747  0.1637 -0.1564
  128OSM   H17F13803   2.975   1.826   8.327 -0.2676 -1.8202 -0.8636
  128OSM   H17G13804   2.830   1.823   8.217  0.8270  0.4956 -2.2979
  128OSM   C18F13805   2.890   2.010   8.306 -0.3961  1.1804 -0.7200
  128OSM   H18F13806   2.851   2.010   8.410  0.1189  0.4605 -0.5247
  128OSM   H18G13807   2.841   2.084   8.239 -1.5220  0.3754 -0.8099
  128OSM   H18H13808   2.986   2.062   8.328  0.5023 -1.1772  1.5675
  129OSM      N13809   6.365   6.720   5.993 -0.0638  0.0097 -0.2490
  129OSM    C1513810   6.450   6.791   5.889 -0.7910 -0.1322  0.4622
  129OSM   H15A13811   6.454   6.730   5.800  2.4991 -1.6641  1.5026
  129OSM   H15B13812   6.554   6.800   5.915 -0.3919 -2.2086 -0.2179
  129OSM   H15C13813   6.398   6.884   5.869 -1.5285 -0.0734  2.4401
  129OSM    C1413814   6.250   6.664   5.920 -0.9649 -0.8999  1.6054
  129OSM   H14A13815   6.275   6.584   5.852 -2.9080 -0.3551  0.1649
  129OSM   H14B13816   6.182   6.727   5.864 -1.1063 -1.5808  0.9931
  129OSM   H14C13817   6.174   6.622   5.984 -2.0745 -0.4709  0.5994
  129OSM    C1313818   6.446   6.612   6.050  0.1969 -0.2329 -0.6331
  129OSM   H13A13819   6.397   6.560   6.131  2.8529 -0.9298  0.6477
  129OSM   H13B13820   6.544   6.646   6.081 -0.7903  1.6754  0.6117
  129OSM   H13C13821   6.457   6.530   5.981  0.5695 -1.0149  0.3230
  129OSM    C1213822   6.315   6.811   6.106 -0.1358 -0.1900  0.4281
  129OSM   H12A13823   6.246   6.757   6.169  1.3842 -0.7228  1.6928
  129OSM   H12B13824   6.266   6.894   6.057  0.6733  0.3300  0.4851
  129OSM    C1113825   6.425   6.872   6.198  0.0891 -0.4761  0.4246
  129OSM   H11A13826   6.496   6.792   6.227 -0.6605 -1.4720 -0.4230
  129OSM   H11B13827   6.387   6.910   6.296  0.4128  0.9377  0.0293
  129OSM      P13828   6.456   7.131   6.134  0.0821  0.2464 -0.0570
  129OSM    O1313829   6.561   7.203   6.062 -0.4646 -0.0661 -0.6164
  129OSM    O1413830   6.322   7.134   6.076 -0.5183 -0.1349  0.0073
  129OSM    O1113831   6.446   7.191   6.280  0.6744  0.3787 -0.4397
  129OSM    O1213832   6.498   6.982   6.141  0.2318 -0.1619 -0.2905
  129OSM    C1S13833   6.532   7.136   6.380 -0.2974 -0.3610 -0.1783
  129OSM    H1S13834   6.629   7.191   6.377  0.0009 -0.7126  1.8220
  129OSM    H1T13835   6.564   7.032   6.362  0.8528  0.2219 -1.7502
  129OSM     NF13836   6.569   7.097   6.623  0.3446  0.2781 -0.2745
  129OSM    HNF13837   6.535   7.011   6.661  0.6912  1.2133  2.2718
  129OSM    C2S13838   6.481   7.158   6.527 -0.3391  0.2609  0.7388
  129OSM    H2S13839   6.481   7.265   6.555  2.5612  0.2981  0.8585
  129OSM    C3S13840   6.338   7.107   6.540 -0.1709 -0.7627 -0.0556
  129OSM    H3S13841   6.326   7.001   6.511 -3.1528 -0.0323 -1.9291
  129OSM     O313842   6.242   7.160   6.452 -0.2238  0.1138  0.2179
  129OSM    HO313843   6.292   7.208   6.386 -0.7592 -0.4909 -0.6468
  129OSM    C4S13844   6.288   7.145   6.687  0.6804  0.0767 -0.0713
  129OSM    H4S13845   6.302   7.060   6.755 -0.4943 -0.9664 -1.0779
  129OSM    C5S13846   6.235   7.264   6.725  0.5244  0.4411  0.9479
  129OSM    H5S13847   6.215   7.351   6.661 -1.2346  0.2816  1.2355
  129OSM    C6S13848   6.185   7.294   6.868  0.2395 -0.5570 -0.5327
  129OSM    H6S13849   6.074   7.293   6.866  0.2183 -2.3888 -0.3399
  129OSM    H6T13850   6.223   7.395   6.896  0.4588 -0.8737  0.3520
  129OSM    C7S13851   6.238   7.210   6.989 -0.8420  0.6593  0.4871
  129OSM    H7S13852   6.222   7.100   6.975  0.3737  0.2933  1.7746
  129OSM    H7T13853   6.186   7.231   7.085  1.2561  1.1458  1.5753
  129OSM    C8S13854   6.393   7.227   6.998 -0.5534 -0.3636  0.0010
  129OSM    H8S13855   6.420   7.334   7.010  0.9176 -0.6071 -0.9197
  129OSM    H8T13856   6.444   7.201   6.903  0.6836  2.0800 -0.1040
  129OSM    C9S13857   6.457   7.145   7.111 -0.2750 -0.4000 -0.2591
  129OSM    H9S13858   6.565   7.171   7.105  0.1344 -1.6566  1.2250
  129OSM    H9T13859   6.438   7.038   7.091 -0.9529  0.0505 -2.2432
  129OSM   C10S13860   6.399   7.181   7.251 -0.2905 -0.7115  0.1318
  129OSM   H10S13861   6.304   7.130   7.276 -1.2466  1.2690  0.7250
  129OSM   H10T13862   6.383   7.289   7.234  0.6763 -0.7235 -0.9519
  129OSM   C11S13863   6.499   7.139   7.360  0.4165 -0.4961  0.8145
  129OSM   H11S13864   6.588   7.204   7.341 -1.5317  2.2607  0.5007
  129OSM   H11T13865   6.514   7.034   7.328  3.0447  0.9649 -3.5986
  129OSM   C12S13866   6.451   7.141   7.503 -0.9398 -0.0037  0.5106
  129OSM   H12S13867   6.547   7.129   7.557 -0.8915 -0.6792  0.2767
  129OSM   H12T13868   6.384   7.055   7.522 -1.3384  0.4653  1.2889
  129OSM   C13S13869   6.394   7.273   7.558 -0.4550 -0.2951 -0.7913
  129OSM   H13S13870   6.289   7.280   7.522 -0.3305  1.1455 -0.9406
  129OSM   H13T13871   6.445   7.364   7.521 -1.3960  2.0348  3.1387
  129OSM   C14S13872   6.395   7.278   7.713  0.5629  0.1221 -0.3151
  129OSM   H14S13873   6.334   7.368   7.738 -1.9392 -1.4156 -0.5554
  129OSM   H14T13874   6.493   7.292   7.764 -0.3328 -1.0294  1.8680
  129OSM   C15S13875   6.320   7.162   7.777 -0.3069  0.5306 -0.4185
  129OSM   H15S13876   6.396   7.081   7.779 -0.7971  0.0499 -0.9764
  129OSM   H15T13877   6.240   7.129   7.707  0.1436  0.7340 -1.0305
  129OSM   C16S13878   6.252   7.185   7.912 -0.0246  0.5274  0.3356
  129OSM   H16S13879   6.170   7.255   7.886 -1.9947 -1.5874  0.5198
  129OSM   H16T13880   6.331   7.227   7.977  0.0745 -0.0008  0.5602
  129OSM   C17S13881   6.192   7.061   7.987  0.0946 -0.5071  0.2631
  129OSM   H17S13882   6.284   7.005   8.012 -0.0132  0.0507  2.0894
  129OSM   H17T13883   6.132   7.004   7.914 -1.2806  2.1361 -0.8167
  129OSM   C18S13884   6.116   7.103   8.110  0.2162  0.1131 -0.0234
  129OSM   H18S13885   6.085   7.018   8.176 -0.6759  0.8457  0.5326
  129OSM   H18T13886   6.022   7.162   8.097  0.4698  0.8182  1.1943
  129OSM   H18U13887   6.187   7.159   8.174  0.7332 -0.7890  0.2199
  129OSM    C1F13888   6.690   7.135   6.658 -0.3804  0.1633 -0.0457
  129OSM     OF13889   6.731   7.236   6.612 -1.0852 -0.0757  0.2804
  129OSM    C2F13890   6.770   7.042   6.744  0.0949 -0.4237  0.0817
  129OSM    H2F13891   6.877   7.035   6.717 -0.2064 -0.4380 -1.1880
  129OSM    H2G13892   6.735   6.937   6.728  1.7272 -0.7904 -1.3080
  129OSM    C3F13893   6.772   7.071   6.900  0.3383 -0.1910  0.5091
  129OSM    H3F13894   6.786   6.972   6.950 -4.3001 -0.9142  0.7990
  129OSM    H3G13895   6.672   7.113   6.924  0.2926  0.9331 -1.4764
  129OSM    C4F13896   6.889   7.169   6.939 -0.1297  0.5459 -0.4084
  129OSM    H4F13897   6.889   7.258   6.873 -0.7008 -1.7498 -3.7570
  129OSM    H4G13898   6.990   7.129   6.917  0.5563  2.7705 -1.4953
  129OSM    C5F13899   6.872   7.212   7.092  0.3345 -0.5604  0.4315
  129OSM    H5F13900   6.774   7.263   7.105  0.5472  0.8607 -2.7008
  129OSM    H5G13901   6.950   7.286   7.119 -0.2350 -0.0281  0.6543
  129OSM    C6F13902   6.897   7.102   7.198  0.0651 -0.4642  0.3957
  129OSM    H6F13903   6.929   7.017   7.134 -3.8020 -1.0153 -1.0695
  129OSM    H6G13904   6.799   7.065   7.235 -1.0927 -0.9714 -2.8707
  129OSM    C7F13905   7.001   7.135   7.307 -0.0104 -0.2582 -0.2860
  129OSM    H7F13906   7.098   7.168   7.264 -0.9150 -0.8017 -2.9855
  129OSM    H7G13907   7.029   7.044   7.365 -1.0165 -0.2815  0.1991
  129OSM    C8F13908   6.959   7.237   7.410 -0.2415  0.1602  0.1794
  129OSM    H8F13909   6.852   7.221   7.432 -0.1408  0.2027  0.7324
  129OSM    H8G13910   6.948   7.337   7.362  0.5443  0.1644 -0.0191
  129OSM    C9F13911   7.047   7.254   7.533  0.3435  0.1223 -0.3355
  129OSM    H9F13912   7.138   7.310   7.505 -0.0193  0.3565 -1.0801
  129OSM   C10F13913   7.040   7.197   7.653  0.0496 -0.5116  0.4803
  129OSM   H10F13914   7.115   7.233   7.724  1.0854 -0.4303 -0.6226
  129OSM   C11F13915   6.945   7.095   7.708 -0.1341 -0.1687  0.1914
  129OSM   H11F13916   7.008   7.041   7.781  1.1905  0.2328 -0.6328
  129OSM   H11G13917   6.907   7.025   7.631 -0.9136  1.0252 -0.5552
  129OSM   C12F13918   6.817   7.156   7.771 -0.4235  0.4118  0.9370
  129OSM   H12F13919   6.773   7.238   7.710  1.3337  1.4089  0.9609
  129OSM   H12G13920   6.853   7.208   7.863  0.9860 -1.3008  1.4039
  129OSM   C13F13921   6.718   7.047   7.813  0.2422 -1.0287 -0.0101
  129OSM   H13F13922   6.687   6.979   7.731 -1.7610 -0.1295 -0.0817
  129OSM   H13G13923   6.625   7.107   7.828 -1.1393 -3.0083 -0.1491
  129OSM   C14F13924   6.771   6.977   7.937 -0.2861 -0.2468  0.3759
  129OSM   H14F13925   6.792   7.057   8.011  0.7215 -0.3281  0.1879
  129OSM   H14G13926   6.865   6.922   7.915  1.4982  1.3969  3.3533
  129OSM   C15F13927   6.680   6.874   8.010  0.6846  0.4977 -0.2419
  129OSM   H15F13928   6.716   6.839   8.110 -1.1615 -2.8409 -0.5788
  129OSM   H15G13929   6.684   6.780   7.951 -2.6876 -0.6106  1.0314
  129OSM   C16F13930   6.532   6.901   8.021 -0.0192 -0.5585 -0.0311
  129OSM   H16F13931   6.491   6.934   7.924 -0.8737 -0.5982  0.3075
  129OSM   H16G13932   6.536   6.986   8.093 -0.4449 -2.0019  1.7648
  129OSM   C17F13933   6.442   6.799   8.085  0.5340  0.7377  0.2478
  129OSM   H17F13934   6.376   6.852   8.157 -0.8926  0.8424 -1.0765
  129OSM   H17G13935   6.512   6.734   8.141 -2.9916 -3.9224 -0.0981
  129OSM   C18F13936   6.364   6.707   7.987  1.0413  0.3916 -0.3263
  129OSM   H18F13937   6.323   6.620   8.043  1.6211  0.5343  0.3426
  129OSM   H18G13938   6.439   6.668   7.915  0.5931 -0.1723 -0.4923
  129OSM   H18H13939   6.286   6.754   7.925 -0.0642  2.3407  2.3389
  130OSM      N13940   3.220   1.442   5.806 -0.0072  0.6171  0.1290
  130OSM    C1513941   3.283   1.309   5.840  0.6948  0.3129 -0.0238
  130OSM   H15A13942   3.218   1.230   5.877  1.1724 -0.8725 -1.5947
  130OSM   H15B13943   3.350   1.330   5.922 -0.4220 -3.6644  2.1761
  130OSM   H15C13944   3.331   1.256   5.759 -0.1682 -0.0845 -0.2909
  130OSM    C1413945   3.321   1.534   5.752 -0.3780 -0.6123  0.6519
  130OSM   H14A13946   3.268   1.615   5.704 -0.7533 -0.1975  1.7209
  130OSM   H14B13947   3.380   1.481   5.679 -1.8282 -0.5854 -0.5785
  130OSM   H14C13948   3.383   1.576   5.830 -2.7095  2.2293  1.1561
  130OSM    C1313949   3.121   1.415   5.696  0.1352 -0.9583  0.3193
  130OSM   H13A13950   3.163   1.358   5.614  1.7910  0.6206  0.0182
  130OSM   H13B13951   3.079   1.504   5.652 -0.1360 -1.3368 -0.2048
  130OSM   H13C13952   3.026   1.369   5.720 -1.2470  1.5486 -0.0390
  130OSM    C1213953   3.156   1.503   5.924 -0.1721 -0.1491 -0.9545
  130OSM   H12A13954   3.124   1.604   5.902 -0.6836 -0.2140 -0.5166
  130OSM   H12B13955   3.222   1.515   6.009  0.7943 -0.0562 -1.6996
  130OSM    C1113956   3.032   1.416   5.980 -0.7528 -0.6078  0.1279
  130OSM   H11A13957   2.959   1.391   5.901 -2.2368 -0.9826  1.5652
  130OSM   H11B13958   2.989   1.485   6.056 -0.5462 -1.1256  0.7195
  130OSM      P13959   3.011   1.161   6.039 -0.3595  0.4444  0.2497
  130OSM    O1313960   2.863   1.187   6.017  0.2155 -0.8187  0.1566
  130OSM    O1413961   3.079   1.069   5.945  0.3703 -0.5082  0.3365
  130OSM    O1113962   3.039   1.105   6.176 -0.3123 -0.5535 -0.2019
  130OSM    O1213963   3.089   1.303   6.045  0.0838 -0.0545  0.1427
  130OSM    C1S13964   3.041   1.177   6.297  0.9068  1.2814  0.2500
  130OSM    H1S13965   2.946   1.234   6.304  0.8741  1.3955 -0.8523
  130OSM    H1T13966   3.112   1.261   6.278  0.6731  1.4144 -0.0485
  130OSM     NF13967   3.072   1.177   6.544 -0.1969 -0.5037 -0.2324
  130OSM    HNF13968   3.156   1.196   6.593  0.1065 -1.1083 -0.5073
  130OSM    C2S13969   3.067   1.091   6.424 -0.3667 -0.4307 -0.8473
  130OSM    H2S13970   2.986   1.015   6.425  0.2207 -1.0716 -1.2141
  130OSM    C3S13971   3.200   1.006   6.409 -0.4829 -1.0243 -0.0328
  130OSM    H3S13972   3.282   1.081   6.409 -1.9515  0.6212 -0.6598
  130OSM     O313973   3.218   0.941   6.286  0.0138 -0.1801 -0.4472
  130OSM    HO313974   3.172   1.003   6.230 -0.4983  1.2745  1.4815
  130OSM    C4S13975   3.213   0.905   6.519 -0.4827 -0.5325 -0.2794
  130OSM    H4S13976   3.121   0.846   6.532  0.1933 -1.4531  0.4615
  130OSM    C5S13977   3.302   0.898   6.627  0.6499 -0.0867 -0.1001
  130OSM    H5S13978   3.385   0.970   6.626 -0.5068  1.3599 -2.8624
  130OSM    C6S13979   3.285   0.798   6.745  0.1778  0.7841  0.3325
  130OSM    H6S13980   3.334   0.705   6.709  0.2347  1.4228 -1.3510
  130OSM    H6T13981   3.178   0.775   6.764 -0.4878  0.8499 -2.7433
  130OSM    C7S13982   3.352   0.859   6.870 -0.0048  0.4043  0.5893
  130OSM    H7S13983   3.331   0.968   6.875  2.0914  0.8394  0.7125
  130OSM    H7T13984   3.462   0.850   6.855 -0.3492 -0.7519 -1.6403
  130OSM    C8S13985   3.311   0.777   6.995  0.4681 -0.7349  0.4144
  130OSM    H8S13986   3.354   0.677   6.973  0.4911 -0.8308  0.8864
  130OSM    H8T13987   3.201   0.762   7.007  0.4840 -0.3382  1.0578
  130OSM    C9S13988   3.377   0.827   7.123 -0.0076 -0.4301 -0.2410
  130OSM    H9S13989   3.324   0.909   7.177 -2.2231 -0.2094 -2.5091
  130OSM    H9T13990   3.477   0.871   7.105  0.2613  0.0361  2.0986
  130OSM   C10S13991   3.397   0.715   7.219 -0.2965  0.4375 -0.0967
  130OSM   H10S13992   3.468   0.645   7.170 -1.2947  0.3713 -1.5530
  130OSM   H10T13993   3.302   0.661   7.241  0.6937 -0.6487  1.6529
  130OSM   C11S13994   3.463   0.761   7.350  0.5688  0.6043  0.1306
  130OSM   H11S13995   3.421   0.862   7.373  0.4998  0.9832 -1.5473
  130OSM   H11T13996   3.573   0.767   7.340  0.4600  1.6301 -0.6375
  130OSM   C12S13997   3.440   0.667   7.473  0.7641  0.1283 -0.7532
  130OSM   H12S13998   3.494   0.575   7.445  0.9989 -0.2804  0.9252
  130OSM   H12T13999   3.331   0.648   7.486  0.5900  1.7083  0.5342
  130OSM   C13S14000   3.489   0.720   7.609 -0.2260  0.6312  0.0515
  130OSM   H13S14001   3.581   0.781   7.593  0.6251 -1.1551 -2.5375
  130OSM   H13T14002   3.514   0.627   7.664  1.7354  0.1928 -1.4485
  130OSM   C14S14003   3.376   0.796   7.688  1.1319  0.1316  0.2582
  130OSM   H14S14004   3.285   0.736   7.709  0.0864  0.8507 -1.9775
  130OSM   H14T14005   3.333   0.875   7.623 -2.5777 -0.4772  1.7285
  130OSM   C15S14006   3.436   0.857   7.804  0.4231 -0.0068  0.0214
  130OSM   H15S14007   3.364   0.934   7.840  0.2698 -0.0741 -0.1379
  130OSM   H15T14008   3.533   0.900   7.772  0.4654  0.2823  0.5341
  130OSM   C16S14009   3.443   0.762   7.931 -0.3273  0.3365 -0.3369
  130OSM   H16S14010   3.466   0.661   7.891 -1.2874 -0.0816  0.1320
  130OSM   H16T14011   3.340   0.762   7.973 -0.9812  0.4630 -1.8709
  130OSM   C17S14012   3.561   0.798   8.022  0.3101 -0.2897 -0.0916
  130OSM   H17S14013   3.538   0.898   8.063  1.1200 -0.1861  0.1230
  130OSM   H17T14014   3.655   0.818   7.966  0.4679  0.5596  0.4617
  130OSM   C18S14015   3.596   0.701   8.133  0.3146 -0.3152  0.5289
  130OSM   H18S14016   3.691   0.720   8.186  1.5024 -0.6996 -1.3636
  130OSM   H18T14017   3.615   0.602   8.087  0.2619  0.5633 -1.4714
  130OSM   H18U14018   3.528   0.682   8.219 -0.2297 -0.5392  0.0592
  130OSM    C1F14019   2.959   1.236   6.584  0.3044  0.1911 -0.1092
  130OSM     OF14020   2.851   1.210   6.526 -0.4610 -0.8242  0.0343
  130OSM    C2F14021   2.973   1.315   6.710 -0.2074  0.0304 -0.0533
  130OSM    H2F14022   3.027   1.407   6.680  0.1349 -0.6666 -1.6808
  130OSM    H2G14023   3.025   1.254   6.787 -1.0738  0.0490  0.5567
  130OSM    C3F14024   2.845   1.370   6.755 -0.0754 -0.5183  0.7228
  130OSM    H3F14025   2.777   1.287   6.783 -1.4180 -0.0503 -1.0179
  130OSM    H3G14026   2.805   1.438   6.677  1.0880 -0.4888  0.1332
  130OSM    C4F14027   2.866   1.445   6.887 -0.5519  0.1691 -0.1255
  130OSM    H4F14028   2.767   1.490   6.907  0.1673  0.5297  3.1822
  130OSM    H4G14029   2.946   1.520   6.867 -0.5145 -0.1691 -1.3335
  130OSM    C5F14030   2.893   1.347   7.004  0.3123  0.0000 -0.3313
  130OSM    H5F14031   2.995   1.304   6.995  0.7687  0.7137  1.0419
  130OSM    H5G14032   2.814   1.269   7.010 -0.4599  0.8570  1.6410
  130OSM    C6F14033   2.892   1.418   7.140  0.2005 -0.4203  0.3258
  130OSM    H6F14034   2.812   1.494   7.146  0.0871 -0.5636  0.7080
  130OSM    H6G14035   2.993   1.463   7.142  0.1329 -0.0226 -2.3431
  130OSM    C7F14036   2.869   1.322   7.253 -0.2780  1.0843  0.8749
  130OSM    H7F14037   2.958   1.255   7.257 -0.7027  0.2416 -1.7394
  130OSM    H7G14038   2.786   1.262   7.210 -1.6294  4.0953 -1.0492
  130OSM    C8F14039   2.828   1.377   7.387  0.1294  0.4728 -0.2826
  130OSM    H8F14040   2.829   1.288   7.454 -1.6585 -0.9802 -2.0572
  130OSM    H8G14041   2.726   1.419   7.373  0.3394  1.5081  1.0820
  130OSM    C9F14042   2.918   1.481   7.443  0.0315 -0.3780 -0.5801
  130OSM    H9F14043   2.928   1.570   7.379 -0.0255  0.1288  0.0966
  130OSM   C10F14044   2.980   1.486   7.559 -0.1945 -0.6113 -0.2751
  130OSM   H10F14045   3.035   1.576   7.592 -1.8371  0.6770 -0.8973
  130OSM   C11F14046   2.983   1.374   7.670 -0.2147 -0.6774  0.1369
  130OSM   H11F14047   3.081   1.351   7.716  1.4288  0.7297 -2.3698
  130OSM   H11G14048   2.960   1.279   7.617  2.6092 -1.6328  0.4607
  130OSM   C12F14049   2.877   1.396   7.786 -0.0075 -1.0069  0.8593
  130OSM   H12F14050   2.851   1.296   7.827 -1.9709 -0.6570  0.5585
  130OSM   H12G14051   2.787   1.441   7.740  0.9974 -0.4520 -0.6431
  130OSM   C13F14052   2.927   1.484   7.896  0.0324  0.1627 -0.1911
  130OSM   H13F14053   2.840   1.525   7.950 -0.8996 -2.3061  0.3292
  130OSM   H13G14054   2.979   1.577   7.865 -1.5851  1.1656  0.0409
  130OSM   C14F14055   3.011   1.414   8.004 -0.3875 -0.3499  0.0147
  130OSM   H14F14056   3.108   1.375   7.967 -0.0918  0.3633  0.0231
  130OSM   H14G14057   2.951   1.326   8.036 -2.6706  0.6774 -1.1478
  130OSM   C15F14058   3.061   1.497   8.127 -0.2118 -1.0985  0.4051
  130OSM   H15F14059   2.975   1.551   8.172  0.9187  0.1499  1.1623
  130OSM   H15G14060   3.136   1.568   8.086 -0.6199 -1.4266 -0.9578
  130OSM   C16F14061   3.106   1.421   8.245 -0.3037  0.5248  0.7409
  130OSM   H16F14062   3.199   1.361   8.228 -1.4778 -1.6865  1.7266
  130OSM   H16G14063   3.027   1.345   8.263  0.7203 -1.0608 -0.9560
  130OSM   C17F14064   3.124   1.511   8.367 -0.2184 -0.1974  0.9564
  130OSM   H17F14065   3.027   1.558   8.393 -0.1097  1.4533 -1.3214
  130OSM   H17G14066   3.191   1.597   8.343  0.8593 -1.5406 -1.1482
  130OSM   C18F14067   3.184   1.445   8.492 -0.1100  0.3710 -0.6377
  130OSM   H18F14068   3.199   1.525   8.569 -1.1923 -1.8040  2.0207
  130OSM   H18G14069   3.283   1.396   8.480  0.1727  0.3285  1.3746
  130OSM   H18H14070   3.114   1.372   8.536 -1.0794  1.2362 -0.7029
  131OSM      N14071   3.730   4.250   6.167 -0.1367 -0.2461 -0.4248
  131OSM    C1514072   3.758   4.303   6.306 -0.2950 -0.8143 -0.1889
  131OSM   H15A14073   3.764   4.410   6.304 -0.0095 -0.8393 -1.8221
  131OSM   H15B14074   3.849   4.272   6.356 -0.1411 -0.9177 -0.5280
  131OSM   H15C14075   3.677   4.272   6.371  0.8144 -1.3106  1.0085
  131OSM    C1414076   3.842   4.279   6.065  0.1358  0.2895 -0.6021
  131OSM   H14A14077   3.932   4.227   6.096  1.0754  0.6963 -2.5018
  131OSM   H14B14078   3.868   4.384   6.070 -0.6001  0.5746 -2.2744
  131OSM   H14C14079   3.804   4.252   5.968 -2.9910 -0.4341  0.6966
  131OSM    C1314080   3.721   4.102   6.187  0.7335  0.2027  0.4585
  131OSM   H13A14081   3.674   4.051   6.105  1.7206  0.6683 -0.4199
  131OSM   H13B14082   3.655   4.076   6.268 -0.3462  0.5219 -0.2997
  131OSM   H13C14083   3.822   4.066   6.195  1.4381  2.2863  1.9355
  131OSM    C1214084   3.599   4.311   6.115  0.1373 -0.4718  0.5483
  131OSM   H12A14085   3.509   4.269   6.159 -1.0527 -0.0028 -1.3168
  131OSM   H12B14086   3.592   4.290   6.009  0.3106  1.9063  0.0217
  131OSM    C1114087   3.598   4.466   6.142  0.4491  0.0884 -0.2914
  131OSM   H11A14088   3.591   4.488   6.251  0.4088 -1.5117  0.0487
  131OSM   H11B14089   3.510   4.500   6.083  0.8945 -0.8626 -1.5300
  131OSM      P14090   3.711   4.676   6.054  0.1286  0.1456  0.1366
  131OSM    O1314091   3.834   4.704   5.974  0.1073 -0.0403  0.2551
  131OSM    O1414092   3.586   4.705   5.978  0.2055  0.6012 -0.1337
  131OSM    O1114093   3.717   4.756   6.191 -0.0724  0.0078 -0.2218
  131OSM    O1214094   3.722   4.529   6.091  0.4286  0.8081 -0.1343
  131OSM    C1S14095   3.818   4.722   6.292 -0.2565 -0.6875  0.0454
  131OSM    H1S14096   3.914   4.760   6.249  0.0122  0.0701  1.2666
  131OSM    H1T14097   3.829   4.616   6.323  0.0382  0.0615  2.7636
  131OSM     NF14098   3.882   4.721   6.520 -0.2137 -0.2866  0.4516
  131OSM    HNF14099   3.855   4.641   6.573  0.4790 -0.2363  0.8849
  131OSM    C2S14100   3.782   4.781   6.433  0.0296  0.2576  0.0343
  131OSM    H2S14101   3.792   4.890   6.453  1.6191 -0.1913  2.0822
  131OSM    C3S14102   3.627   4.764   6.450 -0.1306 -0.4966  0.8938
  131OSM    H3S14103   3.603   4.664   6.408  0.0353 -1.1283  2.2410
  131OSM     O314104   3.545   4.843   6.359  0.0329  0.5437 -0.4776
  131OSM    HO314105   3.601   4.857   6.282 -0.4496  1.7141 -0.6421
  131OSM    C4S14106   3.577   4.794   6.586 -0.2072  1.1111  0.3255
  131OSM    H4S14107   3.596   4.892   6.630 -3.2096  1.9011  0.1076
  131OSM    C5S14108   3.526   4.702   6.667 -0.0570 -0.3513  0.0318
  131OSM    H5S14109   3.501   4.600   6.634  0.2657 -0.2659 -0.4812
  131OSM    C6S14110   3.482   4.715   6.809 -0.4730  0.4540  0.1518
  131OSM    H6S14111   3.549   4.653   6.872  1.0569  1.7043 -0.1765
  131OSM    H6T14112   3.380   4.672   6.810 -1.1062  1.8863 -0.0152
  131OSM    C7S14113   3.479   4.856   6.877  0.3088  0.0686  0.3869
  131OSM    H7S14114   3.417   4.930   6.821  1.8524  0.8904 -0.3017
  131OSM    H7T14115   3.580   4.903   6.869  0.6723 -0.1486  2.9196
  131OSM    C8S14116   3.430   4.863   7.018  0.5929 -0.0586  0.7632
  131OSM    H8S14117   3.324   4.839   7.040  0.2295  1.7502  1.1398
  131OSM    H8T14118   3.447   4.968   7.050  1.2603 -0.9193  3.4534
  131OSM    C9S14119   3.516   4.769   7.108 -0.0475 -0.6527  0.0572
  131OSM    H9S14120   3.623   4.799   7.114 -0.3679  1.1514 -2.1856
  131OSM    H9T14121   3.502   4.667   7.067  1.2646 -1.0999  0.6540
  131OSM   C10S14122   3.454   4.761   7.254  0.0908 -0.3034 -0.4837
  131OSM   H10S14123   3.375   4.683   7.241 -0.2112  0.0557 -0.8598
  131OSM   H10T14124   3.402   4.847   7.301 -2.3223 -3.3836  3.0471
  131OSM   C11S14125   3.554   4.709   7.363 -0.1469 -0.1781 -0.2036
  131OSM   H11S14126   3.627   4.792   7.370 -1.5302  1.1074 -0.6460
  131OSM   H11T14127   3.610   4.615   7.343  2.3662  0.4621  2.8671
  131OSM   C12S14128   3.481   4.692   7.501 -0.3163 -0.4323  0.5429
  131OSM   H12S14129   3.392   4.628   7.483  0.2630 -1.7690  2.2333
  131OSM   H12T14130   3.456   4.792   7.544 -1.8286 -1.0278  1.1038
  131OSM   C13S14131   3.569   4.618   7.609  0.5029  0.9001  0.9925
  131OSM   H13S14132   3.670   4.665   7.609  1.3962 -0.9524  0.2869
  131OSM   H13T14133   3.587   4.514   7.576  1.4927  0.9152  1.4256
  131OSM   C14S14134   3.494   4.610   7.747 -0.3944  0.5158  0.0101
  131OSM   H14S14135   3.389   4.575   7.738 -0.7103  1.0056  1.5762
  131OSM   H14T14136   3.492   4.714   7.787  0.8679  0.7004 -0.3472
  131OSM   C15S14137   3.557   4.521   7.854  0.0775  0.1896  0.3799
  131OSM   H15S14138   3.664   4.548   7.858  0.1622 -0.1660  0.5124
  131OSM   H15T14139   3.545   4.412   7.837  0.0776 -0.3433  3.2951
  131OSM   C16S14140   3.506   4.537   7.996  0.0813  0.0034 -0.0655
  131OSM   H16S14141   3.503   4.640   8.036  0.4052 -0.9841  2.6996
  131OSM   H16T14142   3.577   4.477   8.056 -0.1013 -1.5159 -1.2972
  131OSM   C17S14143   3.358   4.481   7.999  0.1393  1.0005  0.0462
  131OSM   H17S14144   3.355   4.379   7.955 -3.4620  1.6399 -1.5284
  131OSM   H17T14145   3.294   4.541   7.931  0.7959 -0.1568 -1.6413
  131OSM   C18S14146   3.300   4.476   8.136  0.5496 -0.1313 -0.0898
  131OSM   H18S14147   3.361   4.417   8.207 -2.3572 -2.0547  1.0198
  131OSM   H18T14148   3.194   4.443   8.132  0.5944 -0.2897  0.0127
  131OSM   H18U14149   3.287   4.579   8.176  1.0334 -0.2025  0.2529
  131OSM    C1F14150   4.012   4.750   6.502  0.0205  0.4137  0.2090
  131OSM     OF14151   4.051   4.841   6.430 -0.0847  0.2240  1.2371
  131OSM    C2F14152   4.120   4.669   6.574  0.7389 -0.2766  0.0527
  131OSM    H2F14153   4.197   4.644   6.498 -0.0651 -0.1127 -0.8363
  131OSM    H2G14154   4.082   4.568   6.601  1.9189 -0.0448  2.8821
  131OSM    C3F14155   4.152   4.738   6.709 -0.2921  0.4365 -0.1301
  131OSM    H3F14156   4.196   4.839   6.689  1.6181 -0.4611 -0.6981
  131OSM    H3G14157   4.221   4.670   6.763 -1.4261  1.0153  2.1622
  131OSM    C4F14158   4.029   4.761   6.804  0.1759 -0.0317  0.2805
  131OSM    H4F14159   3.973   4.665   6.805  0.8429 -0.4872 -1.7265
  131OSM    H4G14160   3.963   4.839   6.761 -2.2585 -1.1138  1.8035
  131OSM    C5F14161   4.074   4.816   6.945  0.2350  0.9292  0.1831
  131OSM    H5F14162   4.097   4.924   6.935 -0.4390  0.9139 -1.9267
  131OSM    H5G14163   4.168   4.771   6.984 -0.3183  0.7911  1.3999
  131OSM    C6F14164   3.948   4.798   7.040 -0.1766 -0.0293  0.2594
  131OSM    H6F14165   3.860   4.858   7.008  0.3148  0.7878  0.4202
  131OSM    H6G14166   3.973   4.826   7.145 -0.6819  1.3756  0.0285
  131OSM    C7F14167   3.896   4.654   7.065  0.3153  0.1951  0.4479
  131OSM    H7F14168   3.853   4.609   6.973  3.6137 -0.7698 -0.7310
  131OSM    H7G14169   3.809   4.665   7.133 -0.8208  1.0672 -1.0625
  131OSM    C8F14170   3.998   4.550   7.115  0.4097  0.1092 -0.4821
  131OSM    H8F14171   4.082   4.603   7.166 -1.2282  0.5989  1.8588
  131OSM    H8G14172   4.046   4.503   7.027 -2.1635 -2.7302 -0.5234
  131OSM    C9F14173   3.926   4.453   7.209 -1.1998 -0.2227  0.0214
  131OSM    H9F14174   3.894   4.353   7.177 -1.0993 -1.0317  2.2386
  131OSM   C10F14175   3.902   4.482   7.344  0.5514  0.1029  0.4477
  131OSM   H10F14176   3.865   4.398   7.405  1.0111  0.3038  1.0217
  131OSM   C11F14177   3.947   4.603   7.418  0.4642  0.1574  0.0991
  131OSM   H11F14178   3.850   4.635   7.463 -0.2197 -1.1367 -0.3822
  131OSM   H11G14179   3.988   4.678   7.348  1.9856 -1.1518 -0.4805
  131OSM   C12F14180   4.064   4.579   7.516  0.2780  0.0239 -0.3833
  131OSM   H12F14181   4.108   4.673   7.556  2.7919 -0.2990 -2.1782
  131OSM   H12G14182   4.147   4.527   7.464  0.5495  0.1418 -0.0717
  131OSM   C13F14183   4.018   4.501   7.642 -0.0402  0.4302  0.2655
  131OSM   H13F14184   3.961   4.407   7.624  0.9743 -0.4401  1.5100
  131OSM   H13G14185   3.961   4.565   7.713 -0.3313 -0.5057  0.8937
  131OSM   C14F14186   4.144   4.447   7.719  0.2760 -0.5873  0.4046
  131OSM   H14F14187   4.202   4.541   7.729  0.3184 -0.6915  1.1695
  131OSM   H14G14188   4.201   4.368   7.665 -2.8270 -2.4973 -0.2988
  131OSM   C15F14189   4.110   4.393   7.851 -0.9118 -0.0627 -0.2959
  131OSM   H15F14190   4.206   4.359   7.896  0.3969  1.3280 -1.9281
  131OSM   H15G14191   4.047   4.301   7.847  0.1098 -0.8746  1.3139
  131OSM   C16F14192   4.044   4.488   7.956 -0.1235  0.7205 -0.1724
  131OSM   H16F14193   4.038   4.430   8.051  0.3845  1.4506  0.3119
  131OSM   H16G14194   3.937   4.492   7.925 -0.9672 -2.3434  1.8932
  131OSM   C17F14195   4.114   4.617   7.965  0.3326 -0.5152  0.0400
  131OSM   H17F14196   4.118   4.679   7.873 -3.3339 -0.7772 -0.4336
  131OSM   H17G14197   4.219   4.586   7.987  0.1048 -1.4957 -0.1837
  131OSM   C18F14198   4.051   4.694   8.087  0.0803 -0.2586  0.4862
  131OSM   H18F14199   4.041   4.622   8.171 -1.5028 -1.3762 -0.5887
  131OSM   H18G14200   3.946   4.720   8.063 -0.4762 -0.5614  2.3962
  131OSM   H18H14201   4.111   4.786   8.102  0.0266 -0.0731 -0.4177
  132OSM      N14202   1.615   6.022   5.961 -0.0594  0.2059  0.3496
  132OSM    C1514203   1.572   5.889   6.021 -0.0132  0.0761  0.0188
  132OSM   H15A14204   1.477   5.862   5.976 -0.1305 -0.3928  0.5451
  132OSM   H15B14205   1.544   5.901   6.124 -0.2443 -0.4678  0.0209
  132OSM   H15C14206   1.640   5.807   6.004 -0.4252  0.3229 -3.8360
  132OSM    C1414207   1.759   6.026   6.000  0.5896 -0.2961  0.4814
  132OSM   H14A14208   1.768   6.031   6.107 -2.0885  1.3834  0.7308
  132OSM   H14B14209   1.811   6.113   5.964  1.3631  0.9147  4.0888
  132OSM   H14C14210   1.821   5.943   5.968  1.2021  0.4147 -0.2177
  132OSM    C1314211   1.613   6.010   5.811 -0.6486 -0.0703  0.0288
  132OSM   H13A14212   1.676   5.927   5.783 -1.5723 -0.5269 -0.7795
  132OSM   H13B14213   1.651   6.095   5.757 -2.7892 -0.5317 -2.3931
  132OSM   H13C14214   1.515   5.979   5.778 -2.1981  1.6888  2.5437
  132OSM    C1214215   1.532   6.135   6.021 -0.7767  0.1031  0.5970
  132OSM   H12A14216   1.427   6.118   6.008 -0.1825 -2.7281 -1.4786
  132OSM   H12B14217   1.552   6.224   5.964 -0.1315 -1.6705 -2.1380
  132OSM    C1114218   1.556   6.173   6.165 -0.2019  0.1779  0.3484
  132OSM   H11A14219   1.589   6.092   6.233  2.1911  0.9684  0.2023
  132OSM   H11B14220   1.456   6.211   6.196 -0.6515 -0.2968 -0.4712
  132OSM      P14221   1.709   6.332   6.285  0.1825 -0.4097 -0.0325
  132OSM    O1314222   1.793   6.232   6.349 -0.1014  0.1986  0.1611
  132OSM    O1414223   1.751   6.471   6.259  0.1739 -0.5564  0.7014
  132OSM    O1114224   1.575   6.352   6.364  0.5809 -0.4399 -0.5232
  132OSM    O1214225   1.653   6.272   6.158  0.2536 -0.1825 -0.0818
  132OSM    C1S14226   1.546   6.303   6.499  0.0450  0.2787  0.7292
  132OSM    H1S14227   1.610   6.213   6.515  0.3942 -0.1257 -2.3451
  132OSM    H1T14228   1.446   6.257   6.513  0.0321 -0.1773 -0.6940
  132OSM     NF14229   1.565   6.342   6.734 -0.0044  0.3174  0.3377
  132OSM    HNF14230   1.481   6.374   6.777  0.1927  2.3565 -0.7176
  132OSM    C2S14231   1.583   6.405   6.610 -0.3690  0.4723  1.0240
  132OSM    H2S14232   1.691   6.428   6.598 -0.2589 -0.7637 -0.8099
  132OSM    C3S14233   1.508   6.538   6.594  0.2921  0.3111 -0.3517
  132OSM    H3S14234   1.401   6.517   6.616 -0.0199  3.2092  1.4809
  132OSM     O314235   1.504   6.592   6.463  0.5021 -0.0774  0.7098
  132OSM    HO314236   1.541   6.529   6.402  0.2178 -0.1605  0.6209
  132OSM    C4S14237   1.553   6.638   6.690 -0.1426 -0.3141 -0.1566
  132OSM    H4S14238   1.486   6.642   6.778  0.2375  0.5663  0.1076
  132OSM    C5S14239   1.648   6.733   6.682  0.1664 -0.5601 -0.4084
  132OSM    H5S14240   1.708   6.754   6.592  1.7140  1.1216  0.9513
  132OSM    C6S14241   1.675   6.827   6.806  0.6609 -0.3713  0.1561
  132OSM    H6S14242   1.780   6.855   6.826  0.4828  2.4930 -2.2441
  132OSM    H6T14243   1.652   6.783   6.905 -0.5602  1.0177  0.5181
  132OSM    C7S14244   1.589   6.958   6.808  0.2489 -0.0531  0.2942
  132OSM    H7S14245   1.484   6.944   6.773  0.3005  0.2599 -0.0028
  132OSM    H7T14246   1.624   7.019   6.722 -1.3411 -0.6866 -0.8684
  132OSM    C8S14247   1.604   7.044   6.932  0.7514 -0.2421  0.7300
  132OSM    H8S14248   1.563   7.143   6.905  1.7549 -0.3290 -1.3307
  132OSM    H8T14249   1.713   7.057   6.951  0.2600 -0.9167  5.1340
  132OSM    C9S14250   1.542   6.991   7.054 -0.0011  0.5562 -0.0102
  132OSM    H9S14251   1.584   6.895   7.091 -2.5796 -0.8174 -0.3658
  132OSM    H9T14252   1.441   6.954   7.026  0.4583  0.2929 -1.4492
  132OSM   C10S14253   1.544   7.098   7.161 -0.2165 -0.0769 -0.4803
  132OSM   H10S14254   1.482   7.182   7.125 -0.1042 -0.8561 -2.6676
  132OSM   H10T14255   1.646   7.135   7.184 -0.2793 -0.9976  1.4841
  132OSM   C11S14256   1.487   7.040   7.294  0.2200 -0.1502  0.2979
  132OSM   H11S14257   1.515   6.934   7.308 -0.1881 -0.2164  0.6393
  132OSM   H11T14258   1.376   7.043   7.304  0.3003  1.3907  1.1888
  132OSM   C12S14259   1.536   7.115   7.421 -0.3367 -0.8562  0.1445
  132OSM   H12S14260   1.510   7.223   7.419  2.3760 -0.0997  1.0689
  132OSM   H12T14261   1.645   7.102   7.437  0.2956  2.3462 -0.7839
  132OSM   C13S14262   1.477   7.059   7.549 -0.3371  0.2236  0.9201
  132OSM   H13S14263   1.502   6.952   7.561 -0.9355  0.2931  3.0689
  132OSM   H13T14264   1.367   7.072   7.536 -0.1077  1.9135  0.3546
  132OSM   C14S14265   1.518   7.131   7.677 -0.1306 -0.2260 -0.3636
  132OSM   H14S14266   1.529   7.241   7.665 -0.2645 -0.1516  0.1753
  132OSM   H14T14267   1.616   7.089   7.708 -1.0030 -2.3050 -0.2976
  132OSM   C15S14268   1.403   7.130   7.788  0.7572  0.3008 -0.3159
  132OSM   H15S14269   1.384   7.024   7.814 -2.6515  0.6736 -0.8988
  132OSM   H15T14270   1.311   7.172   7.743  0.5357 -2.0473 -2.2944
  132OSM   C16S14271   1.440   7.204   7.917 -0.1310 -0.3564 -1.0321
  132OSM   H16S14272   1.347   7.207   7.979  0.8851 -2.4491  0.7117
  132OSM   H16T14273   1.483   7.303   7.891  1.4594 -0.4071  1.1485
  132OSM   C17S14274   1.547   7.143   8.005 -0.9124  0.2889  0.5774
  132OSM   H17S14275   1.571   7.208   8.092  1.8050  0.9162 -0.5405
  132OSM   H17T14276   1.643   7.136   7.950 -0.5988  1.6937  0.9157
  132OSM   C18S14277   1.517   7.005   8.066  0.4354  0.2915 -0.2977
  132OSM   H18S14278   1.495   6.947   7.974  0.0595  3.2214 -2.2049
  132OSM   H18T14279   1.425   7.010   8.128  1.6025 -1.7922  1.7035
  132OSM   H18U14280   1.604   6.976   8.127  0.2628  0.9120  0.2514
  132OSM    C1F14281   1.633   6.241   6.791 -0.8023 -0.2273  0.8777
  132OSM     OF14282   1.744   6.204   6.751 -0.7048 -0.3140 -0.5832
  132OSM    C2F14283   1.565   6.178   6.912 -0.1224 -0.4415  0.9696
  132OSM    H2F14284   1.509   6.087   6.881 -0.6873  0.8007 -2.0280
  132OSM    H2G14285   1.492   6.254   6.946 -1.2304  0.0168 -2.0948
  132OSM    C3F14286   1.664   6.150   7.028  0.5861 -0.0869  0.4322
  132OSM    H3F14287   1.733   6.235   7.047  0.4945  0.2069 -0.4823
  132OSM    H3G14288   1.741   6.081   6.989  1.7652  1.6864 -0.5081
  132OSM    C4F14289   1.582   6.109   7.154 -0.9615  0.2019 -0.0876
  132OSM    H4F14290   1.511   6.025   7.141 -1.4740  0.4313  1.0695
  132OSM    H4G14291   1.535   6.202   7.191  3.0288  1.5660  2.2513
  132OSM    C5F14292   1.687   6.077   7.262  0.1692  0.5600 -0.3005
  132OSM    H5F14293   1.743   6.171   7.282  0.2867  0.0965  1.6765
  132OSM    H5G14294   1.759   5.996   7.236 -2.9160 -3.4136  2.3700
  132OSM    C6F14295   1.632   6.032   7.394  0.1859 -0.1722 -0.4341
  132OSM    H6F14296   1.584   5.933   7.380 -1.1542  0.3578  0.2839
  132OSM    H6G14297   1.558   6.110   7.421 -2.4252 -3.3815  2.7154
  132OSM    C7F14298   1.741   6.030   7.503  0.2093 -0.5538 -0.2448
  132OSM    H7F14299   1.780   6.134   7.505 -0.0457 -0.3938 -2.2071
  132OSM    H7G14300   1.823   5.960   7.479  0.9449 -0.1749  1.0613
  132OSM    C8F14301   1.681   5.999   7.641  0.3194 -0.0639 -0.0300
  132OSM    H8F14302   1.593   6.064   7.658  0.1625 -0.0539 -0.8435
  132OSM    H8G14303   1.748   6.032   7.724 -2.0842  1.3604  1.4813
  132OSM    C9F14304   1.654   5.847   7.658 -0.0164 -0.0085 -0.0789
  132OSM    H9F14305   1.616   5.797   7.568 -0.5500 -0.3254  0.3179
  132OSM   C10F14306   1.690   5.771   7.762 -0.2655  0.7470 -0.2843
  132OSM   H10F14307   1.655   5.667   7.751 -0.5800  0.8281 -0.0594
  132OSM   C11F14308   1.764   5.814   7.891  0.3943 -0.6314  0.3480
  132OSM   H11F14309   1.727   5.914   7.922  0.7156  0.1704 -1.7293
  132OSM   H11G14310   1.874   5.821   7.874  0.2429  1.2720 -0.0029
  132OSM   C12F14311   1.732   5.716   8.006  0.2507  0.2714 -0.0852
  132OSM   H12F14312   1.754   5.610   7.979 -0.3756  0.4194 -1.2199
  132OSM   H12G14313   1.624   5.718   8.029 -0.1750 -0.5011 -1.8539
  132OSM   C13F14314   1.825   5.736   8.125 -0.2475  0.2436  0.1625
  132OSM   H13F14315   1.805   5.839   8.162  1.0387  0.0407  1.5044
  132OSM   H13G14316   1.931   5.756   8.098 -0.0473 -0.4733  0.4087
  132OSM   C14F14317   1.817   5.617   8.219  0.1378  0.0208 -0.1259
  132OSM   H14F14318   1.870   5.534   8.168  1.0091 -0.7226  1.8943
  132OSM   H14G14319   1.711   5.594   8.242  0.0539  2.3206  2.2096
  132OSM   C15F14320   1.885   5.640   8.354 -0.8319 -0.4340 -0.0934
  132OSM   H15F14321   1.819   5.621   8.441  1.8829 -1.0494  1.9779
  132OSM   H15G14322   1.931   5.740   8.365  0.2589 -0.8614 -0.5896
  132OSM   C16F14323   2.009   5.546   8.371 -0.0549 -0.9136  0.1056
  132OSM   H16F14324   2.063   5.576   8.463  0.0084 -1.0095  0.1011
  132OSM   H16G14325   2.078   5.570   8.287 -0.4705 -3.0239 -0.9230
  132OSM   C17F14326   1.978   5.398   8.381  0.1644  0.8360 -1.0991
  132OSM   H17F14327   2.071   5.342   8.405 -1.0735 -0.3852  1.1924
  132OSM   H17G14328   1.939   5.361   8.284  0.9270  0.3317 -1.2288
  132OSM   C18F14329   1.877   5.363   8.495 -0.1698  0.5014 -0.1317
  132OSM   H18F14330   1.857   5.254   8.496  1.9299  0.0951  0.1738
  132OSM   H18G14331   1.779   5.416   8.499 -1.2689 -1.4956  3.0547
  132OSM   H18H14332   1.925   5.384   8.593 -0.5429 -1.2755  0.4648
  133OSM      N14333   0.796   4.621   5.926  0.3956  0.2443  0.5602
  133OSM    C1514334   0.943   4.659   5.907  0.2944  0.7131 -0.1929
  133OSM   H15A14335   0.950   4.766   5.891  0.9950  0.9564  1.5696
  133OSM   H15B14336   0.999   4.608   5.830  0.9533  1.0696  0.0403
  133OSM   H15C14337   0.995   4.637   5.998 -2.3369 -0.2596  1.1982
  133OSM    C1414338   0.724   4.656   5.804  0.1154  0.1294 -0.1582
  133OSM   H14A14339   0.791   4.647   5.720  1.2372 -1.0102  0.8154
  133OSM   H14B14340   0.685   4.756   5.810 -1.1194 -0.2447 -1.4160
  133OSM   H14C14341   0.632   4.599   5.795 -0.1146  0.7317 -2.2157
  133OSM    C1314342   0.780   4.472   5.943 -0.2962  0.9353  0.3555
  133OSM   H13A14343   0.790   4.419   5.850  0.3518  0.2227  0.8222
  133OSM   H13B14344   0.677   4.467   5.974 -0.8759  1.7423 -1.3267
  133OSM   H13C14345   0.840   4.435   6.025 -1.1186 -0.7569  0.2331
  133OSM    C1214346   0.737   4.685   6.047  0.1900 -0.1721 -0.0842
  133OSM   H12A14347   0.640   4.641   6.061  0.2274  0.1245  1.2666
  133OSM   H12B14348   0.726   4.792   6.037 -1.7298 -0.4469 -1.3111
  133OSM    C1114349   0.810   4.658   6.176  0.5199 -0.1736 -0.0244
  133OSM   H11A14350   0.829   4.549   6.180 -2.2379 -0.7792 -1.2967
  133OSM   H11B14351   0.749   4.694   6.261  1.4395 -0.3853  0.7456
  133OSM      P14352   0.931   4.898   6.221  0.0559  0.4050  0.4030
  133OSM    O1314353   1.056   4.952   6.172 -0.4662 -0.3345 -0.6054
  133OSM    O1414354   0.812   4.963   6.169  0.4476  0.0049  0.4921
  133OSM    O1114355   0.934   4.895   6.385 -0.2449  0.5744  0.3159
  133OSM    O1214356   0.928   4.743   6.182 -0.8619  0.7374 -0.3551
  133OSM    C1S14357   1.064   4.881   6.440  0.6781 -0.4749 -0.0880
  133OSM    H1S14358   1.119   4.978   6.438  0.4914 -0.3719 -0.4385
  133OSM    H1T14359   1.131   4.816   6.381  3.8163  1.2719  1.3266
  133OSM     NF14360   1.178   4.856   6.655  0.3235  0.1854  0.0326
  133OSM    HNF14361   1.248   4.788   6.636 -0.2401  0.1098 -1.9992
  133OSM    C2S14362   1.051   4.825   6.585  0.0704  0.3812 -0.1255
  133OSM    H2S14363   0.962   4.872   6.632  0.7216  0.4484  1.1097
  133OSM    C3S14364   1.023   4.674   6.578 -0.4836  0.3341  0.3631
  133OSM    H3S14365   1.093   4.638   6.500  1.3041  0.3948  1.8828
  133OSM     O314366   0.890   4.648   6.531 -0.4485  0.3845  0.2644
  133OSM    HO314367   0.885   4.707   6.455  1.8761  0.5144  0.1204
  133OSM    C4S14368   1.042   4.593   6.701  0.1027  0.3233  0.6191
  133OSM    H4S14369   0.959   4.598   6.773  0.3103 -0.1021  0.8923
  133OSM    C5S14370   1.143   4.503   6.716  0.5533 -0.5047  0.0968
  133OSM    H5S14371   1.221   4.500   6.638  0.3089  0.8154 -0.2245
  133OSM    C6S14372   1.167   4.412   6.834 -0.6751  0.0380  0.3123
  133OSM    H6S14373   1.270   4.409   6.876 -0.6262  0.8109  0.2548
  133OSM    H6T14374   1.147   4.308   6.802  0.0981 -0.1755  0.4774
  133OSM    C7S14375   1.081   4.448   6.952  0.4158 -0.5965  0.3821
  133OSM    H7S14376   0.972   4.430   6.939  0.6133 -1.0157 -0.8482
  133OSM    H7T14377   1.089   4.555   6.978  1.5265 -0.7999  0.9682
  133OSM    C8S14378   1.118   4.361   7.069  0.2046  0.3097  0.1868
  133OSM    H8S14379   1.228   4.375   7.070  0.3166 -0.1273 -1.8126
  133OSM    H8T14380   1.096   4.254   7.048  1.0615 -0.2419  1.9296
  133OSM    C9S14381   1.060   4.406   7.199 -0.0062  0.7507 -0.8722
  133OSM    H9S14382   0.958   4.362   7.203  0.6526 -0.8063  2.6530
  133OSM    H9T14383   1.055   4.517   7.206 -1.5282  0.6152  1.3023
  133OSM   C10S14384   1.134   4.358   7.322 -0.2223  0.2356 -0.0923
  133OSM   H10S14385   1.234   4.404   7.339  1.6601 -3.3971 -0.4288
  133OSM   H10T14386   1.159   4.250   7.320  1.2992  0.5122  1.8174
  133OSM   C11S14387   1.048   4.391   7.447  0.9910 -0.0971 -0.7290
  133OSM   H11S14388   0.996   4.299   7.482  0.1288  0.3154 -0.9026
  133OSM   H11T14389   0.970   4.469   7.436  1.6876  1.1501  2.2799
  133OSM   C12S14390   1.141   4.448   7.556  0.6131  0.0646 -0.1266
  133OSM   H12S14391   1.189   4.544   7.528 -0.1509  0.1104 -1.3234
  133OSM   H12T14392   1.224   4.375   7.565  0.4688 -0.0788  0.0288
  133OSM   C13S14393   1.063   4.478   7.687 -0.5280  0.4944  0.0365
  133OSM   H13S14394   1.022   4.389   7.740 -0.1553  0.9092  1.0288
  133OSM   H13T14395   0.982   4.548   7.656  0.8332  2.2916  0.3641
  133OSM   C14S14396   1.152   4.546   7.791 -0.6823 -0.8051 -0.5418
  133OSM   H14S14397   1.181   4.649   7.761 -2.4025 -0.2013 -0.2743
  133OSM   H14T14398   1.248   4.494   7.807  0.7883  0.9524 -3.0200
  133OSM   C15S14399   1.078   4.565   7.928 -0.1342 -0.3345  0.5317
  133OSM   H15S14400   1.147   4.619   7.996  1.4426 -1.1908 -0.3340
  133OSM   H15T14401   1.046   4.469   7.973 -0.0899 -0.1333  0.9929
  133OSM   C16S14402   0.948   4.640   7.909  0.0233  0.6127 -0.1872
  133OSM   H16S14403   0.872   4.568   7.873  0.3187  0.5552 -0.7035
  133OSM   H16T14404   0.964   4.710   7.825 -0.4543 -3.3441 -3.9157
  133OSM   C17S14405   0.897   4.706   8.040  0.0577 -0.3854  0.0076
  133OSM   H17S14406   0.975   4.773   8.083  0.9025 -1.1997 -0.2150
  133OSM   H17T14407   0.879   4.628   8.117 -0.6211 -0.7592 -0.5142
  133OSM   C18S14408   0.763   4.777   8.015 -0.1214  0.1388 -0.1905
  133OSM   H18S14409   0.685   4.709   7.975 -1.4667  1.0053  0.8450
  133OSM   H18T14410   0.780   4.866   7.950  1.9386  1.0278  1.4472
  133OSM   H18U14411   0.721   4.811   8.112  1.4490 -0.4798  0.7350
  133OSM    C1F14412   1.210   4.974   6.708 -0.2345  0.6108  0.2293
  133OSM     OF14413   1.131   5.066   6.693  0.4859  0.6028  0.0695
  133OSM    C2F14414   1.349   4.981   6.774  1.0073  0.8300  0.4909
  133OSM    H2F14415   1.437   4.981   6.707  1.3618 -0.0230  0.9308
  133OSM    H2G14416   1.350   4.892   6.842 -3.4183  0.4543  0.3226
  133OSM    C3F14417   1.354   5.113   6.869 -0.3408  0.6302  0.3631
  133OSM    H3F14418   1.263   5.109   6.933  0.2690 -0.5422  1.2117
  133OSM    H3G14419   1.351   5.195   6.795 -0.7884  0.0460 -0.2804
  133OSM    C4F14420   1.467   5.126   6.966 -0.9322 -0.5670 -0.5018
  133OSM    H4F14421   1.550   5.179   6.914 -0.4237  0.1756  1.0178
  133OSM    H4G14422   1.502   5.029   7.005  1.2898 -0.1732 -1.4042
  133OSM    C5F14423   1.444   5.216   7.091  0.9334  0.0551  0.0174
  133OSM    H5F14424   1.338   5.213   7.125  1.2323 -1.6175  0.9510
  133OSM    H5G14425   1.466   5.315   7.047  1.6974  0.1402  0.5721
  133OSM    C6F14426   1.558   5.196   7.198  0.3273 -0.1708  0.6759
  133OSM    H6F14427   1.596   5.294   7.235  0.8469 -0.2341  0.3147
  133OSM    H6G14428   1.651   5.148   7.160 -0.7926 -1.3286 -0.7229
  133OSM    C7F14429   1.505   5.114   7.321 -0.5380  1.2081 -0.6733
  133OSM    H7F14430   1.451   5.024   7.284  1.4274  0.6697 -2.4557
  133OSM    H7G14431   1.433   5.173   7.380  0.7285 -0.1077  2.4287
  133OSM    C8F14432   1.619   5.091   7.419  0.5775 -0.7356  0.2073
  133OSM    H8F14433   1.704   5.050   7.361  0.8538  0.0171  0.0738
  133OSM    H8G14434   1.602   5.014   7.498  0.7967  0.0490  1.0314
  133OSM    C9F14435   1.656   5.223   7.483  0.0879 -0.5690 -0.0679
  133OSM    H9F14436   1.754   5.251   7.441 -0.3230  0.3265 -0.4566
  133OSM   C10F14437   1.606   5.302   7.586  0.3702  0.1092  0.5657
  133OSM   H10F14438   1.661   5.395   7.604  0.6380  0.1832 -0.5619
  133OSM   C11F14439   1.482   5.266   7.656  0.5934  0.1102 -0.1300
  133OSM   H11F14440   1.486   5.164   7.699 -0.4366  0.2491  0.3443
  133OSM   H11G14441   1.394   5.262   7.589  0.3310 -0.7738  0.2529
  133OSM   C12F14442   1.467   5.362   7.771 -0.0560  0.4632 -0.1333
  133OSM   H12F14443   1.467   5.465   7.730 -1.8591  0.6443  0.2288
  133OSM   H12G14444   1.556   5.354   7.837  0.7257 -0.1355 -1.2343
  133OSM   C13F14445   1.335   5.340   7.846 -0.1746  0.2965 -0.4011
  133OSM   H13F14446   1.265   5.386   7.774 -0.1895  0.1489 -0.4817
  133OSM   H13G14447   1.322   5.396   7.941 -0.4746  0.3762 -0.4903
  133OSM   C14F14448   1.300   5.196   7.877  0.3623  0.4482 -0.8750
  133OSM   H14F14449   1.396   5.140   7.885 -0.3006 -0.4894  1.3316
  133OSM   H14G14450   1.243   5.152   7.792  0.8178  0.1786 -1.0481
  133OSM   C15F14451   1.229   5.179   8.009 -0.5531  0.6700  1.1856
  133OSM   H15F14452   1.138   5.241   8.026 -0.9997 -0.2098  2.1108
  133OSM   H15G14453   1.300   5.208   8.089  0.5908  1.2151  0.0227
  133OSM   C16F14454   1.176   5.035   8.023 -0.3774 -0.7628 -0.0976
  133OSM   H16F14455   1.242   4.959   7.975  0.5944  0.0222 -0.0400
  133OSM   H16G14456   1.081   5.041   7.965 -1.0420 -0.1711  1.0063
  133OSM   C17F14457   1.158   4.989   8.166  0.0697 -0.3936 -0.4343
  133OSM   H17F14458   1.253   5.017   8.215  0.2481 -0.3895 -0.7779
  133OSM   H17G14459   1.153   4.879   8.180  1.0268 -0.1287  2.6266
  133OSM   C18F14460   1.038   5.040   8.245  0.1930  0.7374 -0.6947
  133OSM   H18F14461   1.048   5.150   8.254 -2.1027  1.2440 -3.0454
  133OSM   H18G14462   1.026   4.991   8.344 -0.9486  2.0277 -0.1543
  133OSM   H18H14463   0.951   5.022   8.179  1.5393  0.1874 -2.3985
  134OSM      N14464   3.949   0.724   6.320  0.3145 -0.5611  0.4316
  134OSM    C1514465   4.066   0.659   6.253  0.1209  0.5947  0.2787
  134OSM   H15A14466   4.065   0.553   6.273  0.6612  0.6537  0.6599
  134OSM   H15B14467   4.157   0.706   6.290 -0.5966  0.8704  1.7905
  134OSM   H15C14468   4.054   0.670   6.147 -0.5503  0.1519  0.3032
  134OSM    C1414469   3.893   0.838   6.241  0.8225  0.9825  0.0198
  134OSM   H14A14470   3.851   0.803   6.148 -1.0534  2.0976  0.3963
  134OSM   H14B14471   3.959   0.924   6.231 -0.9998  2.4260 -0.1618
  134OSM   H14C14472   3.809   0.883   6.292  0.1336 -0.9692  0.6776
  134OSM    C1314473   3.844   0.619   6.329 -0.0717  0.9527  0.7953
  134OSM   H13A14474   3.880   0.538   6.389 -1.9603 -0.4676  0.1304
  134OSM   H13B14475   3.811   0.586   6.231  0.2903  1.2401  0.5744
  134OSM   H13C14476   3.763   0.652   6.392  1.2904  1.6329  2.2462
  134OSM    C1214477   4.002   0.771   6.464  0.8559  0.0148  0.3884
  134OSM   H12A14478   4.065   0.696   6.509 -0.4847 -0.8356  0.9064
  134OSM   H12B14479   3.912   0.784   6.522  0.2349 -1.8031 -0.1066
  134OSM    C1114480   4.076   0.911   6.460 -0.0428 -0.7422  0.0161
  134OSM   H11A14481   4.177   0.899   6.414 -0.1624 -2.3883  0.1190
  134OSM   H11B14482   4.112   0.943   6.559  0.4054  0.6015 -0.5648
  134OSM      P14483   3.896   1.098   6.457 -0.2929 -0.0946 -0.0963
  134OSM    O1314484   3.973   1.214   6.512 -0.1570  0.2822 -0.2889
  134OSM    O1414485   3.778   1.119   6.367 -0.1615 -0.1413  0.4898
  134OSM    O1114486   3.845   0.994   6.567  0.1346 -0.0266  0.2729
  134OSM    O1214487   4.018   1.018   6.388  0.0108 -0.0560  0.1414
  134OSM    C1S14488   3.862   1.023   6.704  0.0261  0.3541  0.1487
  134OSM    H1S14489   3.838   1.130   6.723 -1.4587  0.4797 -2.0171
  134OSM    H1T14490   3.967   1.010   6.738 -0.3687 -1.2636  0.8153
  134OSM     NF14491   3.818   0.932   6.922 -0.2111 -0.9702  0.8166
  134OSM    HNF14492   3.888   0.864   6.941 -1.3667 -2.3621  0.2182
  134OSM    C2S14493   3.771   0.929   6.785 -1.0467 -0.2522 -0.2118
  134OSM    H2S14494   3.666   0.963   6.787 -0.8626  0.3136  1.4701
  134OSM    C3S14495   3.770   0.784   6.730 -0.1225 -0.0177  0.7876
  134OSM    H3S14496   3.871   0.744   6.703 -0.5207  0.2391 -1.2470
  134OSM     O314497   3.706   0.784   6.595 -0.0192  0.0221  0.0365
  134OSM    HO314498   3.728   0.871   6.562 -2.1481  0.0076 -1.7253
  134OSM    C4S14499   3.687   0.693   6.821 -0.1655 -0.4592  0.3292
  134OSM    H4S14500   3.577   0.687   6.811 -0.2588 -1.0239  1.5313
  134OSM    C5S14501   3.751   0.609   6.905  0.4460 -0.1393  0.5199
  134OSM    H5S14502   3.858   0.583   6.897 -0.4399 -3.6974 -2.2753
  134OSM    C6S14503   3.676   0.514   6.994 -0.7156  0.2682 -0.0012
  134OSM    H6S14504   3.714   0.411   6.976 -0.7431  0.6856 -2.8849
  134OSM    H6T14505   3.566   0.516   6.975 -0.6609  1.2097 -0.2235
  134OSM    C7S14506   3.712   0.564   7.136  0.8045 -0.9073  0.6914
  134OSM    H7S14507   3.651   0.501   7.204  0.3366  1.8182  3.0226
  134OSM    H7T14508   3.680   0.670   7.148 -2.8137 -1.8399  0.4923
  134OSM    C8S14509   3.861   0.556   7.165  0.0864 -0.0712  0.2680
  134OSM    H8S14510   3.916   0.627   7.099 -0.6848  2.1042  1.8533
  134OSM    H8T14511   3.900   0.454   7.143  3.2237  1.0672  0.1392
  134OSM    C9S14512   3.899   0.593   7.307 -0.0632 -0.1478 -0.0415
  134OSM    H9S14513   3.877   0.700   7.324  0.8050 -0.1797  1.3764
  134OSM    H9T14514   4.009   0.583   7.314  0.0215  1.1040  0.5175
  134OSM   C10S14515   3.823   0.509   7.416 -0.0419 -0.9050 -0.2122
  134OSM   H10S14516   3.824   0.402   7.389 -3.6239 -1.3475  0.8639
  134OSM   H10T14517   3.718   0.543   7.405  0.4039  0.2624 -1.1299
  134OSM   C11S14518   3.879   0.541   7.552 -0.4764 -0.7320  0.5916
  134OSM   H11S14519   3.853   0.649   7.565 -0.8102 -0.6405 -0.7638
  134OSM   H11T14520   3.989   0.527   7.550 -0.6639 -2.2177 -1.1030
  134OSM   C12S14521   3.816   0.444   7.657 -0.0333  0.4700  0.1968
  134OSM   H12S14522   3.847   0.340   7.631 -1.5759  0.2663 -0.9803
  134OSM   H12T14523   3.706   0.448   7.643 -0.1575 -0.9102  0.5822
  134OSM   C13S14524   3.852   0.457   7.811  0.0172  0.4580  0.4710
  134OSM   H13S14525   3.814   0.550   7.858  1.1325  1.8962 -1.3400
  134OSM   H13T14526   3.963   0.453   7.814 -0.0318 -1.3491  0.8232
  134OSM   C14S14527   3.802   0.333   7.889 -0.3182 -0.4651  0.1135
  134OSM   H14S14528   3.890   0.266   7.898  0.7014  0.4667 -2.2379
  134OSM   H14T14529   3.720   0.283   7.833 -0.9227 -1.7151  2.0232
  134OSM   C15S14530   3.742   0.363   8.027  0.1353  0.7785  0.1976
  134OSM   H15S14531   3.636   0.393   8.018 -0.0138 -0.0061 -0.7964
  134OSM   H15T14532   3.792   0.453   8.069 -0.5658  0.8691  0.8530
  134OSM   C16S14533   3.751   0.244   8.111 -0.0971 -0.2104  0.3083
  134OSM   H16S14534   3.851   0.196   8.108  0.8769  1.7819 -1.3629
  134OSM   H16T14535   3.687   0.178   8.048 -0.3150  0.4461 -0.1598
  134OSM   C17S14536   3.696   0.261   8.245  0.4759  0.0392  0.5644
  134OSM   H17S14537   3.609   0.329   8.243 -0.7723 -1.3707  2.9016
  134OSM   H17T14538   3.767   0.317   8.310 -0.1874  0.9274  0.5389
  134OSM   C18S14539   3.669   0.129   8.316 -0.3725 -0.3491  0.5451
  134OSM   H18S14540   3.764   0.072   8.317  0.8781  1.5741 -0.8047
  134OSM   H18T14541   3.588   0.072   8.266 -2.2413  1.4531  1.3397
  134OSM   H18U14542   3.632   0.140   8.421 -1.6309 -1.9543  0.3080
  134OSM    C1F14543   3.793   1.026   7.010  0.5807 -0.2344  0.5736
  134OSM     OF14544   3.709   1.111   6.974 -0.5720 -0.0133 -0.1905
  134OSM    C2F14545   3.861   1.025   7.145  0.2334  0.2054 -0.3914
  134OSM    H2F14546   3.960   1.072   7.127  0.5363 -0.8829 -1.8104
  134OSM    H2G14547   3.884   0.919   7.170 -0.8706  0.1260  0.3850
  134OSM    C3F14548   3.760   1.086   7.243  0.1807 -0.0867  1.1710
  134OSM    H3F14549   3.680   1.012   7.261  1.9013 -1.6936  2.6229
  134OSM    H3G14550   3.711   1.177   7.201  0.2757 -0.7427 -0.4600
  134OSM    C4F14551   3.832   1.131   7.372  0.6305  0.4498  0.3441
  134OSM    H4F14552   3.926   1.183   7.343 -0.1258  0.2380 -2.9005
  134OSM    H4G14553   3.866   1.037   7.422 -0.5899  0.4591  1.2248
  134OSM    C5F14554   3.741   1.199   7.467 -0.0897 -0.0308  0.3019
  134OSM    H5F14555   3.642   1.150   7.469  0.1121 -0.6107 -1.8843
  134OSM    H5G14556   3.723   1.304   7.436  0.8699  0.0650  0.0452
  134OSM    C6F14557   3.799   1.204   7.610  0.1509 -1.0806  0.0664
  134OSM    H6F14558   3.730   1.270   7.667  1.1223 -2.7778  3.5011
  134OSM    H6G14559   3.897   1.256   7.625 -0.3643 -0.9519  4.3118
  134OSM    C7F14560   3.813   1.074   7.686  0.1973 -0.2697 -0.0579
  134OSM    H7F14561   3.901   1.013   7.658 -1.3163 -2.7209  0.2179
  134OSM    H7G14562   3.720   1.017   7.662  1.1285 -2.2325  0.7944
  134OSM    C8F14563   3.800   1.076   7.841 -0.0050  0.0501  0.0780
  134OSM    H8F14564   3.839   0.979   7.877  1.2953  0.9570  1.2332
  134OSM    H8G14565   3.691   1.094   7.854  0.0802  2.3665 -1.7311
  134OSM    C9F14566   3.888   1.187   7.904  0.4610 -0.3396  0.3147
  134OSM    H9F14567   3.863   1.289   7.869  0.1552 -0.1967  0.9250
  134OSM   C10F14568   3.978   1.172   8.005 -0.0099  0.4648  0.6872
  134OSM   H10F14569   4.028   1.265   8.038 -3.5685  2.8197  0.0455
  134OSM   C11F14570   4.015   1.050   8.077 -0.4217 -0.1323  1.1538
  134OSM   H11F14571   4.108   1.077   8.131  0.0334  2.6871 -0.8427
  134OSM   H11G14572   4.037   0.966   8.007 -1.0225 -0.9782  1.9533
  134OSM   C12F14573   3.912   1.005   8.190 -0.4940  0.4158 -0.6740
  134OSM   H12F14574   3.965   0.932   8.256 -1.5956  0.7818  0.6613
  134OSM   H12G14575   3.838   0.951   8.127 -2.4892  1.7334  0.4102
  134OSM   C13F14576   3.861   1.117   8.276 -0.2803 -0.4380 -0.5334
  134OSM   H13F14577   3.773   1.165   8.229  0.4713  0.2346 -1.2719
  134OSM   H13G14578   3.930   1.203   8.288 -1.8740  0.8879 -0.6051
  134OSM   C14F14579   3.825   1.070   8.420 -0.4246  0.6632  0.3992
  134OSM   H14F14580   3.844   1.141   8.504 -1.5383 -0.4047  1.6031
  134OSM   H14G14581   3.914   1.008   8.445  0.2450  1.3951 -0.1142
  134OSM   C15F14582   3.690   0.997   8.437  0.6569 -0.1361  0.2104
  134OSM   H15F14583   3.674   0.947   8.534  1.3606  0.0786  0.4421
  134OSM   H15G14584   3.685   0.921   8.355  3.0684 -0.9314  0.7274
  134OSM   C16F14585   3.562   1.093   8.418 -0.6359  0.2661  0.2849
  134OSM   H16F14586   3.565   1.133   8.314 -0.8382  2.1282  0.9758
  134OSM   H16G14587   3.563   1.175   8.492  0.1945  0.9941 -0.5087
  134OSM   C17F14588   3.436   1.005   8.436  0.7370 -0.3891  0.3878
  134OSM   H17F14589   3.407   1.011   8.543 -0.0556  1.2684  0.1088
  134OSM   H17G14590   3.462   0.901   8.405  2.6058 -0.5627  2.3428
  134OSM   C18F14591   3.313   1.057   8.354 -0.0578 -0.2099  0.1233
  134OSM   H18F14592   3.216   1.004   8.367 -0.1666 -0.0753 -0.1287
  134OSM   H18G14593   3.331   1.068   8.245 -2.3556  1.3222 -0.1750
  134OSM   H18H14594   3.290   1.153   8.406 -2.0076 -2.0824  3.0040
  135OSM      N14595   3.310   1.885   6.424 -0.4729 -0.3304 -0.7666
  135OSM    C1514596   3.458   1.882   6.380 -0.4633  0.3097  0.4390
  135OSM   H15A14597   3.468   1.860   6.275 -1.3469 -0.8518  0.5834
  135OSM   H15B14598   3.503   1.795   6.425  0.6615  0.9635  0.6232
  135OSM   H15C14599   3.510   1.973   6.409  1.8405 -0.8049 -0.0061
  135OSM    C1414600   3.307   1.962   6.551 -0.5053 -0.0208 -1.1393
  135OSM   H14A14601   3.210   1.961   6.599 -0.5546  0.1920 -1.2340
  135OSM   H14B14602   3.343   2.062   6.535 -0.2868 -0.4018 -3.2850
  135OSM   H14C14603   3.374   1.917   6.623  2.5297  1.7995 -2.6562
  135OSM    C1314604   3.236   1.960   6.319 -0.1065  0.4598 -0.3001
  135OSM   H13A14605   3.131   1.933   6.328  0.7963 -3.0177  1.4977
  135OSM   H13B14606   3.271   1.942   6.219  1.4826 -0.1050  0.3225
  135OSM   H13C14607   3.245   2.066   6.336 -1.9289  0.8134 -1.2203
  135OSM    C1214608   3.257   1.747   6.427  0.1307  0.3080 -0.3833
  135OSM   H12A14609   3.283   1.698   6.334  1.9283 -1.3393  0.9050
  135OSM   H12B14610   3.149   1.750   6.429  0.0197 -1.5885 -1.3310
  135OSM    C1114611   3.300   1.648   6.533 -0.2683 -0.5572 -0.3752
  135OSM   H11A14612   3.245   1.556   6.505  1.6225 -0.8218 -3.8300
  135OSM   H11B14613   3.268   1.697   6.627 -0.8988  1.7479 -1.6952
  135OSM      P14614   3.499   1.524   6.420  0.1867  0.0528 -0.1515
  135OSM    O1314615   3.411   1.530   6.297  0.2544 -0.0559 -0.1708
  135OSM    O1414616   3.633   1.577   6.402 -0.4099 -0.4824 -0.4068
  135OSM    O1114617   3.501   1.380   6.488 -0.1719  0.6851 -0.2221
  135OSM    O1214618   3.439   1.623   6.536  0.5241 -0.1943 -0.0267
  135OSM    C1S14619   3.591   1.365   6.599 -0.3883  0.3832 -0.1725
  135OSM    H1S14620   3.675   1.438   6.596 -3.1006  3.8034  0.1230
  135OSM    H1T14621   3.640   1.266   6.594 -2.3210 -0.5798 -1.7645
  135OSM     NF14622   3.630   1.362   6.832 -0.3139 -0.6309 -0.1265
  135OSM    HNF14623   3.626   1.275   6.880 -1.2437 -0.5703 -0.0769
  135OSM    C2S14624   3.529   1.370   6.737 -0.1279  0.1656  0.1438
  135OSM    H2S14625   3.480   1.469   6.746 -2.4607 -0.7310 -1.6964
  135OSM    C3S14626   3.426   1.259   6.742  0.6504  0.8335  0.4179
  135OSM    H3S14627   3.465   1.162   6.703 -0.0257  0.7157  0.0220
  135OSM     O314628   3.310   1.279   6.659  0.3477  0.0427 -0.2404
  135OSM    HO314629   3.332   1.353   6.602 -2.2628  0.6954 -0.5345
  135OSM    C4S14630   3.395   1.234   6.891  0.0846  0.5188 -0.2107
  135OSM    H4S14631   3.466   1.163   6.935 -0.8850 -0.3589 -0.0342
  135OSM    C5S14632   3.295   1.288   6.965  0.3768 -0.0285  0.4308
  135OSM    H5S14633   3.217   1.355   6.925 -0.2221 -0.1424  1.3698
  135OSM    C6S14634   3.274   1.258   7.110  0.4225  0.6057 -0.3484
  135OSM    H6S14635   3.265   1.150   7.134 -1.9147  0.9242  0.5418
  135OSM    H6T14636   3.172   1.293   7.139 -0.3442  0.2575 -2.4804
  135OSM    C7S14637   3.373   1.325   7.210  0.0707  0.3863  0.9103
  135OSM    H7S14638   3.341   1.430   7.228 -0.9317 -0.0345  1.6340
  135OSM    H7T14639   3.479   1.322   7.175 -1.0627  1.6337 -3.0536
  135OSM    C8S14640   3.368   1.248   7.348  0.3077  0.3715 -0.2397
  135OSM    H8S14641   3.430   1.156   7.348 -0.3035 -0.0456 -0.6298
  135OSM    H8T14642   3.264   1.212   7.364  0.3658 -0.1457 -0.9666
  135OSM    C9S14643   3.399   1.338   7.473  0.4241 -0.3176 -0.0535
  135OSM    H9S14644   3.332   1.426   7.482  0.0193 -0.4629 -1.5059
  135OSM    H9T14645   3.506   1.369   7.479  0.4349 -0.4358  0.4643
  135OSM   C10S14646   3.380   1.256   7.601  0.2258 -0.2753 -0.7615
  135OSM   H10S14647   3.437   1.162   7.588  0.9853 -0.1910  1.6157
  135OSM   H10T14648   3.274   1.228   7.618 -0.5585  0.5762 -3.5423
  135OSM   C11S14649   3.413   1.328   7.744  0.1164 -0.5477 -0.1729
  135OSM   H11S14650   3.352   1.419   7.758 -1.9446 -2.0144  0.8696
  135OSM   H11T14651   3.522   1.350   7.747  0.0349 -0.0118 -0.9665
  135OSM   C12S14652   3.385   1.244   7.870  0.0789 -0.1171 -0.7230
  135OSM   H12S14653   3.455   1.158   7.877 -0.4817 -0.4631  1.0052
  135OSM   H12T14654   3.280   1.211   7.861 -0.4932  1.6671 -1.0025
  135OSM   C13S14655   3.397   1.322   8.008  0.0590 -0.7194 -0.0961
  135OSM   H13S14656   3.370   1.262   8.098  0.2908 -2.0403 -0.8900
  135OSM   H13T14657   3.325   1.406   8.015  2.4311  1.3957  0.3732
  135OSM   C14S14658   3.535   1.392   8.015  0.2245 -0.8455  0.3147
  135OSM   H14S14659   3.559   1.465   7.935  0.7610 -1.3878 -0.0250
  135OSM   H14T14660   3.604   1.307   7.997  3.6951  1.8783 -0.3877
  135OSM   C15S14661   3.555   1.462   8.147 -0.1576  0.0476 -0.0280
  135OSM   H15S14662   3.661   1.496   8.148 -0.0489  0.5605 -4.7906
  135OSM   H15T14663   3.547   1.394   8.235  0.6838 -0.2828 -0.1950
  135OSM   C16S14664   3.471   1.589   8.165 -0.1131  0.0358 -0.3497
  135OSM   H16S14665   3.365   1.555   8.162 -0.2089  0.2118  0.7389
  135OSM   H16T14666   3.495   1.650   8.075 -4.3414  1.2514 -0.8744
  135OSM   C17S14667   3.488   1.662   8.298  0.4144 -0.1741 -0.2990
  135OSM   H17S14668   3.468   1.584   8.375  0.3751 -0.1439 -0.2790
  135OSM   H17T14669   3.416   1.746   8.306  1.6038  0.7441  1.3475
  135OSM   C18S14670   3.631   1.729   8.317 -0.1563 -0.0249 -0.4281
  135OSM   H18S14671   3.709   1.653   8.338  2.5970  2.7812  0.2989
  135OSM   H18T14672   3.627   1.790   8.409 -0.8820 -0.8094  0.0742
  135OSM   H18U14673   3.672   1.783   8.229 -2.6550 -1.2916 -2.5206
  135OSM    C1F14674   3.714   1.459   6.856  0.4634 -0.5946  0.0841
  135OSM     OF14675   3.711   1.557   6.786 -0.3037  0.2897  0.2672
  135OSM    C2F14676   3.795   1.452   6.987  0.3446 -0.4182  0.5648
  135OSM    H2F14677   3.880   1.521   6.968 -1.2998  1.1885 -1.4807
  135OSM    H2G14678   3.827   1.347   7.005 -2.7906 -1.2939  1.7702
  135OSM    C3F14679   3.721   1.502   7.117 -0.1788 -0.9757  0.9164
  135OSM    H3F14680   3.639   1.435   7.149 -1.0534 -0.6675 -0.5707
  135OSM    H3G14681   3.686   1.607   7.105  1.7032 -0.4872 -0.9791
  135OSM    C4F14682   3.823   1.507   7.230 -0.5511  0.3757 -0.4182
  135OSM    H4F14683   3.917   1.558   7.202 -0.3314  0.2518  0.0897
  135OSM    H4G14684   3.849   1.404   7.261 -2.6339 -0.3002 -0.7086
  135OSM    C5F14685   3.765   1.574   7.352  0.3210  0.3895 -0.2700
  135OSM    H5F14686   3.684   1.511   7.396  0.3876  1.6272  1.7635
  135OSM    H5G14687   3.722   1.673   7.326 -1.7772 -0.8628 -1.9310
  135OSM    C6F14688   3.871   1.601   7.459 -0.0135 -0.0870  0.2602
  135OSM    H6F14689   3.935   1.680   7.414 -1.2330  0.5258 -0.4698
  135OSM    H6G14690   3.943   1.519   7.479 -0.8864 -0.6472  1.1757
  135OSM    C7F14691   3.809   1.638   7.597 -0.3802 -0.5559  0.7118
  135OSM    H7F14692   3.762   1.542   7.627 -0.3538 -0.8222 -0.0668
  135OSM    H7G14693   3.732   1.715   7.580  0.5102 -0.0679 -1.4285
  135OSM    C8F14694   3.915   1.690   7.697 -0.0595  0.2476 -0.3445
  135OSM    H8F14695   3.983   1.768   7.657  1.6375 -1.0956 -0.2341
  135OSM    H8G14696   3.966   1.594   7.721 -2.4050 -0.9313  0.2436
  135OSM    C9F14697   3.848   1.743   7.829 -0.2588 -0.1877  0.6601
  135OSM    H9F14698   3.803   1.842   7.815 -1.6567 -1.0920 -2.1965
  135OSM   C10F14699   3.840   1.690   7.952 -0.7260  0.6271 -0.0577
  135OSM   H10F14700   3.783   1.754   8.022  0.7496  1.5842  0.3149
  135OSM   C11F14701   3.905   1.559   7.995 -0.1979 -0.5710 -0.7171
  135OSM   H11F14702   3.953   1.512   7.906 -1.2492  0.0937 -1.6594
  135OSM   H11G14703   3.834   1.489   8.044  2.3528 -1.6947  1.5933
  135OSM   C12F14704   4.012   1.565   8.104  0.3030 -0.1444 -0.8855
  135OSM   H12F14705   4.050   1.465   8.134  1.2282  0.1140 -1.1519
  135OSM   H12G14706   3.979   1.611   8.200  0.1631  0.5462 -1.2596
  135OSM   C13F14707   4.141   1.641   8.063 -0.0824 -0.2613  0.2416
  135OSM   H13F14708   4.124   1.750   8.075  0.7039 -0.0218 -0.7057
  135OSM   H13G14709   4.170   1.636   7.956  1.7188 -1.0476  0.7288
  135OSM   C14F14710   4.273   1.613   8.144 -0.1688 -0.7998 -0.0530
  135OSM   H14F14711   4.365   1.626   8.083 -0.9197 -0.1017 -1.0534
  135OSM   H14G14712   4.273   1.507   8.177  0.1564 -0.4575  1.0996
  135OSM   C15F14713   4.282   1.708   8.266  0.3032 -0.4799 -0.4945
  135OSM   H15F14714   4.187   1.710   8.323  0.3390  2.3762 -0.3724
  135OSM   H15G14715   4.292   1.813   8.232  0.1520  0.2358  1.5355
  135OSM   C16F14716   4.399   1.680   8.366  0.0198  0.1771  0.0235
  135OSM   H16F14717   4.499   1.697   8.322  0.7884 -0.9677  1.2561
  135OSM   H16G14718   4.396   1.574   8.398  3.0832  0.1356  0.4311
  135OSM   C17F14719   4.381   1.768   8.491  0.3575 -0.5002  0.3640
  135OSM   H17F14720   4.279   1.748   8.531  0.6165  1.6616  2.3220
  135OSM   H17G14721   4.384   1.871   8.450 -0.8345 -0.8032 -0.5542
  135OSM   C18F14722   4.494   1.746   8.586 -0.0330  0.1935 -0.4178
  135OSM   H18F14723   4.593   1.771   8.544  0.5748 -0.7857  0.3966
  135OSM   H18G14724   4.496   1.641   8.622 -0.7873 -0.3237 -1.8211
  135OSM   H18H14725   4.471   1.801   8.680  3.5302 -0.6301  1.0714
  136OSM      N14726   6.221   3.705   5.747  0.3309 -0.0572 -0.2972
  136OSM    C1514727   6.110   3.810   5.772  0.0189  0.5178 -0.2777
  136OSM   H15A14728   6.061   3.824   5.676 -1.0042  0.5307  0.2314
  136OSM   H15B14729   6.157   3.900   5.809  0.8840  0.0041 -0.1031
  136OSM   H15C14730   6.037   3.770   5.841 -1.3746  0.7351 -1.5710
  136OSM    C1414731   6.166   3.596   5.660  0.0321  0.6658 -0.1613
  136OSM   H14A14732   6.242   3.520   5.658 -1.1356 -0.5735 -3.1065
  136OSM   H14B14733   6.149   3.633   5.560 -2.5412  3.0475  0.9940
  136OSM   H14C14734   6.076   3.565   5.711 -1.0121  0.5185 -2.0066
  136OSM    C1314735   6.339   3.775   5.673  0.9231 -0.0501 -0.1206
  136OSM   H13A14736   6.309   3.806   5.574 -1.7638 -1.1284  0.2653
  136OSM   H13B14737   6.420   3.706   5.659  0.3165 -0.6276 -0.8552
  136OSM   H13C14738   6.377   3.859   5.729  1.3696  1.0855 -2.0282
  136OSM    C1214739   6.262   3.645   5.884  0.5736  0.0970 -0.0952
  136OSM   H12A14740   6.324   3.558   5.862 -1.9836 -1.5514 -1.2131
  136OSM   H12B14741   6.174   3.599   5.926  1.9916 -1.4337  1.3773
  136OSM    C1114742   6.342   3.727   5.980  0.2033  0.1480 -0.2268
  136OSM   H11A14743   6.333   3.680   6.080  0.0041  3.3050  1.3708
  136OSM   H11B14744   6.295   3.825   6.001 -0.2213 -0.3393  1.1705
  136OSM      P14745   6.591   3.636   5.955  0.1716  0.4877 -0.4534
  136OSM    O1314746   6.525   3.511   5.916  0.1525 -0.1660 -0.4475
  136OSM    O1414747   6.704   3.691   5.880  0.3498 -0.2736  0.2554
  136OSM    O1114748   6.630   3.631   6.106 -0.1309 -0.4314 -0.0150
  136OSM    O1214749   6.478   3.737   5.945  0.3058  0.1260  0.0844
  136OSM    C1S14750   6.657   3.738   6.201  0.6307  0.5430 -0.2082
  136OSM    H1S14751   6.620   3.836   6.164  0.1293  0.5558  0.3120
  136OSM    H1T14752   6.764   3.734   6.231  0.4105  3.7049  1.3349
  136OSM     NF14753   6.605   3.825   6.416 -0.1969  0.2556  0.1224
  136OSM    HNF14754   6.667   3.799   6.490 -1.5419 -1.7892  0.6301
  136OSM    C2S14755   6.573   3.714   6.330  0.3260 -0.3317 -1.3042
  136OSM    H2S14756   6.472   3.726   6.285  0.8995  0.3861 -2.4706
  136OSM    C3S14757   6.590   3.573   6.388  0.0647  0.5247 -0.1420
  136OSM    H3S14758   6.697   3.564   6.415 -0.1938 -0.1496  0.7239
  136OSM     O314759   6.564   3.470   6.298  1.1074 -0.1515  0.3194
  136OSM    HO314760   6.580   3.514   6.214  1.4050 -1.9023 -0.5924
  136OSM    C4S14761   6.512   3.556   6.512  0.6613  0.1870  0.7187
  136OSM    H4S14762   6.404   3.553   6.490  1.2031  0.3655 -2.3893
  136OSM    C5S14763   6.557   3.520   6.629 -0.4496  0.0644 -0.2495
  136OSM    H5S14764   6.662   3.490   6.642 -0.4314  0.3814  0.3391
  136OSM    C6S14765   6.474   3.509   6.749 -0.4971  0.5319 -0.5194
  136OSM    H6S14766   6.399   3.429   6.732 -0.2931  0.0996  0.5429
  136OSM    H6T14767   6.409   3.599   6.757 -0.9974  0.2806 -1.6819
  136OSM    C7S14768   6.541   3.474   6.887 -0.9344  0.0313  0.2644
  136OSM    H7S14769   6.620   3.550   6.905 -0.7390  0.1190 -0.8480
  136OSM    H7T14770   6.576   3.369   6.890 -1.6545 -0.1905  1.7151
  136OSM    C8S14771   6.444   3.468   7.010 -0.5640 -0.2170  0.9802
  136OSM    H8S14772   6.362   3.407   6.968  2.3291 -3.0926 -1.0159
  136OSM    H8T14773   6.401   3.568   7.029  0.8267  0.3357  1.3641
  136OSM    C9S14774   6.505   3.399   7.130 -0.0803 -0.0375  0.3547
  136OSM    H9S14775   6.588   3.467   7.163  2.2398 -2.7564  0.5262
  136OSM    H9T14776   6.553   3.304   7.099  0.4463  0.4293 -0.3009
  136OSM   C10S14777   6.393   3.384   7.238 -0.6058  0.0574 -0.3121
  136OSM   H10S14778   6.318   3.313   7.196  1.6993 -1.3402 -2.3759
  136OSM   H10T14779   6.336   3.476   7.259  0.8247  1.3086 -1.6355
  136OSM   C11S14780   6.461   3.328   7.364 -0.2270  0.1379 -0.4166
  136OSM   H11S14781   6.537   3.396   7.407 -0.1558  0.9890 -1.8393
  136OSM   H11T14782   6.515   3.237   7.330  0.3906 -0.9268  3.0293
  136OSM   C12S14783   6.357   3.303   7.471 -0.4273  0.0673  0.1074
  136OSM   H12S14784   6.276   3.236   7.433 -0.2364  1.4821 -3.1755
  136OSM   H12T14785   6.308   3.396   7.506 -1.3091 -0.3304 -0.0261
  136OSM   C13S14786   6.422   3.231   7.600  0.8339  0.1638  0.6439
  136OSM   H13S14787   6.494   3.309   7.634  0.5548  1.6938 -1.9936
  136OSM   H13T14788   6.470   3.140   7.557  1.5382  1.1955 -0.8393
  136OSM   C14S14789   6.315   3.200   7.698 -0.6888 -0.8025 -0.0463
  136OSM   H14S14790   6.241   3.134   7.649 -0.6045 -0.0558 -1.2082
  136OSM   H14T14791   6.268   3.298   7.720 -0.5922 -0.0706 -2.7128
  136OSM   C15S14792   6.366   3.113   7.817  0.6188 -0.0706  0.1826
  136OSM   H15S14793   6.431   3.165   7.890 -2.1234 -1.4946  3.9446
  136OSM   H15T14794   6.427   3.026   7.785  1.4632  0.2176  0.9777
  136OSM   C16S14795   6.250   3.050   7.890 -0.4447 -0.6771 -0.0795
  136OSM   H16S14796   6.193   2.991   7.815 -0.8180 -1.2970  0.6828
  136OSM   H16T14797   6.177   3.130   7.915  0.1660  0.6898 -2.3429
  136OSM   C17S14798   6.280   2.963   8.011  0.8156 -0.5077  0.4630
  136OSM   H17S14799   6.343   3.026   8.077 -0.2168 -0.2713  1.2523
  136OSM   H17T14800   6.336   2.875   7.972  1.0512  0.8233 -2.5178
  136OSM   C18S14801   6.157   2.925   8.087  0.3614  0.1412  0.2514
  136OSM   H18S14802   6.183   2.838   8.151 -0.9177 -2.0308 -1.9957
  136OSM   H18T14803   6.086   2.872   8.020 -1.0955  0.7261  1.2947
  136OSM   H18U14804   6.103   3.005   8.140  1.2929 -0.2013  1.7634
  136OSM    C1F14805   6.569   3.948   6.400  0.2724 -0.2737  0.4422
  136OSM     OF14806   6.508   3.992   6.300  0.5205 -0.4768  0.0827
  136OSM    C2F14807   6.618   4.047   6.502 -0.2019 -0.5526 -0.1155
  136OSM    H2F14808   6.680   3.999   6.580 -1.2237 -1.1303  0.3686
  136OSM    H2G14809   6.526   4.090   6.547 -0.8440  1.3943 -2.9463
  136OSM    C3F14810   6.688   4.169   6.441 -0.0292  0.3279  0.2626
  136OSM    H3F14811   6.619   4.223   6.373 -1.7355 -1.1845  0.7207
  136OSM    H3G14812   6.778   4.139   6.382 -0.7138 -3.3982  0.8849
  136OSM    C4F14813   6.732   4.263   6.546 -0.6648 -0.7781 -0.6061
  136OSM    H4F14814   6.651   4.315   6.602  0.8271 -0.2004  1.1243
  136OSM    H4G14815   6.800   4.336   6.496 -0.8808 -2.2029 -3.1473
  136OSM    C5F14816   6.812   4.204   6.661 -0.7114 -0.4753 -0.0982
  136OSM    H5F14817   6.749   4.134   6.720 -1.9744 -0.0640 -0.9102
  136OSM    H5G14818   6.845   4.292   6.721 -2.0429 -0.4834  0.6906
  136OSM    C6F14819   6.947   4.131   6.617 -0.0639 -0.0700  0.4395
  136OSM    H6F14820   6.994   4.194   6.539  0.3195 -0.0012  0.7231
  136OSM    H6G14821   6.930   4.039   6.558  2.3396  0.3310 -1.0157
  136OSM    C7F14822   7.046   4.109   6.733  0.0541  0.8996  0.4564
  136OSM    H7F14823   7.080   4.206   6.775 -0.3817  1.3106 -0.1261
  136OSM    H7G14824   7.123   4.050   6.679 -1.0291  0.3419 -0.5337
  136OSM    C8F14825   6.994   4.022   6.855 -0.3468 -0.0101  0.1707
  136OSM    H8F14826   6.988   3.920   6.811  2.7186  0.4589 -1.5441
  136OSM    H8G14827   6.892   4.056   6.883 -0.2024  0.6973 -0.1547
  136OSM    C9F14828   7.069   4.016   6.985 -0.5379 -0.0176 -0.0125
  136OSM    H9F14829   7.132   3.927   6.999  1.8815  1.1572 -2.3799
  136OSM   C10F14830   7.063   4.113   7.082 -0.2940  0.5274 -0.2779
  136OSM   H10F14831   7.137   4.121   7.163 -0.6916  2.5304 -0.0443
  136OSM   C11F14832   6.976   4.237   7.071  0.4367  0.4351 -0.3880
  136OSM   H11F14833   6.915   4.243   6.979 -1.3662 -1.5096  0.5973
  136OSM   H11G14834   7.039   4.329   7.070  0.7920  0.2305  0.8265
  136OSM   C12F14835   6.873   4.241   7.185  0.0016  0.6636 -0.0837
  136OSM   H12F14836   6.821   4.143   7.189  3.0780 -1.0507  1.2057
  136OSM   H12G14837   6.809   4.331   7.171  1.3995  1.9082  1.0719
  136OSM   C13F14838   6.931   4.269   7.326 -0.5147  0.0847  0.1413
  136OSM   H13F14839   6.958   4.376   7.336 -0.2870  0.0919 -0.4935
  136OSM   H13G14840   7.026   4.212   7.340  0.0410  1.5456  3.1478
  136OSM   C14F14841   6.843   4.230   7.450 -1.2824 -0.9440  0.5810
  136OSM   H14F14842   6.841   4.119   7.453  2.0287 -1.1765 -0.7331
  136OSM   H14G14843   6.738   4.265   7.441 -0.6907  0.4026 -2.2099
  136OSM   C15F14844   6.905   4.291   7.572 -0.3751 -0.9981 -0.5673
  136OSM   H15F14845   6.896   4.401   7.583  0.6460 -0.9157 -0.4860
  136OSM   H15G14846   7.016   4.284   7.568 -0.2250  0.8258 -0.3776
  136OSM   C16F14847   6.867   4.226   7.710  0.1289  0.5923  0.0827
  136OSM   H16F14848   6.875   4.115   7.712 -1.6620  0.4065  2.2864
  136OSM   H16G14849   6.758   4.246   7.719  0.3368  1.3594  1.1114
  136OSM   C17F14850   6.955   4.293   7.820  0.2260  0.0497 -0.0283
  136OSM   H17F14851   6.946   4.404   7.822  3.3762  0.3970 -0.3378
  136OSM   H17G14852   7.062   4.284   7.791  1.0537  1.7198  2.2224
  136OSM   C18F14853   6.944   4.224   7.960  0.9408 -0.5857  0.2368
  136OSM   H18F14854   6.838   4.218   7.991  1.0000 -0.1504  0.5379
  136OSM   H18G14855   7.000   4.291   8.029 -0.2689  0.0409  0.6482
  136OSM   H18H14856   6.994   4.126   7.974 -0.4566 -1.4840 -0.7569
  137OSM      N14857   3.704   6.702   6.690 -0.6631  0.4099 -0.2223
  137OSM    C1514858   3.642   6.627   6.572 -0.0260  0.3903 -0.1693
  137OSM   H15A14859   3.558   6.565   6.599  1.0072 -0.9418  0.0612
  137OSM   H15B14860   3.714   6.555   6.536  0.9669 -0.9020  3.8344
  137OSM   H15C14861   3.607   6.695   6.496 -1.8721 -0.2750  0.0304
  137OSM    C1414862   3.598   6.796   6.732  0.7804 -0.0162 -0.2281
  137OSM   H14A14863   3.510   6.743   6.763  1.1498 -1.1866 -1.1004
  137OSM   H14B14864   3.570   6.852   6.644 -0.3549  0.0697  0.1748
  137OSM   H14C14865   3.631   6.848   6.820  2.3836 -1.3941  0.0349
  137OSM    C1314866   3.736   6.601   6.798 -0.1685  0.0582 -0.3733
  137OSM   H13A14867   3.650   6.539   6.818 -0.2915  0.2770 -0.2187
  137OSM   H13B14868   3.763   6.649   6.891  0.6823  2.0713 -1.5899
  137OSM   H13C14869   3.815   6.535   6.767  1.3145  0.1191  2.9114
  137OSM    C1214870   3.829   6.778   6.652  0.6782  0.6280 -0.0508
  137OSM   H12A14871   3.907   6.703   6.647 -1.5925 -1.8342 -0.7867
  137OSM   H12B14872   3.836   6.850   6.732 -1.4782 -0.4546  1.1987
  137OSM    C1114873   3.837   6.863   6.521 -0.0324 -0.1630 -0.0807
  137OSM   H11A14874   3.800   6.800   6.437 -1.6113 -1.6374  1.6074
  137OSM   H11B14875   3.941   6.891   6.493  0.2331  1.2255  2.1049
  137OSM      P14876   3.807   7.124   6.569  0.1656  0.2226 -0.1428
  137OSM    O1314877   3.920   7.156   6.481 -1.2311 -0.7833 -0.1892
  137OSM    O1414878   3.693   7.216   6.570 -0.2341  0.3083  0.7884
  137OSM    O1114879   3.848   7.091   6.722 -0.4158 -0.3446 -0.5150
  137OSM    O1214880   3.752   6.983   6.532 -0.7654 -0.0353  0.3890
  137OSM    C1S14881   3.985   7.088   6.760  0.2117  0.1246 -0.7076
  137OSM    H1S14882   4.045   7.168   6.711 -0.9023  0.8069 -0.9995
  137OSM    H1T14883   4.032   6.989   6.741  0.5473  0.2413 -0.4915
  137OSM     NF14884   4.136   7.157   6.931  0.0592  0.8542  0.0879
  137OSM    HNF14885   4.188   7.084   6.976  0.3506  0.7899 -0.3469
  137OSM    C2S14886   4.001   7.114   6.912  0.1029  0.7117 -0.5771
  137OSM    H2S14887   3.944   7.205   6.941 -0.4642  1.0775 -2.6499
  137OSM    C3S14888   3.957   6.991   6.991  0.6561 -1.2321  0.2618
  137OSM    H3S14889   4.019   6.902   6.966  1.4976 -1.2716  2.3176
  137OSM     O314890   3.822   6.950   6.959 -0.6189  0.2110 -0.0111
  137OSM    HO314891   3.805   6.990   6.873  0.7236  0.1090 -0.3424
  137OSM    C4S14892   3.958   7.015   7.139 -0.1319  0.2826 -0.2575
  137OSM    H4S14893   3.864   7.063   7.172  0.5450  1.0675  0.5669
  137OSM    C5S14894   4.057   6.976   7.224 -0.5018 -0.1875 -0.4427
  137OSM    H5S14895   4.146   6.932   7.177 -0.4751  0.6844 -1.2313
  137OSM    C6S14896   4.043   6.988   7.379 -0.4043 -0.1550 -0.0225
  137OSM    H6S14897   4.069   6.893   7.431 -1.2496  1.0302  2.7210
  137OSM    H6T14898   3.942   7.026   7.406 -0.7681 -0.9123 -0.2783
  137OSM    C7S14899   4.168   7.075   7.432  0.6057  0.3423 -0.4508
  137OSM    H7S14900   4.141   7.180   7.408 -1.7115  0.8943  3.7151
  137OSM    H7T14901   4.257   7.050   7.370  2.0208 -0.8357  1.9200
  137OSM    C8S14902   4.186   7.048   7.587 -0.2090  0.3884  0.4272
  137OSM    H8S14903   4.241   6.953   7.606 -0.9348 -0.8742 -3.0086
  137OSM    H8T14904   4.085   7.043   7.632 -0.3757  1.9917  0.2941
  137OSM    C9S14905   4.263   7.164   7.654  0.1679 -0.3795  0.5248
  137OSM    H9S14906   4.205   7.257   7.674  1.3061  0.3695  0.4864
  137OSM    H9T14907   4.340   7.207   7.586 -0.5880  0.2769  0.0816
  137OSM   C10S14908   4.307   7.123   7.797  0.0084  0.0819  0.0496
  137OSM   H10S14909   4.369   7.030   7.796 -0.8948 -0.5596  1.5427
  137OSM   H10T14910   4.214   7.092   7.848  0.0197 -1.1492 -0.6327
  137OSM   C11S14911   4.385   7.232   7.868 -0.7715 -0.1885 -0.4751
  137OSM   H11S14912   4.336   7.332   7.872  1.0675  0.7257  0.8242
  137OSM   H11T14913   4.479   7.238   7.810  1.4332  0.6220  2.8708
  137OSM   C12S14914   4.422   7.203   8.013  1.1875  1.0424 -0.5133
  137OSM   H12S14915   4.329   7.168   8.063  1.3125  0.6305 -0.5675
  137OSM   H12T14916   4.458   7.294   8.065 -1.7171  1.4239  0.9839
  137OSM   C13S14917   4.521   7.083   8.035  0.1680  0.0358  0.7341
  137OSM   H13S14918   4.617   7.120   7.993  0.3063 -0.8408  0.2557
  137OSM   H13T14919   4.487   6.994   7.978 -0.6635  1.2186 -0.6948
  137OSM   C14S14920   4.543   7.034   8.179  0.2419  0.1161 -1.0489
  137OSM   H14S14921   4.572   7.115   8.249  0.1303 -0.9366  0.2504
  137OSM   H14T14922   4.634   6.969   8.171  0.9512  1.1460 -1.5873
  137OSM   C15S14923   4.424   6.965   8.242  0.9673 -0.9134  0.4282
  137OSM   H15S14924   4.410   6.874   8.179  1.2185  0.4264 -1.6611
  137OSM   H15T14925   4.334   7.028   8.260  1.2285 -0.5002  0.3023
  137OSM   C16S14926   4.463   6.900   8.377 -0.0324 -0.2384  0.4454
  137OSM   H16S14927   4.476   6.981   8.453 -0.8701 -1.6876  2.1902
  137OSM   H16T14928   4.558   6.844   8.365  1.2576  1.4985  2.0344
  137OSM   C17S14929   4.344   6.809   8.425 -0.5408 -0.6982 -0.7133
  137OSM   H17S14930   4.383   6.762   8.518  0.4064 -2.7174 -2.0624
  137OSM   H17T14931   4.322   6.727   8.353 -0.7346 -0.9008 -0.4218
  137OSM   C18S14932   4.210   6.880   8.461  0.3778 -0.2941  0.5664
  137OSM   H18S14933   4.128   6.810   8.487 -0.5212 -0.7036 -2.9035
  137OSM   H18T14934   4.159   6.927   8.374 -5.0313 -2.8191  1.9517
  137OSM   H18U14935   4.213   6.956   8.542 -0.2421  0.4993 -0.1292
  137OSM    C1F14936   4.177   7.282   6.894  0.0667 -0.3415 -0.0388
  137OSM     OF14937   4.095   7.372   6.873 -0.3267 -0.0793  0.8957
  137OSM    C2F14938   4.323   7.298   6.881 -0.5907  0.1991  0.0376
  137OSM    H2F14939   4.340   7.324   6.775 -0.7512 -1.9368 -0.5566
  137OSM    H2G14940   4.377   7.204   6.907 -0.4399  0.2503 -0.0931
  137OSM    C3F14941   4.376   7.405   6.979  0.2093 -0.0215  0.1029
  137OSM    H3F14942   4.322   7.499   6.957  0.6196  0.6752  1.8800
  137OSM    H3G14943   4.485   7.411   6.955  0.5240 -0.8206  1.2187
  137OSM    C4F14944   4.362   7.361   7.126  0.4086  0.3125  0.3946
  137OSM    H4F14945   4.436   7.282   7.148  0.7489  0.5994  0.3052
  137OSM    H4G14946   4.263   7.310   7.134  0.8954 -0.3450  3.3286
  137OSM    C5F14947   4.378   7.481   7.219  0.4107  0.4463 -0.5951
  137OSM    H5F14948   4.293   7.552   7.206 -1.3363 -1.0674  1.6526
  137OSM    H5G14949   4.479   7.524   7.202  0.0898  1.3689 -0.2431
  137OSM    C6F14950   4.366   7.439   7.365 -0.3157 -0.4959  0.0792
  137OSM    H6F14951   4.401   7.334   7.374 -0.1193 -0.5836 -1.4703
  137OSM    H6G14952   4.257   7.441   7.383 -0.8708 -0.6533 -2.7688
  137OSM    C7F14953   4.444   7.524   7.471  0.1887  0.0522 -0.2830
  137OSM    H7F14954   4.551   7.526   7.444  0.0377  1.3892 -0.8534
  137OSM    H7G14955   4.443   7.470   7.569 -0.1478 -1.1591 -0.9318
  137OSM    C8F14956   4.386   7.667   7.495  0.0800 -0.4857  0.1241
  137OSM    H8F14957   4.408   7.738   7.412  0.9021 -1.0498 -0.1530
  137OSM    H8G14958   4.436   7.714   7.583 -0.3338 -0.5359  0.3894
  137OSM    C9F14959   4.235   7.683   7.506 -1.0038  0.5717  0.2950
  137OSM    H9F14960   4.185   7.750   7.435 -1.2703 -0.1726 -0.2309
  137OSM   C10F14961   4.162   7.652   7.613  0.1508 -0.2232 -0.1327
  137OSM   H10F14962   4.057   7.685   7.613  0.7561  1.9129 -1.5808
  137OSM   C11F14963   4.216   7.592   7.741 -0.2650 -0.8808 -0.1910
  137OSM   H11F14964   4.272   7.675   7.790 -3.2369  1.9401 -1.2127
  137OSM   H11G14965   4.279   7.506   7.713 -0.7336 -1.1511 -0.4303
  137OSM   C12F14966   4.105   7.547   7.839  0.7414  0.2144 -0.1487
  137OSM   H12F14967   4.053   7.455   7.804 -0.2674  0.3094  1.0406
  137OSM   H12G14968   4.025   7.624   7.853 -2.3030 -2.0896 -3.1645
  137OSM   C13F14969   4.161   7.526   7.984  1.0440  0.4337 -0.6342
  137OSM   H13F14970   4.193   7.625   8.024 -0.7482  0.3143  1.2314
  137OSM   H13G14971   4.251   7.461   7.982  1.9660  1.4775  1.9118
  137OSM   C14F14972   4.060   7.468   8.081 -0.1797  0.2243 -0.1276
  137OSM   H14F14973   3.997   7.397   8.023  0.5276 -0.4167 -0.1162
  137OSM   H14G14974   3.980   7.542   8.105 -0.3587  0.1171 -0.3857
  137OSM   C15F14975   4.118   7.402   8.205  0.0911 -0.0432 -0.3567
  137OSM   H15F14976   4.149   7.471   8.285  2.4568  0.5764 -1.7158
  137OSM   H15G14977   4.213   7.352   8.177 -0.4252 -1.0871 -0.2984
  137OSM   C16F14978   4.022   7.303   8.279 -0.1584  0.6666  0.4997
  137OSM   H16F14979   4.040   7.215   8.213  0.4601  2.0825 -1.3226
  137OSM   H16G14980   3.916   7.331   8.261 -0.5024 -1.3567 -0.9457
  137OSM   C17F14981   4.050   7.282   8.433 -0.0515  0.9422  0.0202
  137OSM   H17F14982   3.975   7.219   8.485 -2.0147  1.8033 -1.6106
  137OSM   H17G14983   4.030   7.384   8.473  0.6423  0.7528  0.8674
  137OSM   C18F14984   4.199   7.252   8.462 -0.2382  0.3328  0.1679
  137OSM   H18F14985   4.206   7.189   8.553 -1.0519 -0.4485 -0.2882
  137OSM   H18G14986   4.259   7.345   8.472 -0.2917  0.6277 -1.8311
  137OSM   H18H14987   4.238   7.197   8.373 -2.5378  0.7094 -1.1489
  138OSM      N14988   1.723   3.954   5.699  0.4531  0.3288 -0.1317
  138OSM    C1514989   1.768   4.098   5.699  0.6041  0.5928  0.1387
  138OSM   H15A14990   1.693   4.147   5.639 -1.6295 -2.2959  0.3122
  138OSM   H15B14991   1.869   4.115   5.667  1.4208 -1.1857  1.6173
  138OSM   H15C14992   1.769   4.137   5.800  0.8831 -1.9579  1.2036
  138OSM    C1414993   1.578   3.940   5.719  0.6782  0.0121  0.5800
  138OSM   H14A14994   1.538   3.983   5.810 -0.7300 -0.1689  0.0749
  138OSM   H14B14995   1.553   3.835   5.718 -1.2888  0.4328  0.8647
  138OSM   H14C14996   1.524   3.991   5.641  0.3522  3.1962  2.7023
  138OSM    C1314997   1.757   3.902   5.563  0.1424  0.6218  0.2258
  138OSM   H13A14998   1.753   3.794   5.569 -2.7285  0.6319 -0.1549
  138OSM   H13B14999   1.859   3.931   5.541  0.2286  1.2591  1.3773
  138OSM   H13C15000   1.689   3.949   5.494  0.3636  3.2908  1.7146
  138OSM    C1215001   1.802   3.874   5.803 -0.3620  1.0635  0.1423
  138OSM   H12A15002   1.904   3.908   5.805 -0.1345  0.4531 -0.4225
  138OSM   H12B15003   1.794   3.770   5.776 -2.7605  0.9353  1.1151
  138OSM    C1115004   1.756   3.876   5.951  0.2584 -0.2296 -0.8570
  138OSM   H11A15005   1.827   3.809   6.003 -1.6623 -0.8222  1.1650
  138OSM   H11B15006   1.653   3.837   5.967  0.2475 -0.2432 -0.9594
  138OSM      P15007   1.682   4.058   6.115  0.4970  0.1755 -0.0838
  138OSM    O1315008   1.731   4.181   6.181  0.0252 -0.4815  0.8168
  138OSM    O1415009   1.543   4.068   6.069 -0.4730  0.3219  0.2976
  138OSM    O1115010   1.672   3.952   6.222  0.2894 -0.0381  0.8690
  138OSM    O1215011   1.782   4.008   6.009 -0.0079 -0.4058 -0.0805
  138OSM    C1S15012   1.772   3.929   6.319  0.6859 -0.4131  0.0671
  138OSM    H1S15013   1.832   4.022   6.331  0.1944 -0.0080 -0.5119
  138OSM    H1T15014   1.851   3.866   6.273 -0.3877 -1.8192  0.0910
  138OSM     NF15015   1.806   3.909   6.554  0.3777  0.7802 -0.0889
  138OSM    HNF15016   1.870   3.837   6.579 -1.4358 -0.3415  1.5861
  138OSM    C2S15017   1.710   3.883   6.452 -0.0442  0.2363  0.8249
  138OSM    H2S15018   1.624   3.948   6.479  0.1603  0.0872  1.8818
  138OSM    C3S15019   1.660   3.744   6.439  0.0714  0.7302 -0.2248
  138OSM    H3S15020   1.748   3.675   6.429  0.6971  1.4848 -0.0223
  138OSM     O315021   1.573   3.728   6.327  0.1972  0.4110 -0.0962
  138OSM    HO315022   1.589   3.811   6.282  1.2406  0.4812  0.3728
  138OSM    C4S15023   1.601   3.692   6.566  0.0477 -0.3910 -0.1071
  138OSM    H4S15024   1.668   3.614   6.607  2.0510  1.0524 -0.4875
  138OSM    C5S15025   1.486   3.719   6.632  0.4099 -0.5182  0.9602
  138OSM    H5S15026   1.430   3.804   6.591  1.2657 -0.0743  0.6797
  138OSM    C6S15027   1.433   3.654   6.760 -0.1949 -0.2647  0.1542
  138OSM    H6S15028   1.493   3.564   6.788 -1.7991 -1.1077  0.9828
  138OSM    H6T15029   1.338   3.605   6.729 -0.4591  1.1845 -1.4755
  138OSM    C7S15030   1.416   3.763   6.871 -0.3366 -0.5747  0.0753
  138OSM    H7S15031   1.343   3.840   6.839 -0.7284 -1.1034 -0.3230
  138OSM    H7T15032   1.503   3.830   6.890 -0.9499  0.1026  0.5588
  138OSM    C8S15033   1.378   3.681   6.997 -0.0487 -1.0810 -0.1194
  138OSM    H8S15034   1.460   3.608   7.014  0.1157 -0.2629  3.2744
  138OSM    H8T15035   1.280   3.629   6.994  0.1302 -1.7043  2.7261
  138OSM    C9S15036   1.380   3.767   7.126 -0.0699 -0.3774  0.1998
  138OSM    H9S15037   1.308   3.851   7.120  0.2869 -0.1658 -2.0180
  138OSM    H9T15038   1.486   3.801   7.129 -0.0812 -0.1972 -1.0782
  138OSM   C10S15039   1.348   3.683   7.246 -0.7007  0.2839 -0.1822
  138OSM   H10S15040   1.418   3.597   7.240 -0.4132  0.5141 -0.1706
  138OSM   H10T15041   1.249   3.635   7.232  0.3495 -1.7871 -0.9139
  138OSM   C11S15042   1.352   3.759   7.377  0.3891 -0.1657 -0.2871
  138OSM   H11S15043   1.271   3.836   7.374  0.9737  0.4805  0.2058
  138OSM   H11T15044   1.447   3.807   7.407 -0.4344  1.1306  0.3325
  138OSM   C12S15045   1.325   3.671   7.498 -0.0593  0.0891  0.1323
  138OSM   H12S15046   1.413   3.605   7.508  1.5626  2.2195  0.7436
  138OSM   H12T15047   1.229   3.617   7.481 -0.9991  1.7665 -0.1485
  138OSM   C13S15048   1.305   3.742   7.640 -0.5654 -0.5643 -0.2257
  138OSM   H13S15049   1.218   3.812   7.639  0.7674  1.3557  2.8150
  138OSM   H13T15050   1.385   3.812   7.671 -0.2020 -0.9187 -0.3636
  138OSM   C14S15051   1.279   3.641   7.751  0.3758 -0.4508 -0.4921
  138OSM   H14S15052   1.374   3.588   7.774 -1.3237 -3.3157  0.4667
  138OSM   H14T15053   1.201   3.567   7.724 -0.6186  0.7168 -0.9187
  138OSM   C15S15054   1.230   3.705   7.887  0.5522  0.3794 -0.3100
  138OSM   H15S15055   1.140   3.767   7.869 -1.0764 -2.1429 -1.3152
  138OSM   H15T15056   1.314   3.771   7.917  0.4719  0.7728 -0.9236
  138OSM   C16S15057   1.204   3.606   8.002 -0.1827 -0.4942  0.7223
  138OSM   H16S15058   1.219   3.655   8.101  0.1040  1.0491 -0.0681
  138OSM   H16T15059   1.278   3.526   7.982  2.2425  2.0273 -1.0744
  138OSM   C17S15060   1.064   3.542   7.990 -0.3475  0.6330 -0.5500
  138OSM   H17S15061   1.056   3.498   7.888 -1.1171 -0.8589  0.1215
  138OSM   H17T15062   0.994   3.628   7.993  0.0069  1.0245 -2.2369
  138OSM   C18S15063   1.041   3.428   8.092 -0.1187 -0.3083 -0.2804
  138OSM   H18S15064   1.132   3.364   8.097  1.1581  1.3675 -0.8174
  138OSM   H18T15065   0.950   3.375   8.057 -1.0266  2.2976 -2.2388
  138OSM   H18U15066   1.023   3.479   8.189 -1.9303  1.3084 -1.3817
  138OSM    C1F15067   1.823   4.025   6.610  0.4933 -0.2565  0.1910
  138OSM     OF15068   1.761   4.124   6.578 -0.1543  0.1322  0.5831
  138OSM    C2F15069   1.922   4.035   6.713  0.0714  0.5089 -0.4156
  138OSM    H2F15070   2.023   4.035   6.665  1.1602  1.8164  1.7286
  138OSM    H2G15071   1.907   3.940   6.769  2.5869  0.0730 -0.3264
  138OSM    C3F15072   1.905   4.155   6.810  0.0613  0.6879 -0.3748
  138OSM    H3F15073   1.809   4.137   6.862 -0.3755 -2.4193 -1.9922
  138OSM    H3G15074   1.883   4.246   6.750 -2.3506  1.9489  2.1984
  138OSM    C4F15075   2.021   4.172   6.911 -0.2120 -0.9576 -0.5157
  138OSM    H4F15076   2.119   4.181   6.861  0.8889 -0.7468  1.5666
  138OSM    H4G15077   2.027   4.090   6.987 -1.8273  0.5503  1.3469
  138OSM    C5F15078   1.993   4.312   6.983  0.5521 -0.0080  0.1127
  138OSM    H5F15079   1.911   4.295   7.057  0.5044 -2.9028 -0.4922
  138OSM    H5G15080   1.939   4.384   6.918  0.3930  0.8261  1.1267
  138OSM    C6F15081   2.105   4.378   7.056 -0.7682 -0.2448  0.0367
  138OSM    H6F15082   2.080   4.479   7.096 -2.6245 -1.2066  1.5285
  138OSM    H6G15083   2.189   4.379   6.983 -1.2680 -0.5659 -0.5521
  138OSM    C7F15084   2.165   4.297   7.171 -0.2194 -0.4220 -0.3134
  138OSM    H7F15085   2.253   4.338   7.225  0.5730 -0.3881 -1.5985
  138OSM    H7G15086   2.209   4.202   7.134  0.3419 -0.4865  0.4993
  138OSM    C8F15087   2.066   4.251   7.285 -0.3197  0.0475 -0.4168
  138OSM    H8F15088   2.127   4.182   7.346  1.7784  2.0386 -0.0989
  138OSM    H8G15089   1.990   4.193   7.229  0.5152 -0.1835 -1.3523
  138OSM    C9F15090   2.012   4.366   7.371 -0.2237  0.6990  0.1773
  138OSM    H9F15091   1.953   4.435   7.310  0.4992  2.5407  1.4718
  138OSM   C10F15092   2.032   4.387   7.502 -0.2306 -0.0890  0.1579
  138OSM   H10F15093   2.002   4.478   7.556  0.8427  1.1301 -1.1961
  138OSM   C11F15094   2.118   4.286   7.588  0.2509 -0.4320  0.4176
  138OSM   H11F15095   2.180   4.349   7.655  2.8130  1.2351 -3.1895
  138OSM   H11G15096   2.179   4.211   7.532  0.3794 -1.3456  1.7379
  138OSM   C12F15097   2.015   4.213   7.679  0.0082  0.9423 -0.8567
  138OSM   H12F15098   2.076   4.141   7.738 -0.6058  2.2311  1.4842
  138OSM   H12G15099   1.943   4.151   7.622  1.4902 -2.3123  0.5902
  138OSM   C13F15100   1.936   4.300   7.789  0.0866  0.1591 -0.1365
  138OSM   H13F15101   1.836   4.321   7.748 -0.2396 -0.9769  0.0525
  138OSM   H13G15102   1.986   4.391   7.829  1.3166 -0.7593  0.4927
  138OSM   C14F15103   1.918   4.217   7.922  0.1587 -0.1235 -0.1837
  138OSM   H14F15104   2.019   4.186   7.956  0.9555  1.6140 -0.8493
  138OSM   H14G15105   1.853   4.132   7.893 -0.2192  0.2433 -0.4154
  138OSM   C15F15106   1.847   4.300   8.027  0.7444 -0.5171  0.5009
  138OSM   H15F15107   1.741   4.315   7.997  0.2108 -0.0184  2.4709
  138OSM   H15G15108   1.899   4.397   8.042 -1.6430  0.5383  2.9115
  138OSM   C16F15109   1.824   4.212   8.156 -0.2705  0.6936 -0.3726
  138OSM   H16F15110   1.925   4.183   8.191 -0.3357  0.9225  0.0157
  138OSM   H16G15111   1.757   4.126   8.136 -0.0773 -0.1580  2.3090
  138OSM   C17F15112   1.759   4.292   8.273 -0.6703  0.9053  1.0824
  138OSM   H17F15113   1.664   4.327   8.228  0.1552  1.5966 -0.1716
  138OSM   H17G15114   1.817   4.374   8.320  4.0254 -2.1690  1.3672
  138OSM   C18F15115   1.723   4.193   8.389 -1.2692 -0.3923  0.5743
  138OSM   H18F15116   1.818   4.172   8.444 -1.8032  2.6904  2.9667
  138OSM   H18G15117   1.667   4.104   8.354 -1.6904 -0.1029  0.5163
  138OSM   H18H15118   1.657   4.254   8.455 -0.4622  2.0097 -0.7086
  139OSM      N15119   2.441   2.928   6.153  0.4701 -0.2251  1.0329
  139OSM    C1515120   2.429   2.781   6.190 -0.5527 -0.2356 -0.0645
  139OSM   H15A15121   2.426   2.778   6.298  1.9573 -0.4365  0.0559
  139OSM   H15B15122   2.522   2.735   6.160 -0.4763 -0.4758  0.5277
  139OSM   H15C15123   2.350   2.732   6.135 -1.0875 -0.3070  0.7365
  139OSM    C1415124   2.462   2.950   6.007  0.2973 -0.4415 -0.4006
  139OSM   H14A15125   2.380   2.918   5.943  0.9721 -1.7820 -0.6385
  139OSM   H14B15126   2.547   2.899   5.964  0.1629 -0.0199 -1.1813
  139OSM   H14C15127   2.478   3.055   5.991  0.8088 -0.6421 -1.2955
  139OSM    C1315128   2.316   2.994   6.200  0.2831  0.0168 -0.3855
  139OSM   H13A15129   2.316   3.102   6.201  0.8884  0.0195  0.4243
  139OSM   H13B15130   2.293   2.967   6.302  1.3128  0.2592 -0.0781
  139OSM   H13C15131   2.233   2.972   6.134 -1.0130  1.9738  0.4893
  139OSM    C1215132   2.562   2.989   6.226  0.2060  0.0266 -0.1546
  139OSM   H12A15133   2.640   2.918   6.201  0.1430  0.2871 -1.1653
  139OSM   H12B15134   2.529   2.989   6.328 -0.1267 -0.2751 -0.2618
  139OSM    C1115135   2.630   3.121   6.181 -0.0567 -1.1303 -0.1282
  139OSM   H11A15136   2.682   3.103   6.084  1.4828  1.4428  0.1261
  139OSM   H11B15137   2.725   3.146   6.233  1.3987 -1.0802 -2.6232
  139OSM      P15138   2.499   3.310   6.316 -0.1313 -0.0543  0.2915
  139OSM    O1315139   2.619   3.398   6.340  0.1885  0.2243 -0.5172
  139OSM    O1415140   2.366   3.368   6.292 -0.5843 -0.0133  0.5854
  139OSM    O1115141   2.491   3.202   6.433 -0.0930  0.2986 -0.0820
  139OSM    O1215142   2.534   3.232   6.186 -0.3553 -0.2143 -0.2392
  139OSM    C1S15143   2.546   3.208   6.559  0.1609 -0.3677 -0.5257
  139OSM    H1S15144   2.570   3.313   6.587 -0.4136 -0.0024 -1.3612
  139OSM    H1T15145   2.638   3.149   6.576 -0.1668 -1.1071 -1.2560
  139OSM     NF15146   2.483   3.198   6.795  0.0306  0.3816 -0.4852
  139OSM    HNF15147   2.538   3.131   6.845 -2.0677  0.1730  1.7378
  139OSM    C2S15148   2.435   3.168   6.662 -0.5276 -0.8341  0.3890
  139OSM    H2S15149   2.344   3.224   6.633  0.6203  0.0538 -1.7192
  139OSM    C3S15150   2.394   3.021   6.641  0.7419 -0.7058 -0.5096
  139OSM    H3S15151   2.481   2.956   6.667  0.6300 -0.5119  0.3928
  139OSM     O315152   2.379   2.985   6.500  0.1061  0.1281 -0.8484
  139OSM    HO315153   2.396   3.068   6.455  1.5963  1.5054  2.0418
  139OSM    C4S15154   2.271   2.985   6.724  0.8637 -0.7829  0.7764
  139OSM    H4S15155   2.293   2.927   6.815  0.4516 -0.7112  0.9214
  139OSM    C5S15156   2.142   3.022   6.699 -1.1962  0.0292 -0.1006
  139OSM    H5S15157   2.128   3.064   6.598 -3.0952 -1.6968 -0.6137
  139OSM    C6S15158   2.033   2.980   6.797  0.0993  0.2346 -0.3008
  139OSM    H6S15159   1.961   2.910   6.748  1.0620 -2.4914  1.9206
  139OSM    H6T15160   1.959   3.060   6.815 -1.8612 -1.5820  0.2133
  139OSM    C7S15161   2.068   2.929   6.934 -0.2850  0.1991  0.0341
  139OSM    H7S15162   2.129   2.992   7.003 -2.2743  0.2308  1.8624
  139OSM    H7T15163   2.136   2.843   6.914  1.0537  1.5657 -1.7229
  139OSM    C8S15164   1.941   2.882   7.006 -0.7114 -1.0048 -0.0004
  139OSM    H8S15165   1.884   2.828   6.927 -1.7209  0.1210 -0.0641
  139OSM    H8T15166   1.896   2.978   7.039  2.8533  1.8925 -2.7470
  139OSM    C9S15167   1.965   2.785   7.123  0.3543 -0.2057 -0.3494
  139OSM    H9S15168   2.026   2.696   7.095  1.0150 -0.0998  0.7095
  139OSM    H9T15169   1.875   2.737   7.167 -1.1013  1.7220 -1.0643
  139OSM   C10S15170   2.037   2.857   7.247  0.1482 -0.1501  0.6013
  139OSM   H10S15171   2.137   2.897   7.218 -0.2989 -0.3756 -1.4255
  139OSM   H10T15172   2.052   2.775   7.321  0.1136 -1.0372 -0.3512
  139OSM   C11S15173   1.948   2.969   7.303 -0.6837 -0.1266 -0.7710
  139OSM   H11S15174   1.847   2.925   7.318 -0.2377 -0.2851  2.5212
  139OSM   H11T15175   1.937   3.058   7.238  1.0256  0.5416 -0.1895
  139OSM   C12S15176   2.014   3.024   7.426 -0.3032 -0.7400 -0.2744
  139OSM   H12S15177   1.989   3.130   7.446  1.6200 -0.4922  1.1636
  139OSM   H12T15178   2.125   3.016   7.421 -0.1271  1.0035  0.0528
  139OSM   C13S15179   1.966   2.946   7.555 -0.1997  0.2655 -0.6116
  139OSM   H13S15180   2.016   2.847   7.550  0.5139  0.5327  0.7578
  139OSM   H13T15181   1.855   2.942   7.549 -0.1510 -0.2025 -1.5226
  139OSM   C14S15182   2.036   3.006   7.678  0.4532 -0.0692 -0.1051
  139OSM   H14S15183   2.139   3.045   7.660  0.8518 -1.1251 -0.1780
  139OSM   H14T15184   2.053   2.932   7.760  1.3628  0.4947  0.2315
  139OSM   C15S15185   1.943   3.110   7.753 -0.3907 -0.1713  0.1360
  139OSM   H15S15186   1.841   3.068   7.757 -1.2727  1.9300  1.6841
  139OSM   H15T15187   1.943   3.210   7.703  1.9740  1.3798  2.9173
  139OSM   C16S15188   1.998   3.140   7.896 -0.4658  0.0563  0.2352
  139OSM   H16S15189   2.103   3.178   7.889 -1.2166  2.2616  0.0940
  139OSM   H16T15190   1.996   3.046   7.955  1.7709  0.3029  0.8060
  139OSM   C17S15191   1.932   3.251   7.974 -0.6951  0.9990  0.1083
  139OSM   H17S15192   1.824   3.233   7.952 -0.2293 -3.6159  0.6422
  139OSM   H17T15193   1.970   3.342   7.923  2.9654 -0.3229  0.2308
  139OSM   C18S15194   1.955   3.265   8.123 -0.5767 -0.1920 -0.0650
  139OSM   H18S15195   1.879   3.340   8.153 -1.6149 -0.0193 -2.8663
  139OSM   H18T15196   2.059   3.297   8.144 -0.0764 -0.5561 -1.9010
  139OSM   H18U15197   1.936   3.166   8.171  0.0478  0.1640  0.9506
  139OSM    C1F15198   2.469   3.321   6.839 -0.3087  0.1370  0.0522
  139OSM     OF15199   2.412   3.414   6.783  1.0490  0.0043 -0.2570
  139OSM    C2F15200   2.544   3.343   6.964  0.0986 -0.0217  0.1868
  139OSM    H2F15201   2.651   3.311   6.964  0.1307  0.0848 -0.4600
  139OSM    H2G15202   2.499   3.268   7.033 -0.4073  0.3123  0.2262
  139OSM    C3F15203   2.535   3.482   7.019 -0.0060 -0.2601 -0.2907
  139OSM    H3F15204   2.429   3.504   7.044  0.2881  0.5184  0.3231
  139OSM    H3G15205   2.567   3.560   6.947 -2.5543 -0.2655 -1.5640
  139OSM    C4F15206   2.625   3.488   7.150  0.4029 -0.3509  0.7149
  139OSM    H4F15207   2.730   3.466   7.120  0.0449 -0.1135 -0.7592
  139OSM    H4G15208   2.588   3.394   7.198 -0.4012 -0.9353 -0.9713
  139OSM    C5F15209   2.601   3.610   7.247 -0.7237  0.6395 -0.2570
  139OSM    H5F15210   2.499   3.601   7.290  0.0567 -3.3320  1.1813
  139OSM    H5G15211   2.610   3.706   7.192 -1.8630  0.7120 -0.3387
  139OSM    C6F15212   2.705   3.598   7.360  0.1831  0.5600  0.2067
  139OSM    H6F15213   2.803   3.609   7.308 -0.7813 -0.6264 -1.9974
  139OSM    H6G15214   2.703   3.500   7.412  2.4255  0.7437  0.7179
  139OSM    C7F15215   2.677   3.696   7.471  0.1255 -0.2282 -0.1413
  139OSM    H7F15216   2.603   3.665   7.547 -0.7005  0.1788 -0.7653
  139OSM    H7G15217   2.658   3.799   7.433  2.1052  0.5507  0.8317
  139OSM    C8F15218   2.808   3.728   7.552 -0.2694  0.1425  0.2646
  139OSM    H8F15219   2.774   3.786   7.641  0.9387  1.5033 -0.1275
  139OSM    H8G15220   2.869   3.779   7.475 -1.8286 -0.7778 -1.6661
  139OSM    C9F15221   2.876   3.601   7.598  0.3997 -0.0896 -0.5110
  139OSM    H9F15222   2.962   3.563   7.541  0.8768  0.3498 -0.1011
  139OSM   C10F15223   2.823   3.519   7.690 -0.3556 -0.2614 -0.3830
  139OSM   H10F15224   2.870   3.422   7.714  0.3174  0.2843  0.5944
  139OSM   C11F15225   2.700   3.542   7.775 -0.2437  0.4974 -1.0379
  139OSM   H11F15226   2.661   3.640   7.741  0.9114  0.8240 -1.4638
  139OSM   H11G15227   2.726   3.553   7.883  2.7410 -1.0372 -1.4907
  139OSM   C12F15228   2.600   3.425   7.766 -0.0270 -0.0155  0.0325
  139OSM   H12F15229   2.652   3.345   7.822  0.3160 -0.3127 -0.7081
  139OSM   H12G15230   2.582   3.402   7.659 -0.5155  0.3040  0.0425
  139OSM   C13F15231   2.474   3.458   7.853 -0.4712 -0.2138  0.0112
  139OSM   H13F15232   2.424   3.550   7.815 -2.2743 -0.8683  0.7261
  139OSM   H13G15233   2.496   3.488   7.957 -2.4865  0.8522  0.1792
  139OSM   C14F15234   2.363   3.350   7.843  0.7782 -0.6041 -0.5021
  139OSM   H14F15235   2.274   3.405   7.878 -0.1436 -0.4837 -2.8571
  139OSM   H14G15236   2.370   3.266   7.916  0.0251 -0.2825 -0.0522
  139OSM   C15F15237   2.332   3.292   7.704  0.0064 -0.1857 -0.5055
  139OSM   H15F15238   2.244   3.226   7.713  0.6272 -0.9716 -0.0597
  139OSM   H15G15239   2.423   3.238   7.668 -1.1269 -1.8183 -1.0412
  139OSM   C16F15240   2.274   3.403   7.613 -0.0978 -0.4447 -0.9286
  139OSM   H16F15241   2.349   3.486   7.619 -0.8215  0.1489  0.0907
  139OSM   H16G15242   2.177   3.443   7.650  0.0128  0.4575 -1.5636
  139OSM   C17F15243   2.253   3.368   7.470  0.6358  0.3422 -0.2508
  139OSM   H17F15244   2.210   3.455   7.416 -0.5800  1.6951  2.6409
  139OSM   H17G15245   2.169   3.296   7.467  2.3564 -1.8090  0.4934
  139OSM   C18F15246   2.384   3.323   7.408  0.4072 -0.1417 -0.1452
  139OSM   H18F15247   2.361   3.293   7.303  0.7624  0.9185 -0.5445
  139OSM   H18G15248   2.427   3.241   7.469 -1.3105  0.0701  1.3979
  139OSM   H18H15249   2.465   3.399   7.411 -0.1728  0.4903 -0.1904
  140OSM      N15250   4.282   6.262   6.207 -0.0088  0.1681 -0.1975
  140OSM    C1515251   4.170   6.341   6.152 -0.3598 -0.0228 -0.0871
  140OSM   H15A15252   4.111   6.392   6.226  0.4810  1.0221 -0.1217
  140OSM   H15B15253   4.106   6.282   6.087 -1.6349 -0.2784  1.3480
  140OSM   H15C15254   4.215   6.417   6.090  0.6977 -0.0998  0.5731
  140OSM    C1415255   4.347   6.174   6.113 -0.4848  0.2077  0.0898
  140OSM   H14A15256   4.389   6.236   6.035 -1.3175  1.3791  0.5345
  140OSM   H14B15257   4.273   6.109   6.069 -0.1637  0.2249 -0.4884
  140OSM   H14C15258   4.418   6.109   6.161  0.0514 -1.5024 -2.7582
  140OSM    C1315259   4.367   6.367   6.271 -0.1235 -0.5911  0.7130
  140OSM   H13A15260   4.398   6.435   6.192 -0.7154  0.4614  1.3599
  140OSM   H13B15261   4.459   6.323   6.306  1.8219  0.2826 -2.7447
  140OSM   H13C15262   4.315   6.422   6.347  1.8098  1.8870  0.3922
  140OSM    C1215263   4.242   6.166   6.316 -0.4839  0.4581  0.4737
  140OSM   H12A15264   4.189   6.079   6.280  1.2674 -1.2476  1.7712
  140OSM   H12B15265   4.168   6.217   6.375  1.0296  1.8274  1.2601
  140OSM    C1115266   4.353   6.100   6.404  0.2474  0.2846  0.8068
  140OSM   H11A15267   4.304   6.037   6.481  0.6964  0.3792  1.1767
  140OSM   H11B15268   4.417   6.177   6.452  2.4160  0.1073 -1.5686
  140OSM      P15269   4.438   5.863   6.334  0.1480 -0.3530  0.0212
  140OSM    O1315270   4.309   5.811   6.282  0.8500 -0.3830  0.2405
  140OSM    O1415271   4.556   5.809   6.270 -0.1633 -0.1050 -0.0316
  140OSM    O1115272   4.449   5.848   6.485  0.2750 -0.3554 -0.2369
  140OSM    O1215273   4.437   6.018   6.321 -0.6423  0.2013  0.1454
  140OSM    C1S15274   4.569   5.886   6.553  0.2151 -0.0795  1.1499
  140OSM    H1S15275   4.598   5.990   6.525  2.1405 -0.5814  1.1360
  140OSM    H1T15276   4.657   5.821   6.534  0.2318  0.3490 -0.3540
  140OSM     NF15277   4.656   5.949   6.778 -0.4909  0.0584 -0.4995
  140OSM    HNF15278   4.728   5.891   6.814  0.7827  1.5856 -0.4863
  140OSM    C2S15279   4.549   5.888   6.708 -0.0114  0.0015  0.4183
  140OSM    H2S15280   4.457   5.947   6.732  0.6603  0.5729  1.6632
  140OSM    C3S15281   4.518   5.745   6.756 -0.8357  0.6645 -0.1975
  140OSM    H3S15282   4.613   5.689   6.745 -0.3274  1.4442  0.1266
  140OSM     O315283   4.426   5.675   6.675 -0.2538  0.4470  0.2801
  140OSM    HO315284   4.441   5.712   6.587  0.2093  0.8177  0.5137
  140OSM    C4S15285   4.465   5.738   6.899 -0.1397  0.7097 -1.2432
  140OSM    H4S15286   4.361   5.772   6.911 -0.5842 -1.1700  0.8471
  140OSM    C5S15287   4.539   5.704   7.009 -0.4699  0.0622  0.5781
  140OSM    H5S15288   4.646   5.686   6.994 -0.7095  0.0508 -1.2775
  140OSM    C6S15289   4.502   5.716   7.154 -0.3290  0.3075  0.3592
  140OSM    H6S15290   4.511   5.821   7.188 -0.1860  0.2856  0.3877
  140OSM    H6T15291   4.575   5.663   7.219  1.9581  1.6169 -1.0089
  140OSM    C7S15292   4.356   5.665   7.186 -0.0411 -0.0073  1.2365
  140OSM    H7S15293   4.343   5.561   7.151  1.4907 -0.5135  2.0743
  140OSM    H7T15294   4.286   5.731   7.130 -0.1854 -0.1492  1.2493
  140OSM    C8S15295   4.323   5.659   7.335  0.6502  0.0732  0.1220
  140OSM    H8S15296   4.219   5.622   7.340  1.0746 -1.0752  0.8372
  140OSM    H8T15297   4.333   5.759   7.382  2.6133 -0.2331  0.4712
  140OSM    C9S15298   4.408   5.573   7.422  0.4544  0.3264  0.3144
  140OSM    H9S15299   4.510   5.616   7.427  1.0346 -0.8243 -1.0890
  140OSM    H9T15300   4.423   5.478   7.368 -3.7728 -0.4429  0.1215
  140OSM   C10S15301   4.338   5.539   7.556  0.4377 -0.8001  0.1721
  140OSM   H10S15302   4.378   5.446   7.603 -1.3116 -2.3144 -1.1889
  140OSM   H10T15303   4.236   5.504   7.527  0.4866 -1.5106  0.8109
  140OSM   C11S15304   4.323   5.664   7.654 -0.1588  0.1940  0.4149
  140OSM   H11S15305   4.333   5.756   7.592 -0.6817 -0.5365 -0.8015
  140OSM   H11T15306   4.415   5.662   7.715  0.5612  3.1559 -0.3898
  140OSM   C12S15307   4.188   5.663   7.732 -0.0376  0.0471 -0.2893
  140OSM   H12S15308   4.184   5.557   7.767  3.1926  0.3670  1.4800
  140OSM   H12T15309   4.099   5.686   7.670  0.3244  0.2257 -0.7568
  140OSM   C13S15310   4.185   5.759   7.863 -0.1471  0.0868 -0.0308
  140OSM   H13S15311   4.080   5.759   7.900 -1.7276  1.7767 -3.9560
  140OSM   H13T15312   4.211   5.863   7.832  2.9796 -0.5984 -0.0168
  140OSM   C14S15313   4.282   5.713   7.969  0.8720  0.1966  0.3792
  140OSM   H14S15314   4.384   5.708   7.924  1.0370 -0.3130  0.8012
  140OSM   H14T15315   4.258   5.618   8.020 -0.3415  0.1139 -0.3154
  140OSM   C15S15316   4.285   5.808   8.093 -0.2970 -0.3685 -1.0634
  140OSM   H15S15317   4.281   5.914   8.058  0.9070  0.9566  2.3403
  140OSM   H15T15318   4.383   5.794   8.142 -1.5265 -0.3329  1.5425
  140OSM   C16S15319   4.167   5.778   8.192  0.2531 -0.5570 -0.5504
  140OSM   H16S15320   4.171   5.671   8.221 -0.2067 -0.9913 -2.0101
  140OSM   H16T15321   4.066   5.793   8.147  0.4719  2.2550 -0.3118
  140OSM   C17S15322   4.180   5.864   8.314 -0.1345 -0.0518 -0.6639
  140OSM   H17S15323   4.261   5.847   8.388  0.3919  1.4081 -0.8674
  140OSM   H17T15324   4.089   5.848   8.376  1.1727  0.4150  1.4704
  140OSM   C18S15325   4.172   6.012   8.276 -0.3791 -0.3455 -0.4664
  140OSM   H18S15326   4.276   6.049   8.282 -0.4129 -0.1228 -1.0886
  140OSM   H18T15327   4.116   6.075   8.348  0.0923  0.5087 -0.8324
  140OSM   H18U15328   4.136   6.026   8.171 -1.0353  3.4334  0.1157
  140OSM    C1F15329   4.674   6.083   6.774  0.1039  0.4562 -0.0272
  140OSM     OF15330   4.598   6.150   6.708 -0.2035  0.2481 -0.3016
  140OSM    C2F15331   4.793   6.139   6.842  0.4156  1.1096  1.0338
  140OSM    H2F15332   4.854   6.218   6.794  0.0562  2.5327  2.7831
  140OSM    H2G15333   4.865   6.055   6.852 -1.9137 -1.2823 -0.8508
  140OSM    C3F15334   4.739   6.193   6.980 -0.1134 -0.2171 -0.6003
  140OSM    H3F15335   4.651   6.258   6.964  0.3575  0.9464  1.2277
  140OSM    H3G15336   4.819   6.258   7.022  0.5938  0.3643 -2.7134
  140OSM    C4F15337   4.685   6.091   7.080 -0.3274  0.3776  0.7171
  140OSM    H4F15338   4.735   5.992   7.067  0.1616  0.8110 -1.0041
  140OSM    H4G15339   4.581   6.063   7.053 -0.1120  0.4435 -0.2093
  140OSM    C5F15340   4.690   6.129   7.230  0.3778 -0.7284  0.2341
  140OSM    H5F15341   4.629   6.221   7.242  1.4969  0.1513 -0.6079
  140OSM    H5G15342   4.798   6.147   7.249  0.3103  0.0712 -0.1295
  140OSM    C6F15343   4.637   6.019   7.320  0.5444 -0.1868  0.3091
  140OSM    H6F15344   4.693   5.925   7.302 -1.0762 -0.6844 -2.8693
  140OSM    H6G15345   4.533   6.014   7.281  0.1566 -0.1318  1.2894
  140OSM    C7F15346   4.636   6.067   7.464  0.9942 -0.1570  0.4268
  140OSM    H7F15347   4.561   6.148   7.471  0.7117 -0.2417 -1.2403
  140OSM    H7G15348   4.733   6.104   7.502  1.5633 -1.1336 -0.0339
  140OSM    C8F15349   4.581   5.938   7.547 -0.3845 -0.1717  0.3511
  140OSM    H8F15350   4.662   5.865   7.566 -0.0506  0.1910  0.3377
  140OSM    H8G15351   4.501   5.883   7.493 -0.0238  0.0218 -0.3958
  140OSM    C9F15352   4.510   5.971   7.677 -0.0632  0.0616 -0.3083
  140OSM    H9F15353   4.412   6.020   7.666  0.7831  2.2317  1.1171
  140OSM   C10F15354   4.547   5.940   7.804  0.4853  0.7592  0.0286
  140OSM   H10F15355   4.482   5.968   7.888  0.7512 -0.7786  0.7856
  140OSM   C11F15356   4.677   5.865   7.838  0.2543  0.3355 -0.1153
  140OSM   H11F15357   4.754   5.891   7.762 -0.1264 -0.8440 -0.9439
  140OSM   H11G15358   4.653   5.759   7.814 -0.0887  0.7167 -1.5603
  140OSM   C12F15359   4.723   5.887   7.979 -0.6118 -0.5597 -0.0400
  140OSM   H12F15360   4.721   5.994   8.009  1.8711 -0.4460 -0.1096
  140OSM   H12G15361   4.831   5.862   7.979 -0.7093 -0.9998  0.7490
  140OSM   C13F15362   4.656   5.816   8.088 -0.4685  0.5576  0.0563
  140OSM   H13F15363   4.553   5.857   8.078 -0.4820  0.1148 -2.0019
  140OSM   H13G15364   4.708   5.842   8.183 -1.5883  1.5534  0.4173
  140OSM   C14F15365   4.662   5.657   8.075 -0.0091  0.0204 -0.1156
  140OSM   H14F15366   4.769   5.631   8.058  0.6996  1.4880  1.6777
  140OSM   H14G15367   4.597   5.638   7.988 -1.9879  1.0023  1.0723
  140OSM   C15F15368   4.604   5.570   8.191 -0.6986 -0.3367 -0.3283
  140OSM   H15F15369   4.512   5.607   8.241 -0.3615 -2.0023  1.6570
  140OSM   H15G15370   4.685   5.577   8.267 -2.6156  2.8364  1.6614
  140OSM   C16F15371   4.583   5.419   8.160  0.2961 -0.0061  0.1847
  140OSM   H16F15372   4.540   5.377   8.253  1.7429 -1.0859  0.4054
  140OSM   H16G15373   4.684   5.373   8.152  0.0443 -1.0182  2.2236
  140OSM   C17F15374   4.499   5.385   8.034 -0.4096 -1.0779  0.1909
  140OSM   H17F15375   4.558   5.412   7.943  1.5452 -2.0418  1.1004
  140OSM   H17G15376   4.406   5.445   8.031  1.2864  2.0467  2.9575
  140OSM   C18F15377   4.454   5.238   8.016 -0.0711 -0.7563 -0.1156
  140OSM   H18F15378   4.392   5.205   8.102 -0.2063 -2.9829 -0.9898
  140OSM   H18G15379   4.550   5.182   8.012  0.0662 -0.4923 -3.5382
  140OSM   H18H15380   4.391   5.234   7.924 -1.1729  1.0480  0.5092
  141OSM      N15381   2.575   6.084   6.467  0.4368 -0.5022  0.3608
  141OSM    C1515382   2.575   6.232   6.457 -0.4879 -0.4826  0.5565
  141OSM   H15A15383   2.676   6.270   6.469 -1.4721  2.3888  0.4437
  141OSM   H15B15384   2.511   6.283   6.527  1.8709  1.2808  1.5506
  141OSM   H15C15385   2.548   6.271   6.360  1.4518  0.5726  0.3813
  141OSM    C1415386   2.648   6.053   6.599 -0.2486  0.3189 -0.6161
  141OSM   H14A15387   2.591   6.088   6.684 -1.2536  0.1390 -1.1981
  141OSM   H14B15388   2.753   6.076   6.591  0.3838 -1.3416  1.7118
  141OSM   H14C15389   2.639   5.945   6.606 -2.0035  0.5259  2.1460
  141OSM    C1315390   2.426   6.043   6.483  0.0302  0.0102  0.9845
  141OSM   H13A15391   2.385   6.092   6.570 -0.6406  3.8359 -1.2526
  141OSM   H13B15392   2.412   5.938   6.504  0.7537 -0.1504  0.6734
  141OSM   H13C15393   2.368   6.075   6.397  1.8818 -0.8293 -0.6353
  141OSM    C1215394   2.639   6.010   6.356  0.3342  0.3377  0.1273
  141OSM   H12A15395   2.580   6.020   6.266  0.9355  2.2150 -0.0957
  141OSM   H12B15396   2.639   5.907   6.390 -0.2813  0.5475  0.7881
  141OSM    C1115397   2.785   6.050   6.321 -0.0729 -0.6631 -0.5232
  141OSM   H11A15398   2.804   6.159   6.322 -1.3300 -0.4343  0.3514
  141OSM   H11B15399   2.800   6.019   6.216  0.0303  0.3023 -0.8009
  141OSM      P15400   3.033   5.961   6.371  0.2384  0.0567  0.0302
  141OSM    O1315401   3.081   5.833   6.420 -0.3233  0.0548 -0.2360
  141OSM    O1415402   3.066   5.985   6.227  0.3364 -0.1610 -0.5463
  141OSM    O1115403   3.082   6.084   6.459 -0.2723 -0.1314  0.2032
  141OSM    O1215404   2.880   5.979   6.410  0.0956 -0.3761 -0.5905
  141OSM    C1S15405   3.082   6.065   6.604  0.1448  0.1484 -0.4473
  141OSM    H1S15406   3.169   6.002   6.631  1.0091  1.2597 -0.5931
  141OSM    H1T15407   2.993   6.009   6.642 -0.6591  1.5919 -0.1537
  141OSM     NF15408   3.125   6.161   6.820 -0.0884  0.2073  0.0040
  141OSM    HNF15409   3.054   6.162   6.889 -0.4201  1.8511 -0.3023
  141OSM    C2S15410   3.081   6.192   6.682 -0.5354  0.5205  0.2721
  141OSM    H2S15411   3.149   6.265   6.634  0.2939 -0.2526  0.2535
  141OSM    C3S15412   2.947   6.270   6.681 -0.4340 -0.6852  0.6525
  141OSM    H3S15413   2.874   6.219   6.748 -1.0191  1.2635  1.5830
  141OSM     O315414   2.889   6.276   6.547  0.4880 -0.0530 -0.3386
  141OSM    HO315415   2.948   6.221   6.495  0.1720  1.1525 -2.0273
  141OSM    C4S15416   2.972   6.408   6.730  0.3806  0.3303  0.3611
  141OSM    H4S15417   3.037   6.465   6.662  0.9186 -1.3191 -0.5637
  141OSM    C5S15418   2.922   6.458   6.850 -0.8978  0.7157  0.5575
  141OSM    H5S15419   2.868   6.390   6.917  0.7097 -1.3645 -0.1303
  141OSM    C6S15420   2.951   6.598   6.896 -0.3395 -0.5549  0.6428
  141OSM    H6S15421   2.865   6.666   6.877  0.4323  0.6104  1.1815
  141OSM    H6T15422   3.037   6.651   6.848 -1.4902  0.8316  0.0205
  141OSM    C7S15423   2.973   6.603   7.044  0.4182  0.0959  0.5823
  141OSM    H7S15424   3.027   6.699   7.059 -0.0465  0.5019 -0.2764
  141OSM    H7T15425   3.045   6.522   7.067  1.0348  0.5398  0.2536
  141OSM    C8S15426   2.843   6.615   7.134  0.1330  0.3552 -0.0612
  141OSM    H8S15427   2.768   6.535   7.120 -0.8183  1.3392 -0.7418
  141OSM    H8T15428   2.793   6.711   7.108  0.4531  0.7798  0.8505
  141OSM    C9S15429   2.891   6.633   7.279  0.0021 -0.0190  0.1384
  141OSM    H9S15430   2.982   6.696   7.276  1.6721 -2.3510 -1.1282
  141OSM    H9T15431   2.928   6.531   7.304  0.5292 -0.2502 -1.4539
  141OSM   C10S15432   2.782   6.689   7.367  0.0609 -0.2744 -0.6278
  141OSM   H10S15433   2.691   6.626   7.354  0.3343 -1.0215  0.8410
  141OSM   H10T15434   2.771   6.796   7.337  1.1547 -0.6313 -2.4522
  141OSM   C11S15435   2.820   6.704   7.519  0.1674  0.4062  0.1002
  141OSM   H11S15436   2.733   6.757   7.562 -2.2974 -3.2075  0.0387
  141OSM   H11T15437   2.913   6.762   7.534 -1.1647  2.6162  0.1742
  141OSM   C12S15438   2.823   6.569   7.599 -0.2246 -0.7478  0.3545
  141OSM   H12S15439   2.917   6.510   7.593 -1.0806 -2.0779 -0.3671
  141OSM   H12T15440   2.749   6.502   7.550 -0.4268 -0.4576  0.2633
  141OSM   C13S15441   2.776   6.590   7.747 -0.3051  0.4743  0.9182
  141OSM   H13S15442   2.768   6.497   7.807  2.1821 -0.6917 -0.4318
  141OSM   H13T15443   2.671   6.627   7.755 -1.1250 -1.8022  1.4307
  141OSM   C14S15444   2.865   6.693   7.816 -0.4387 -0.0845 -0.4967
  141OSM   H14S15445   2.892   6.784   7.760 -1.9015  0.2938 -0.6285
  141OSM   H14T15446   2.964   6.644   7.831 -0.1551  0.4442 -0.6158
  141OSM   C15S15447   2.805   6.730   7.955 -0.2878 -0.0235 -0.5739
  141OSM   H15S15448   2.771   6.631   7.994  1.4711 -0.3922  0.1244
  141OSM   H15T15449   2.711   6.787   7.939 -1.8999 -2.4225 -0.3076
  141OSM   C16S15450   2.905   6.791   8.062  0.4401  0.1345  0.7169
  141OSM   H16S15451   2.943   6.883   8.014  0.7939 -2.3525 -4.5338
  141OSM   H16T15452   2.993   6.724   8.075 -0.7716 -2.5205 -2.9818
  141OSM   C17S15453   2.832   6.823   8.190 -0.6745 -0.0655 -0.9188
  141OSM   H17S15454   2.727   6.854   8.171 -1.1512 -1.1025 -0.1269
  141OSM   H17T15455   2.883   6.905   8.244 -1.4216 -0.0100 -0.2778
  141OSM   C18S15456   2.839   6.710   8.297 -0.1043  0.1875  0.8873
  141OSM   H18S15457   2.946   6.698   8.328  0.2274  0.2837 -0.1784
  141OSM   H18T15458   2.817   6.621   8.235 -2.1083  1.7572 -0.7856
  141OSM   H18U15459   2.759   6.719   8.373 -0.3165  3.3845  0.4450
  141OSM    C1F15460   3.248   6.122   6.850 -0.7479 -0.3234 -0.0078
  141OSM     OF15461   3.340   6.137   6.767 -0.8206 -0.2452 -0.4820
  141OSM    C2F15462   3.287   6.069   6.992 -0.1461  0.3164 -0.1921
  141OSM    H2F15463   3.227   6.126   7.066  0.6999  0.4485  0.4069
  141OSM    H2G15464   3.396   6.092   6.997  0.1615 -0.4597 -2.2974
  141OSM    C3F15465   3.271   5.918   7.000  0.2639  0.3109 -1.7210
  141OSM    H3F15466   3.327   5.862   6.922  0.3807 -2.3202  0.1263
  141OSM    H3G15467   3.167   5.880   6.989  0.3640 -1.4789  1.9132
  141OSM    C4F15468   3.328   5.854   7.130 -0.3428 -0.5187  0.8137
  141OSM    H4F15469   3.269   5.913   7.204 -1.5764 -2.2172  1.2468
  141OSM    H4G15470   3.433   5.889   7.134 -0.0049 -1.1466 -1.1348
  141OSM    C5F15471   3.305   5.701   7.151  0.1747 -0.0791  0.1634
  141OSM    H5F15472   3.354   5.646   7.068 -1.7002 -1.0889 -0.3121
  141OSM    H5G15473   3.194   5.693   7.148  0.1868 -0.1763  0.0057
  141OSM    C6F15474   3.345   5.650   7.289 -0.1358 -0.2033  0.2998
  141OSM    H6F15475   3.310   5.720   7.368  1.1775  1.6681 -0.7019
  141OSM    H6G15476   3.455   5.654   7.299 -0.2226 -2.2817  4.2253
  141OSM    C7F15477   3.291   5.504   7.317 -0.5456  0.6254  0.0931
  141OSM    H7F15478   3.347   5.422   7.268  0.7853 -0.7703  3.6719
  141OSM    H7G15479   3.184   5.503   7.286 -1.1518  0.0342  2.0755
  141OSM    C8F15480   3.293   5.478   7.472 -0.0179  0.0238  0.2444
  141OSM    H8F15481   3.243   5.567   7.516 -1.5910  0.9519 -3.1137
  141OSM    H8G15482   3.400   5.478   7.502  0.5435  3.3782 -1.3049
  141OSM    C9F15483   3.235   5.349   7.504  0.6352 -0.3370 -0.0035
  141OSM    H9F15484   3.310   5.273   7.530  0.8251  0.9263  3.6502
  141OSM   C10F15485   3.102   5.323   7.542  0.2906  0.2701  0.2883
  141OSM   H10F15486   3.071   5.223   7.573  0.7191 -0.1807 -0.6807
  141OSM   C11F15487   2.988   5.429   7.530  0.0489  0.2894 -0.2770
  141OSM   H11F15488   2.894   5.371   7.516  1.2426 -1.2454 -2.7207
  141OSM   H11G15489   2.991   5.489   7.437  0.2991  2.4497  1.0739
  141OSM   C12F15490   2.985   5.526   7.646  0.2112  0.2876 -0.0729
  141OSM   H12F15491   2.943   5.622   7.608  1.5449  0.6543 -0.6927
  141OSM   H12G15492   3.087   5.549   7.685 -0.4270  0.0564  1.8617
  141OSM   C13F15493   2.905   5.476   7.768 -0.0204 -0.0772 -0.4662
  141OSM   H13F15494   2.809   5.437   7.728 -0.0642  0.3426 -0.7845
  141OSM   H13G15495   2.876   5.560   7.835 -2.0228  0.9815 -2.5107
  141OSM   C14F15496   2.974   5.380   7.858  0.5997 -0.4196 -0.0416
  141OSM   H14F15497   3.073   5.424   7.882  0.5652 -1.6426  2.7222
  141OSM   H14G15498   2.976   5.279   7.812 -1.3033 -0.4549 -0.1178
  141OSM   C15F15499   2.918   5.351   7.996  0.1443 -0.4719 -0.4767
  141OSM   H15F15500   2.820   5.299   7.989 -0.4441  0.7601 -2.0465
  141OSM   H15G15501   2.894   5.441   8.057  0.3162 -1.8652  1.7695
  141OSM   C16F15502   3.011   5.248   8.073 -0.4688  0.4222  0.0852
  141OSM   H16F15503   3.107   5.301   8.089 -0.5957  0.5917  0.2835
  141OSM   H16G15504   3.022   5.162   8.004  1.1977  1.3869 -0.9126
  141OSM   C17F15505   2.960   5.206   8.211  0.0440 -0.3797 -0.2226
  141OSM   H17F15506   3.024   5.123   8.247  0.3579 -0.2765 -0.5369
  141OSM   H17G15507   2.859   5.161   8.207 -0.3515  0.4200  0.4263
  141OSM   C18F15508   2.947   5.317   8.318  0.5958  0.7336 -0.3849
  141OSM   H18F15509   2.869   5.385   8.280 -0.2275 -0.1494 -0.3069
  141OSM   H18G15510   3.045   5.369   8.322  1.3671 -0.6866  0.0014
  141OSM   H18H15511   2.914   5.268   8.413 -3.5383 -0.9894 -2.4574
  142OSM      N15512   5.489   0.759   5.871 -0.3319 -0.2949  0.0469
  142OSM    C1515513   5.611   0.699   5.810  0.4690 -0.4722  0.6285
  142OSM   H15A15514   5.680   0.774   5.774  0.4327 -0.1552  1.2234
  142OSM   H15B15515   5.583   0.646   5.719  0.2853 -0.4477  0.6702
  142OSM   H15C15516   5.661   0.634   5.880  0.8520  0.1139  0.9074
  142OSM    C1415517   5.445   0.872   5.784  0.4794 -0.1571  0.1859
  142OSM   H14A15518   5.526   0.934   5.749  0.1910 -0.2278 -0.6225
  142OSM   H14B15519   5.381   0.936   5.842 -0.6652  0.6365 -1.8475
  142OSM   H14C15520   5.393   0.832   5.698 -1.0398 -0.6916  1.3102
  142OSM    C1315521   5.385   0.655   5.891  0.7915  0.0938 -0.3465
  142OSM   H13A15522   5.300   0.700   5.941  0.2229 -0.9644 -0.3330
  142OSM   H13B15523   5.427   0.572   5.946 -1.1879 -1.0757 -0.4999
  142OSM   H13C15524   5.358   0.624   5.791 -0.7393  2.5431 -0.7782
  142OSM    C1215525   5.535   0.813   6.001 -0.1298  1.0447 -0.6665
  142OSM   H12A15526   5.613   0.886   5.986  0.7532 -0.0860 -1.7949
  142OSM   H12B15527   5.588   0.736   6.055  0.5377  1.7307 -0.3313
  142OSM    C1115528   5.427   0.859   6.103 -0.0684 -0.6522  0.1280
  142OSM   H11A15529   5.470   0.881   6.203 -1.8757  1.6600  0.4723
  142OSM   H11B15530   5.359   0.773   6.123 -0.3999 -0.0878  1.5929
  142OSM      P15531   5.405   1.120   6.085  0.2397 -0.2142 -0.1192
  142OSM    O1315532   5.543   1.134   6.025 -0.2689 -0.2248 -0.5914
  142OSM    O1415533   5.303   1.214   6.038 -0.6041  0.0612  0.7221
  142OSM    O1115534   5.403   1.134   6.247 -0.1712 -0.1908  0.3957
  142OSM    O1215535   5.352   0.973   6.064  0.0566 -0.4303 -0.7841
  142OSM    C1S15536   5.273   1.128   6.307  0.1241 -0.1748 -0.3161
  142OSM    H1S15537   5.239   1.022   6.301 -0.5962  0.0388 -0.1137
  142OSM    H1T15538   5.193   1.196   6.270 -1.2240 -0.5220  1.8112
  142OSM     NF15539   5.176   1.122   6.538  0.1909 -0.0850  0.1168
  142OSM    HNF15540   5.104   1.181   6.574 -2.2650 -2.2217 -0.9606
  142OSM    C2S15541   5.282   1.176   6.457 -0.5022 -0.6998  0.1383
  142OSM    H2S15542   5.373   1.127   6.497  0.5959  0.0378 -1.3594
  142OSM    C3S15543   5.289   1.326   6.466 -0.5053  0.7752 -0.3595
  142OSM    H3S15544   5.197   1.374   6.425  0.2594  0.5820 -2.3935
  142OSM     O315545   5.405   1.371   6.391 -0.2250 -0.3886 -0.0925
  142OSM    HO315546   5.438   1.303   6.331 -1.1801 -0.4902 -0.5166
  142OSM    C4S15547   5.315   1.359   6.609  0.4109  0.2789 -0.3329
  142OSM    H4S15548   5.405   1.322   6.660 -0.5228  1.7886  2.6476
  142OSM    C5S15549   5.239   1.431   6.691  0.3635  0.2602 -0.4638
  142OSM    H5S15550   5.141   1.461   6.652  0.5648  1.1757 -0.2931
  142OSM    C6S15551   5.267   1.468   6.835 -0.4533 -0.7724  0.4725
  142OSM    H6S15552   5.269   1.578   6.850  2.1114 -0.6893 -0.0238
  142OSM    H6T15553   5.373   1.437   6.851  0.0008 -0.9079 -2.2799
  142OSM    C7S15554   5.170   1.401   6.933  0.3845 -0.2824 -0.3616
  142OSM    H7S15555   5.150   1.293   6.918 -1.8783 -0.3577  2.4648
  142OSM    H7T15556   5.074   1.449   6.903  0.2239 -0.7622 -0.6287
  142OSM    C8S15557   5.191   1.436   7.078 -0.3240  0.6855  0.1659
  142OSM    H8S15558   5.199   1.547   7.088  1.0520  0.6465 -0.3561
  142OSM    H8T15559   5.288   1.398   7.117  0.1755  3.4742  1.9972
  142OSM    C9S15560   5.082   1.386   7.167  0.4813  0.2998 -0.2891
  142OSM    H9S15561   5.079   1.275   7.174 -1.2026  0.3505  0.3831
  142OSM    H9T15562   4.986   1.428   7.130 -0.1560 -0.9581 -0.1254
  142OSM   C10S15563   5.088   1.436   7.314  0.1899  0.2666  0.1310
  142OSM   H10S15564   5.000   1.392   7.365  2.2328 -4.4217  0.1163
  142OSM   H10T15565   5.085   1.547   7.304  0.5689  0.0901 -3.0490
  142OSM   C11S15566   5.218   1.395   7.396 -0.3130 -0.6955  0.0850
  142OSM   H11S15567   5.309   1.428   7.340 -1.2243  0.7753 -0.6061
  142OSM   H11T15568   5.220   1.284   7.398  0.5324 -0.6815  0.6923
  142OSM   C12S15569   5.222   1.434   7.543 -0.6167 -0.3065  0.1983
  142OSM   H12S15570   5.311   1.387   7.590  0.0117  0.1540 -0.5138
  142OSM   H12T15571   5.138   1.387   7.598 -0.7763  1.2171  1.3462
  142OSM   C13S15572   5.216   1.590   7.561  0.4717  0.6592  0.9677
  142OSM   H13S15573   5.111   1.626   7.561  0.3968  0.4472  1.0738
  142OSM   H13T15574   5.274   1.638   7.480 -0.0895  0.5173  0.4786
  142OSM   C14S15575   5.289   1.642   7.693 -0.5117  0.0182  1.1578
  142OSM   H14S15576   5.288   1.752   7.684  1.1934  0.0297  0.6634
  142OSM   H14T15577   5.396   1.614   7.681 -0.9358 -0.8495 -1.1210
  142OSM   C15S15578   5.230   1.590   7.823 -0.3265  0.2981  0.3438
  142OSM   H15S15579   5.244   1.479   7.823  0.6020  0.4086  1.0545
  142OSM   H15T15580   5.127   1.629   7.835 -0.9333 -1.1114 -0.0201
  142OSM   C16S15581   5.300   1.635   7.948 -1.0427 -0.3083 -0.6119
  142OSM   H16S15582   5.287   1.743   7.972  3.0722  0.0954  0.5642
  142OSM   H16T15583   5.411   1.625   7.953 -1.2699 -3.0333  3.1645
  142OSM   C17S15584   5.242   1.570   8.072 -0.6373  0.4330 -0.0956
  142OSM   H17S15585   5.230   1.460   8.065  1.6065  0.1838 -0.5868
  142OSM   H17T15586   5.140   1.615   8.075  0.7007  3.9753 -1.7783
  142OSM   C18S15587   5.310   1.603   8.207  0.0688 -0.5691  0.5902
  142OSM   H18S15588   5.305   1.712   8.229 -0.2220 -0.6450  0.9090
  142OSM   H18T15589   5.418   1.579   8.205  0.1436 -0.3274  1.2284
  142OSM   H18U15590   5.262   1.538   8.284 -1.3681 -1.5494 -1.0669
  142OSM    C1F15591   5.174   0.993   6.578 -0.3848  0.5983 -0.1026
  142OSM     OF15592   5.237   0.904   6.525 -0.0536  0.2176  0.0327
  142OSM    C2F15593   5.103   0.962   6.707  0.3438  0.2649 -0.6419
  142OSM    H2F15594   4.996   0.991   6.711  0.9854  2.7895  0.7112
  142OSM    H2G15595   5.163   1.016   6.783  1.9306 -2.0816 -0.0972
  142OSM    C3F15596   5.126   0.811   6.738 -0.3303  0.2051  0.6732
  142OSM    H3F15597   5.229   0.784   6.768 -1.3264 -1.9268  2.4904
  142OSM    H3G15598   5.108   0.743   6.652  1.1655 -0.5975  0.9713
  142OSM    C4F15599   5.039   0.768   6.858 -0.1113  0.2533  0.7064
  142OSM    H4F15600   5.036   0.657   6.865 -1.7367  0.2001 -0.2357
  142OSM    H4G15601   4.934   0.794   6.833 -0.9607 -3.4895 -0.3479
  142OSM    C5F15602   5.075   0.830   6.991  0.5944  0.2485 -0.0148
  142OSM    H5F15603   5.080   0.941   6.988  2.4186  0.1706 -1.2136
  142OSM    H5G15604   5.176   0.796   7.022  0.7398  1.5653  1.0762
  142OSM    C6F15605   4.977   0.803   7.110 -0.2542  0.1951  0.2961
  142OSM    H6F15606   4.991   0.695   7.131 -2.4451 -1.0830 -3.7991
  142OSM    H6G15607   4.875   0.821   7.069 -0.5568 -1.0598  0.4761
  142OSM    C7F15608   5.024   0.875   7.242  0.2450  0.1224  0.4885
  142OSM    H7F15609   4.991   0.980   7.234  2.0210  0.9317  2.7362
  142OSM    H7G15610   5.134   0.865   7.243  0.4005 -0.8845 -3.9936
  142OSM    C8F15611   4.957   0.815   7.371 -0.8936  0.0512 -0.0524
  142OSM    H8F15612   5.018   0.839   7.460 -1.5204  0.2183  0.3404
  142OSM    H8G15613   4.951   0.704   7.364 -1.1572 -0.0145  1.0218
  142OSM    C9F15614   4.812   0.844   7.393 -0.7737 -0.0574  0.6659
  142OSM    H9F15615   4.735   0.767   7.372 -3.1390  0.9015  4.7325
  142OSM   C10F15616   4.762   0.956   7.451 -0.1620 -0.3628 -0.4954
  142OSM   H10F15617   4.655   0.974   7.470  0.0382 -0.4240  0.8264
  142OSM   C11F15618   4.853   1.071   7.487 -0.0765  0.0916 -0.4007
  142OSM   H11F15619   4.795   1.162   7.461 -0.1595 -0.7219 -3.3254
  142OSM   H11G15620   4.949   1.078   7.434 -0.7756  1.6030 -1.5261
  142OSM   C12F15621   4.900   1.062   7.636 -0.0204 -0.8256  0.1081
  142OSM   H12F15622   4.965   0.973   7.642  1.3229 -0.0233 -1.5696
  142OSM   H12G15623   4.823   1.050   7.715  2.3885 -0.1017  2.7192
  142OSM   C13F15624   4.965   1.194   7.686  0.9848  0.7269 -0.1836
  142OSM   H13F15625   4.895   1.275   7.658  0.6633  1.7117  3.1238
  142OSM   H13G15626   5.056   1.200   7.623 -0.0488  1.2754 -1.6892
  142OSM   C14F15627   5.006   1.206   7.832  0.3978 -0.2850  0.3408
  142OSM   H14F15628   5.053   1.303   7.857 -1.0834  1.4421 -2.9507
  142OSM   H14G15629   5.075   1.122   7.856 -1.5803 -2.1555 -0.1637
  142OSM   C15F15630   4.889   1.195   7.927 -0.2051 -0.4690 -0.0908
  142OSM   H15F15631   4.856   1.090   7.936  2.8589 -1.4718  0.7934
  142OSM   H15G15632   4.805   1.257   7.889  0.4201 -0.0619 -0.8496
  142OSM   C16F15633   4.915   1.248   8.068 -0.2326 -0.6714  0.1231
  142OSM   H16F15634   4.827   1.217   8.127 -1.0938  1.3390 -0.0257
  142OSM   H16G15635   4.895   1.356   8.053 -0.6497 -0.4318  2.1026
  142OSM   C17F15636   5.046   1.203   8.132 -0.6684  0.2033 -0.6249
  142OSM   H17F15637   5.128   1.254   8.079 -0.8530  1.0306 -0.1425
  142OSM   H17G15638   5.058   1.092   8.128  1.9885  0.3670  0.8408
  142OSM   C18F15639   5.058   1.249   8.282  0.2029 -0.5288 -0.1858
  142OSM   H18F15640   4.987   1.184   8.338  1.0295 -0.7972  0.5626
  142OSM   H18G15641   5.037   1.358   8.290  0.3402 -0.5009 -0.2006
  142OSM   H18H15642   5.157   1.227   8.325 -0.8427 -2.4549  1.3802
  143OSM      N15643   0.484   0.708   6.342  0.5581 -0.5310  0.5911
  143OSM    C1515644   0.477   0.629   6.468 -0.1441  0.4299 -0.0534
  143OSM   H15A15645   0.513   0.687   6.552 -3.6185 -0.9969  2.6707
  143OSM   H15B15646   0.540   0.543   6.453 -2.1419 -0.7630 -2.2803
  143OSM   H15C15647   0.376   0.606   6.499 -0.3106 -1.2855 -1.6901
  143OSM    C1415648   0.409   0.837   6.368 -0.3590 -0.1156 -0.6958
  143OSM   H14A15649   0.307   0.817   6.399 -0.3811 -2.1266 -1.8644
  143OSM   H14B15650   0.417   0.897   6.278 -0.3813  0.3225 -0.4083
  143OSM   H14C15651   0.458   0.883   6.453 -0.5239  0.0972 -0.7142
  143OSM    C1315652   0.627   0.735   6.298 -0.7762 -0.3880 -0.6625
  143OSM   H13A15653   0.621   0.823   6.236 -0.0339  0.9027  1.0155
  143OSM   H13B15654   0.658   0.642   6.253 -1.3125 -1.2104  0.6160
  143OSM   H13C15655   0.679   0.767   6.387  1.9043 -3.2284 -1.0370
  143OSM    C1215656   0.412   0.629   6.229 -0.0326  0.1933  0.1085
  143OSM   H12A15657   0.420   0.691   6.141 -0.1693  1.2234  0.8051
  143OSM   H12B15658   0.307   0.624   6.253  0.4402 -0.7650  2.1675
  143OSM    C1115659   0.451   0.480   6.206 -0.9170  0.4213 -0.2828
  143OSM   H11A15660   0.378   0.440   6.133 -1.4198  1.5853 -0.4453
  143OSM   H11B15661   0.435   0.423   6.300  0.8206 -0.6573 -0.6155
  143OSM      P15662   0.696   0.379   6.240 -0.3232 -0.2765 -0.0771
  143OSM    O1315663   0.704   0.243   6.176 -0.0514 -0.7051 -0.0556
  143OSM    O1415664   0.826   0.452   6.240 -0.2993  0.4550  0.1747
  143OSM    O1115665   0.640   0.368   6.394 -0.1524  0.2781  0.4540
  143OSM    O1215666   0.587   0.467   6.162  0.0788 -0.0927 -0.1491
  143OSM    C1S15667   0.740   0.387   6.499  0.4048 -1.6404  0.5371
  143OSM    H1S15668   0.771   0.494   6.497 -0.5854 -1.3166 -2.7422
  143OSM    H1T15669   0.832   0.325   6.489  0.4841 -1.2673 -1.3506
  143OSM     NF15670   0.769   0.416   6.746 -0.4429  0.1539 -0.2042
  143OSM    HNF15671   0.834   0.356   6.791  1.2526  0.3459 -2.2204
  143OSM    C2S15672   0.682   0.355   6.639 -0.4611  0.3086 -0.5613
  143OSM    H2S15673   0.588   0.414   6.648 -1.2154 -1.1092  1.6869
  143OSM    C3S15674   0.661   0.206   6.659  0.4077 -0.3965 -0.5411
  143OSM    H3S15675   0.762   0.162   6.672 -0.0375 -1.0457  0.9318
  143OSM     O315676   0.609   0.138   6.544  0.5467 -0.0562  0.3519
  143OSM    HO315677   0.594   0.204   6.477 -2.5736 -0.1970  0.7731
  143OSM    C4S15678   0.581   0.186   6.788  0.4635  0.0788  0.2529
  143OSM    H4S15679   0.650   0.175   6.873 -0.6120  3.5245  1.7199
  143OSM    C5S15680   0.448   0.191   6.818 -0.9387  0.6647  0.3903
  143OSM    H5S15681   0.377   0.223   6.740  0.2146  0.8319 -0.6245
  143OSM    C6S15682   0.400   0.160   6.956 -0.2344  0.5144 -0.4598
  143OSM    H6S15683   0.305   0.104   6.949 -0.5424  0.8579  0.7447
  143OSM    H6T15684   0.392   0.254   7.015  0.7756 -0.2008  0.8614
  143OSM    C7S15685   0.491   0.062   7.038  0.3321  0.0098 -0.0225
  143OSM    H7S15686   0.601   0.079   7.042  0.8906 -2.1013 -2.9817
  143OSM    H7T15687   0.487  -0.041   6.998  1.6267 -0.6671  1.4666
  143OSM    C8S15688   0.439   0.053   7.189 -0.0241 -0.3057 -0.6453
  143OSM    H8S15689   0.334   0.018   7.201 -1.0508  3.0280  1.5814
  143OSM    H8T15690   0.436   0.155   7.232  0.1664 -0.9492  0.9686
  143OSM    C9S15691   0.530  -0.021   7.286  0.2781  0.0502 -0.3583
  143OSM    H9S15692   0.632   0.024   7.289  0.0163  0.6277  0.4438
  143OSM    H9T15693   0.541  -0.122   7.242  1.1855  0.4333 -1.0337
  143OSM   C10S15694   0.469  -0.039   7.426  0.4675  0.2734 -0.2465
  143OSM   H10S15695   0.374  -0.095   7.410  0.7816 -0.3628  0.0476
  143OSM   H10T15696   0.453   0.056   7.481  1.1826  1.0243 -1.3104
  143OSM   C11S15697   0.557  -0.134   7.515  0.5163 -0.6617  0.1381
  143OSM   H11S15698   0.645  -0.072   7.542  1.6006 -1.8242 -0.5776
  143OSM   H11T15699   0.597  -0.220   7.456  1.1652 -0.3191  0.0619
  143OSM   C12S15700   0.485  -0.192   7.634  0.3698 -0.0769 -0.2458
  143OSM   H12S15701   0.414  -0.271   7.604 -1.1444  0.0960  2.5746
  143OSM   H12T15702   0.438  -0.109   7.691  1.1376 -0.2880  0.7245
  143OSM   C13S15703   0.586  -0.275   7.725  0.6331  0.3415  0.0913
  143OSM   H13S15704   0.684  -0.223   7.722  1.0811 -0.4579  0.5303
  143OSM   H13T15705   0.597  -0.377   7.681 -1.4631 -0.4486  1.2464
  143OSM   C14S15706   0.527  -0.285   7.868  0.0040 -0.1913 -0.3541
  143OSM   H14S15707   0.435  -0.347   7.873  0.8152 -1.3016  1.6321
  143OSM   H14T15708   0.508  -0.178   7.890 -0.1251 -0.2418 -0.2178
  143OSM   C15S15709   0.615  -0.333   7.983  0.1536  0.1065  0.0210
  143OSM   H15S15710   0.709  -0.273   7.982 -1.4454  2.7535  0.6895
  143OSM   H15T15711   0.631  -0.443   7.976 -0.1794 -0.0876  1.8140
  143OSM   C16S15712   0.569  -0.303   8.130 -0.3149 -0.3306  0.9992
  143OSM   H16S15713   0.464  -0.337   8.138  0.0779 -1.5945  1.0154
  143OSM   H16T15714   0.565  -0.192   8.139 -0.0293 -0.1861 -0.3312
  143OSM   C17S15715   0.652  -0.369   8.237  0.6496  0.2707  0.2919
  143OSM   H17S15716   0.760  -0.348   8.221  0.7837 -0.1403  0.6604
  143OSM   H17T15717   0.635  -0.478   8.230  1.8123  0.1354 -0.6662
  143OSM   C18S15718   0.604  -0.313   8.371 -0.0417 -0.1883 -0.1662
  143OSM   H18S15719   0.494  -0.328   8.368  0.0313 -0.6183 -1.7787
  143OSM   H18T15720   0.628  -0.206   8.388  2.4408 -0.8376  0.7704
  143OSM   H18U15721   0.646  -0.368   8.458  1.5103  0.0877 -0.7119
  143OSM    C1F15722   0.775   0.544   6.775 -0.4116 -0.5036 -0.5035
  143OSM     OF15723   0.692   0.619   6.733 -0.0240  0.5178  0.6746
  143OSM    C2F15724   0.885   0.592   6.867  0.0415 -0.2922  0.0349
  143OSM    H2F15725   0.918   0.688   6.823 -0.8616 -0.0114 -0.0509
  143OSM    H2G15726   0.972   0.523   6.870  0.0319 -0.2845  0.4655
  143OSM    C3F15727   0.835   0.627   7.002  0.3466 -0.3226  0.1273
  143OSM    H3F15728   0.750   0.698   7.008 -0.7963 -1.7470  1.7606
  143OSM    H3G15729   0.917   0.665   7.068  0.4319 -2.0363  1.0747
  143OSM    C4F15730   0.779   0.496   7.064  0.0293 -0.6218 -1.1380
  143OSM    H4F15731   0.866   0.427   7.069  2.4519  2.1437 -2.3608
  143OSM    H4G15732   0.699   0.460   6.995 -0.3882 -1.5918 -0.1784
  143OSM    C5F15733   0.717   0.513   7.202 -0.0769 -0.2593  0.4388
  143OSM    H5F15734   0.656   0.601   7.229  0.3088  0.5094 -1.1181
  143OSM    H5G15735   0.801   0.527   7.273  0.7921  0.2987 -0.6762
  143OSM    C6F15736   0.647   0.382   7.237 -0.7786  0.0676  0.3295
  143OSM    H6F15737   0.722   0.300   7.247  2.8246  3.0439  0.1325
  143OSM    H6G15738   0.581   0.351   7.154 -1.9505  1.5663  0.6729
  143OSM    C7F15739   0.564   0.391   7.366  0.1886 -0.5484  0.2480
  143OSM    H7F15740   0.494   0.305   7.376 -0.7294 -0.2313 -2.4801
  143OSM    H7G15741   0.487   0.469   7.349  0.9022 -0.0614 -0.8905
  143OSM    C8F15742   0.645   0.419   7.492 -0.3108  0.3006 -0.3338
  143OSM    H8F15743   0.574   0.426   7.577  2.2088  2.7622  1.7955
  143OSM    H8G15744   0.695   0.517   7.474  1.3694 -0.3143  0.7138
  143OSM    C9F15745   0.760   0.319   7.518  0.2915 -0.1856 -0.3361
  143OSM    H9F15746   0.829   0.300   7.435 -0.1525 -1.2912 -0.4694
  143OSM   C10F15747   0.773   0.254   7.638 -0.1340  0.2208  0.0054
  143OSM   H10F15748   0.859   0.189   7.659  0.0987  0.8609  1.1703
  143OSM   C11F15749   0.694   0.271   7.764  0.4314  0.1703 -0.7195
  143OSM   H11F15750   0.643   0.367   7.784  1.3801  0.5115  0.1942
  143OSM   H11G15751   0.760   0.262   7.853 -0.9101 -0.1616  0.2753
  143OSM   C12F15752   0.601   0.149   7.771  0.0939  0.4063  0.5895
  143OSM   H12F15753   0.649   0.055   7.808  1.1592  0.6432 -0.1480
  143OSM   H12G15754   0.563   0.118   7.671  0.0902 -1.3606  1.0931
  143OSM   C13F15755   0.485   0.176   7.870 -0.4943  0.7415 -0.1794
  143OSM   H13F15756   0.405   0.100   7.856 -0.8277  0.4145  2.9681
  143OSM   H13G15757   0.449   0.277   7.844 -2.3407 -0.1982 -1.5523
  143OSM   C14F15758   0.538   0.148   8.011  0.6886  0.5730 -0.9325
  143OSM   H14F15759   0.578   0.245   8.046  0.2633  1.0844 -1.8213
  143OSM   H14G15760   0.630   0.086   8.020 -0.2679 -0.5043  2.8744
  143OSM   C15F15761   0.425   0.093   8.102 -0.0160 -0.0091 -0.6143
  143OSM   H15F15762   0.406  -0.016   8.088 -1.3098  0.2648 -1.1994
  143OSM   H15G15763   0.334   0.148   8.069  0.6085  1.6029  0.2524
  143OSM   C16F15764   0.432   0.136   8.253  0.1335 -0.2358  0.6915
  143OSM   H16F15765   0.366   0.065   8.307  0.0062 -0.4678  0.2441
  143OSM   H16G15766   0.397   0.240   8.264  0.2926 -0.2669  1.5345
  143OSM   C17F15767   0.566   0.097   8.313  0.6872 -0.4529 -0.1162
  143OSM   H17F15768   0.638   0.177   8.287 -1.7377  1.9163  0.0297
  143OSM   H17G15769   0.603  -0.003   8.280 -0.6061 -1.0386  0.1268
  143OSM   C18F15770   0.561   0.095   8.465 -0.1986  0.0333  0.0601
  143OSM   H18F15771   0.502   0.181   8.503 -1.6685 -0.2268 -1.5124
  143OSM   H18G15772   0.661   0.096   8.513 -0.4951  1.2889  0.6895
  143OSM   H18H15773   0.516  -0.004   8.484 -2.9612  0.8808 -1.4391
  144OSM      N15774   2.199   4.022   5.942 -0.1397 -0.0590  0.4567
  144OSM    C1515775   2.324   4.084   5.877  0.1117 -0.4704 -0.1433
  144OSM   H15A15776   2.349   4.179   5.922  3.7263  0.1625 -3.0131
  144OSM   H15B15777   2.296   4.105   5.775  0.1459  1.1801  0.1664
  144OSM   H15C15778   2.404   4.012   5.887 -1.0754 -1.6860  0.9443
  144OSM    C1415779   2.084   4.109   5.904  0.3884  0.0119 -0.0111
  144OSM   H14A15780   1.991   4.082   5.952  0.6559 -1.1973 -0.1448
  144OSM   H14B15781   2.075   4.107   5.797  1.9071  0.6988 -0.1687
  144OSM   H14C15782   2.099   4.214   5.927 -1.8040  0.5274 -0.7124
  144OSM    C1315783   2.178   3.878   5.885  0.0794 -0.4098 -0.4020
  144OSM   H13A15784   2.250   3.805   5.919  1.6881  0.5351 -1.6146
  144OSM   H13B15785   2.172   3.878   5.777  0.5840 -0.6272 -0.4280
  144OSM   H13C15786   2.081   3.850   5.924 -0.1898 -0.0211 -0.7825
  144OSM    C1215787   2.222   4.010   6.092 -0.8416 -0.6503 -0.4073
  144OSM   H12A15788   2.220   4.108   6.136 -3.4424 -0.3294 -1.1103
  144OSM   H12B15789   2.321   3.967   6.103 -1.3383 -1.7190  0.1319
  144OSM    C1115790   2.120   3.951   6.186  0.4915  0.6333  0.1993
  144OSM   H11A15791   2.030   4.013   6.166  1.4584  1.4772 -1.7467
  144OSM   H11B15792   2.152   3.953   6.292 -2.5395 -1.3122  1.3046
  144OSM      P15793   2.177   3.689   6.185 -0.0834 -0.1190 -0.0631
  144OSM    O1315794   2.083   3.579   6.198  0.2171 -0.1351 -0.2049
  144OSM    O1415795   2.281   3.688   6.084  0.1397  0.2857 -0.0121
  144OSM    O1115796   2.233   3.728   6.325  0.0587  0.4261  0.1063
  144OSM    O1215797   2.085   3.820   6.148  0.1515  0.4775 -0.1479
  144OSM    C1S15798   2.313   3.647   6.399  0.0316 -0.2765 -0.3000
  144OSM    H1S15799   2.413   3.626   6.355 -0.5565  0.8222 -2.2971
  144OSM    H1T15800   2.261   3.555   6.432 -2.6792  0.6706 -1.6410
  144OSM     NF15801   2.459   3.652   6.584 -0.1601 -0.3982  0.1153
  144OSM    HNF15802   2.447   3.571   6.641 -1.5490 -0.8068 -0.6990
  144OSM    C2S15803   2.343   3.716   6.536 -0.3231 -0.1768 -1.1440
  144OSM    H2S15804   2.369   3.820   6.509 -0.1778 -0.3547 -1.6921
  144OSM    C3S15805   2.213   3.722   6.618 -0.6265  0.8741 -0.2594
  144OSM    H3S15806   2.173   3.620   6.641 -1.6974  1.3525  0.0731
  144OSM     O315807   2.105   3.793   6.552 -0.2309 -0.0280 -0.8622
  144OSM    HO315808   2.146   3.813   6.468  2.4579 -1.2973  0.0303
  144OSM    C4S15809   2.239   3.785   6.744  0.1922 -0.0807 -0.6905
  144OSM    H4S15810   2.249   3.895   6.739 -0.0369  0.0811  1.4835
  144OSM    C5S15811   2.255   3.725   6.860 -0.4316 -0.2184 -0.7090
  144OSM    H5S15812   2.267   3.616   6.866  2.1383  0.0668  1.3307
  144OSM    C6S15813   2.293   3.805   6.983  0.5149 -0.2990 -0.0462
  144OSM    H6S15814   2.314   3.913   6.966 -2.3430  0.4635  0.6570
  144OSM    H6T15815   2.385   3.760   7.026 -0.9251 -0.3299  3.3302
  144OSM    C7S15816   2.192   3.793   7.105 -0.2829  0.3624  0.0105
  144OSM    H7S15817   2.180   3.689   7.140  0.5025 -0.1159 -1.0688
  144OSM    H7T15818   2.093   3.836   7.078  0.3761  2.2621  0.4048
  144OSM    C8S15819   2.246   3.876   7.214  0.4783 -0.7529 -0.3471
  144OSM    H8S15820   2.203   3.976   7.190  0.0198 -1.7021 -4.1352
  144OSM    H8T15821   2.357   3.876   7.216  0.4954 -0.0289  2.6031
  144OSM    C9S15822   2.178   3.831   7.345  0.6854 -0.5501  0.3940
  144OSM    H9S15823   2.192   3.720   7.346 -0.3734 -0.6987  0.9073
  144OSM    H9T15824   2.069   3.849   7.336  0.4954 -0.9071  1.6944
  144OSM   C10S15825   2.240   3.904   7.470  0.4371 -0.5095 -0.3106
  144OSM   H10S15826   2.234   4.014   7.454  3.7811 -0.4267 -2.0099
  144OSM   H10T15827   2.349   3.880   7.465  0.3537 -1.0302  0.1732
  144OSM   C11S15828   2.187   3.860   7.605  0.0638 -0.7018  0.0954
  144OSM   H11S15829   2.194   3.749   7.609  3.3415 -0.8804 -4.2361
  144OSM   H11T15830   2.081   3.893   7.613  0.5063  0.5722  1.1233
  144OSM   C12S15831   2.267   3.933   7.711  0.4327  0.2787  0.1300
  144OSM   H12S15832   2.279   4.041   7.685 -0.8499  0.3000 -0.5189
  144OSM   H12T15833   2.371   3.897   7.712  1.1629  2.2581  0.1112
  144OSM   C13S15834   2.194   3.918   7.846  0.3333 -0.6652 -0.7009
  144OSM   H13S15835   2.085   3.928   7.829  0.6234  0.4913 -2.1319
  144OSM   H13T15836   2.238   3.986   7.922 -0.1433 -0.4936 -0.5783
  144OSM   C14S15837   2.220   3.772   7.894 -0.3597 -0.5309 -0.7899
  144OSM   H14S15838   2.311   3.737   7.840 -0.3311  0.7454 -1.6126
  144OSM   H14T15839   2.137   3.717   7.844  0.7313 -2.6993 -0.3473
  144OSM   C15S15840   2.208   3.746   8.050 -0.1249  0.7829  0.8268
  144OSM   H15S15841   2.301   3.794   8.086 -0.1131 -0.3482  2.3988
  144OSM   H15T15842   2.225   3.640   8.078  0.6859  0.6865  0.0044
  144OSM   C16S15843   2.087   3.807   8.118 -0.1287 -0.2809  0.7540
  144OSM   H16S15844   1.987   3.770   8.087 -0.0698  0.0032  0.2112
  144OSM   H16T15845   2.091   3.916   8.100  1.6627 -0.6601 -1.6550
  144OSM   C17S15846   2.100   3.788   8.268  0.1195  0.3452 -0.4548
  144OSM   H17S15847   2.185   3.847   8.309  0.1818 -1.9070  3.0864
  144OSM   H17T15848   2.121   3.685   8.302 -1.9004  0.3430  1.0081
  144OSM   C18S15849   1.980   3.830   8.351  0.0734  0.1883 -0.1419
  144OSM   H18S15850   2.021   3.850   8.452  1.6539 -1.8596 -0.3142
  144OSM   H18T15851   1.913   3.741   8.361 -1.1968  1.2569  1.5222
  144OSM   H18U15852   1.929   3.922   8.314 -1.7454 -1.1819 -1.2243
  144OSM    C1F15853   2.584   3.681   6.544  0.7190 -0.5885 -0.8999
  144OSM     OF15854   2.593   3.765   6.458 -0.1958 -0.4614  0.6278
  144OSM    C2F15855   2.699   3.618   6.614  0.5531 -0.1573  0.9492
  144OSM    H2F15856   2.782   3.589   6.546  0.4026 -0.3992  0.8676
  144OSM    H2G15857   2.673   3.524   6.666 -1.5764 -0.2000 -0.0660
  144OSM    C3F15858   2.748   3.697   6.737 -0.1915  0.4242 -0.7423
  144OSM    H3F15859   2.663   3.731   6.801 -0.0009  0.1847 -0.3591
  144OSM    H3G15860   2.793   3.796   6.712  0.4046  0.5550  0.7497
  144OSM    C4F15861   2.849   3.608   6.816  0.3994  0.0713  0.1080
  144OSM    H4F15862   2.919   3.562   6.744 -0.7648 -3.5848  1.1055
  144OSM    H4G15863   2.795   3.530   6.874  0.3312 -0.0104 -0.0670
  144OSM    C5F15864   2.932   3.681   6.926 -0.0996 -0.0950 -0.3941
  144OSM    H5F15865   2.859   3.737   6.988 -0.6692 -1.4580  0.2133
  144OSM    H5G15866   2.988   3.765   6.880  0.0132  0.4844  0.7837
  144OSM    C6F15867   3.024   3.591   7.015  0.0225  0.2210 -0.3602
  144OSM    H6F15868   3.096   3.538   6.950 -0.8665  1.6480 -2.6612
  144OSM    H6G15869   2.963   3.512   7.065 -0.1510  1.1225  0.8928
  144OSM    C7F15870   3.100   3.671   7.114 -0.4341 -0.1248  0.4801
  144OSM    H7F15871   3.034   3.752   7.153 -0.1931  0.4712 -0.3084
  144OSM    H7G15872   3.173   3.729   7.053  1.4184 -0.5203  2.2378
  144OSM    C8F15873   3.173   3.595   7.221 -0.6078 -0.7081  0.3789
  144OSM    H8F15874   3.224   3.501   7.190  1.8368  0.0271  1.8795
  144OSM    H8G15875   3.105   3.564   7.303 -1.4215 -2.2980 -0.8478
  144OSM    C9F15876   3.287   3.669   7.284 -0.8648 -0.5641  0.0649
  144OSM    H9F15877   3.342   3.719   7.203  0.4370 -0.9149  0.7013
  144OSM   C10F15878   3.318   3.688   7.414  0.2961 -0.3840  0.5290
  144OSM   H10F15879   3.404   3.748   7.448 -0.4951 -0.3376  2.5790
  144OSM   C11F15880   3.237   3.620   7.517  0.1365  0.1258  0.1264
  144OSM   H11F15881   3.223   3.513   7.491 -0.8593  0.2257  0.2207
  144OSM   H11G15882   3.140   3.674   7.515  0.6088  0.9651 -1.4334
  144OSM   C12F15883   3.289   3.638   7.667  0.2841  0.3955 -0.6390
  144OSM   H12F15884   3.210   3.599   7.735  1.0020  0.4856  0.2666
  144OSM   H12G15885   3.296   3.748   7.674 -1.6094  0.4750  0.5002
  144OSM   C13F15886   3.424   3.564   7.707  0.0751 -0.2760  0.1988
  144OSM   H13F15887   3.507   3.576   7.634 -0.0827 -0.6235 -0.0389
  144OSM   H13G15888   3.386   3.461   7.693 -0.0776  0.0245 -1.8525
  144OSM   C14F15889   3.467   3.603   7.849  0.4629 -0.3886  0.2575
  144OSM   H14F15890   3.395   3.568   7.927  0.1189 -0.7937 -0.2373
  144OSM   H14G15891   3.467   3.713   7.861 -2.0136 -0.3271  0.2795
  144OSM   C15F15892   3.601   3.551   7.900 -0.2394  0.4035 -0.3207
  144OSM   H15F15893   3.682   3.614   7.858  1.6077 -1.3825  0.4315
  144OSM   H15G15894   3.613   3.445   7.871 -0.8930  1.0011 -3.1463
  144OSM   C16F15895   3.625   3.547   8.054  0.2375 -0.5656  0.3600
  144OSM   H16F15896   3.729   3.514   8.073  0.3803 -0.7675 -0.7104
  144OSM   H16G15897   3.562   3.472   8.106 -0.2217 -0.6851 -0.3465
  144OSM   C17F15898   3.601   3.676   8.126  0.2628 -0.3861 -0.1288
  144OSM   H17F15899   3.494   3.704   8.123  0.9651  2.7120  0.3502
  144OSM   H17G15900   3.644   3.751   8.056 -1.9851 -0.7128 -1.9924
  144OSM   C18F15901   3.655   3.682   8.270  0.6809  0.2130 -0.5245
  144OSM   H18F15902   3.671   3.788   8.300 -0.0122  0.0611  0.4450
  144OSM   H18G15903   3.751   3.630   8.288  1.7604  2.6963  1.5431
  144OSM   H18H15904   3.582   3.642   8.344 -1.0918  0.4015 -2.0917
  145SAPE     N15905   2.592   4.980  10.587  0.4086 -0.3260  0.0187
  145SAPE   HN115906   2.650   5.028  10.659  1.5073 -1.6614  0.0530
  145SAPE   HN215907   2.562   5.044  10.510  0.0261  0.7073  0.9977
  145SAPE   HN315908   2.500   4.959  10.629  0.2162  0.9073  0.2576
  145SAPE   C1215909   2.655   4.863  10.519 -0.2551 -0.5081  0.2893
  145SAPE  H12A15910   2.577   4.809  10.461 -0.9565  2.8322 -2.1402
  145SAPE  H12B15911   2.696   4.805  10.604  2.0351  2.2613  1.2457
  145SAPE   C1115912   2.774   4.906  10.428  0.0623 -0.9881  0.5747
  145SAPE  H11A15913   2.735   4.987  10.362 -0.3381 -2.6287 -1.3442
  145SAPE  H11B15914   2.816   4.830  10.359  0.3341 -2.7778  2.6090
  145SAPE     P15915   2.999   4.883  10.566  0.2923 -0.4477  0.2518
  145SAPE   O1315916   3.120   4.952  10.526 -0.1353 -0.4962  0.1819
  145SAPE   O1415917   2.975   4.870  10.713  0.1573 -0.4546  0.5656
  145SAPE   O1215918   2.880   4.961  10.504  0.0773 -0.1965 -0.3305
  145SAPE   O1115919   2.985   4.740  10.499 -0.3095 -0.4648 -0.4044
  145SAPE    C115920   3.081   4.696  10.404  0.1676 -0.3369 -0.1962
  145SAPE    HA15921   3.185   4.718  10.436 -0.3645  1.3246  0.5127
  145SAPE    HB15922   3.080   4.585  10.399  1.5534 -0.4762  1.6712
  145SAPE    C215923   3.062   4.751  10.256  0.2734 -0.0503 -0.7298
  145SAPE    HS15924   3.023   4.854  10.264 -2.6492 -1.0455 -0.8356
  145SAPE   O2115925   2.974   4.657  10.191 -0.4412  0.0325  0.2517
  145SAPE   C2115926   2.894   4.709  10.093  0.3014 -1.2299 -0.0298
  145SAPE   O2215927   2.915   4.815  10.034 -0.0158 -0.1715  0.5439
  145SAPE   C2215928   2.782   4.605  10.064  0.0370  0.0988  0.1692
  145SAPE   H2R15929   2.716   4.651   9.987 -0.6874  1.2223  1.4169
  145SAPE   H2S15930   2.838   4.520  10.021  1.0860  0.5339  0.6487
  145SAPE    C315931   3.200   4.750  10.190 -0.1733 -0.3506  0.1683
  145SAPE    HX15932   3.234   4.644  10.195  5.0613  1.0589  0.8173
  145SAPE    HY15933   3.281   4.798  10.250 -0.5317  0.2581  0.1744
  145SAPE   O3115934   3.211   4.790  10.049  0.5581 -0.4630  0.0998
  145SAPE   C3115935   3.197   4.916  10.019  0.1647  0.0725 -0.1342
  145SAPE   O3215936   3.208   5.006  10.097  0.9953  0.1618 -0.1068
  145SAPE   C3215937   3.169   4.921   9.863 -0.5221 -0.2674  0.3226
  145SAPE   H2X15938   3.066   4.959   9.848 -0.9365 -2.0980 -2.0300
  145SAPE   H2Y15939   3.182   4.819   9.822  0.8522  1.1791 -3.1607
  145SAPE   C2315940   2.699   4.548  10.182  0.5248 -0.5896 -0.8073
  145SAPE   H3R15941   2.636   4.627  10.228  1.5354 -0.4841  0.4557
  145SAPE   H3S15942   2.764   4.509  10.264 -0.0808 -0.5300 -0.2866
  145SAPE   C2415943   2.605   4.426  10.138 -0.0233  0.3962  0.4832
  145SAPE   H4R15944   2.566   4.432  10.035  1.0103 -0.2550  0.0341
  145SAPE   H4S15945   2.522   4.435  10.212  1.1153  0.2622  1.8207
  145SAPE   C2515946   2.683   4.295  10.161 -0.6725  0.0100  0.7765
  145SAPE   H5R15947   2.711   4.285  10.266 -0.0579 -1.0389  0.5283
  145SAPE   C2615948   2.717   4.207  10.073  0.1211  0.8800  0.0675
  145SAPE   H6R15949   2.774   4.118  10.105 -0.2304  0.7108  0.2178
  145SAPE   C2715950   2.691   4.219   9.925  0.4933  0.3355  0.6648
  145SAPE   H7R15951   2.756   4.297   9.880  1.1527 -0.6322 -0.0979
  145SAPE   H7S15952   2.588   4.258   9.911  0.8636  1.4982  1.0585
  145SAPE   C2815953   2.697   4.086   9.861 -0.6385 -0.4660 -0.4023
  145SAPE   H8R15954   2.640   4.010   9.916  0.5243 -0.9915  0.0862
  145SAPE   C2915955   2.767   4.059   9.745 -0.6785 -0.0206  0.3933
  145SAPE   H9R15956   2.765   3.952   9.721  2.1366  0.0776 -0.6997
  145SAPE  C21015957   2.843   4.154   9.652 -0.0620  0.5255  0.3534
  145SAPE  H10R15958   2.910   4.084   9.598  1.0684  1.4235  0.5678
  145SAPE  H10S15959   2.899   4.227   9.715  2.4140  1.2933 -2.5211
  145SAPE  C21115960   2.761   4.237   9.566  0.6981  0.2733 -0.0197
  145SAPE  H11R15961   2.666   4.267   9.613 -0.8014  1.4144 -3.4463
  145SAPE  C21215962   2.795   4.281   9.443  0.2513 -0.0730 -0.0809
  145SAPE  H12R15963   2.724   4.348   9.391  1.4746  0.5462 -0.9878
  145SAPE  C21315964   2.927   4.245   9.374  0.2140 -1.4056  0.0911
  145SAPE  H13R15965   2.907   4.183   9.284  0.2507  0.3511 -1.1829
  145SAPE  H13S15966   2.996   4.185   9.436  0.1194  0.1835  1.8375
  145SAPE  C21415967   3.002   4.372   9.328  0.0300  0.0690 -0.8140
  145SAPE  H14R15968   3.052   4.428   9.408 -0.4548  0.6430 -0.9095
  145SAPE  C21515969   3.016   4.426   9.207 -0.0599 -0.3416 -0.0421
  145SAPE  H15R15970   3.085   4.511   9.202 -3.8673  3.0668  0.4400
  145SAPE  C21615971   2.963   4.382   9.072 -0.4520  1.2626  0.1753
  145SAPE  H16R15972   2.867   4.431   9.045 -1.1518 -0.2730 -0.2648
  145SAPE  H16S15973   2.970   4.271   9.077 -1.2784  1.1024 -1.6879
  145SAPE  C21715974   3.074   4.422   8.966  0.0416 -0.4855  0.5895
  145SAPE  H17R15975   3.072   4.355   8.877  0.8239 -0.9353  0.9004
  145SAPE  H17S15976   3.176   4.412   9.008  0.5282  0.9382 -0.2226
  145SAPE  C21815977   3.067   4.573   8.914  0.1615 -0.4189  0.5421
  145SAPE  H18R15978   3.105   4.639   8.995  2.8828  0.1641 -1.1100
  145SAPE  H18S15979   2.960   4.603   8.917 -0.3710 -2.2125  3.3312
  145SAPE  C21915980   3.155   4.605   8.795  0.2101  0.6633  0.0838
  145SAPE  H19R15981   3.255   4.558   8.805  0.6816  0.9135 -2.7612
  145SAPE  H19S15982   3.176   4.714   8.795  0.9186  0.5432 -1.0667
  145SAPE  C22015983   3.098   4.583   8.657 -0.2135 -1.2930 -0.1014
  145SAPE  H20R15984   3.019   4.506   8.662  0.0005 -1.6684 -1.9279
  145SAPE  H20S15985   3.176   4.559   8.582  0.2967  0.5699 -0.2285
  145SAPE  H20T15986   3.052   4.679   8.624 -0.6078 -1.2349  0.6025
  145SAPE   C3315987   3.262   5.019   9.782 -0.4668  0.1510  0.3275
  145SAPE   H3X15988   3.363   5.000   9.825 -0.9933  0.1109  1.5873
  145SAPE   H3Y15989   3.224   5.120   9.809 -2.6312 -0.8190  1.1267
  145SAPE   C3415990   3.264   4.983   9.631  0.3546  0.0570  0.2874
  145SAPE   H4X15991   3.240   4.875   9.620  1.1581 -0.1094  0.1507
  145SAPE   H4Y15992   3.364   4.998   9.586 -0.7060  0.1310 -2.1915
  145SAPE   C3515993   3.155   5.071   9.563  0.0208 -0.2566 -0.3643
  145SAPE   H5X15994   3.183   5.178   9.577 -1.4449  0.4105 -2.1864
  145SAPE   H5Y15995   3.054   5.055   9.607  0.5458 -0.2693  0.8994
  145SAPE   C3615996   3.141   5.068   9.410 -0.9448  0.1293  0.3662
  145SAPE   H6X15997   3.044   5.112   9.380 -0.8783 -0.5297 -0.8969
  145SAPE   H6Y15998   3.144   4.961   9.380  1.9714 -0.0169  0.8893
  145SAPE   C3715999   3.252   5.143   9.339 -0.1121  0.2224  0.0651
  145SAPE   H7X16000   3.352   5.137   9.387  0.6720 -0.4310 -1.5719
  145SAPE   H7Y16001   3.238   5.253   9.334  2.7447  0.5999 -1.8802
  145SAPE   C3816002   3.260   5.084   9.198  0.8466 -0.2649  0.2788
  145SAPE   H8X16003   3.159   5.104   9.157  0.3177 -0.7771  1.3081
  145SAPE   H8Y16004   3.284   4.976   9.191  1.0963 -0.1142 -1.6957
  145SAPE   C3916005   3.363   5.158   9.114  0.5713  0.1732 -0.0905
  145SAPE   H9X16006   3.468   5.164   9.150  0.2815  0.5235  0.7201
  145SAPE   H9Y16007   3.317   5.258   9.104 -0.1930 -0.1429  0.2048
  145SAPE  C31016008   3.380   5.114   8.968  0.1160 -0.1111 -0.0143
  145SAPE  H10X16009   3.426   5.013   8.974 -1.4887 -0.8951 -0.3293
  145SAPE  H10Y16010   3.454   5.183   8.921 -1.3121  1.8511  0.4859
  145SAPE  C31116011   3.256   5.112   8.885  0.1975 -0.3506 -0.2816
  145SAPE  H11X16012   3.204   5.210   8.878 -0.6266 -0.7883 -0.4324
  145SAPE  H11Y16013   3.184   5.042   8.932 -0.7699  1.7304  1.5105
  145SAPE  C31216014   3.286   5.061   8.743 -0.1871  0.4675  0.8174
  145SAPE  H12X16015   3.317   4.954   8.745  0.6330  0.6841  0.4209
  145SAPE  H12Y16016   3.365   5.128   8.702  0.4284  0.6852  2.3001
  145SAPE  C31316017   3.161   5.059   8.649 -0.5738  0.1428  0.9953
  145SAPE  H13X16018   3.187   5.009   8.553  0.5942  0.1369  1.3087
  145SAPE  H13Y16019   3.143   5.165   8.622  1.7485  0.4230  0.4058
  145SAPE  C31416020   3.038   4.989   8.701  0.6481 -0.4561 -0.2994
  145SAPE  H14X16021   3.014   5.033   8.800 -0.0636  0.6867 -0.9572
  145SAPE  H14Y16022   3.068   4.883   8.718  0.7626 -0.7823 -2.2613
  145SAPE  C31516023   2.905   4.993   8.620 -0.6166 -0.3511  1.1168
  145SAPE  H15X16024   2.933   4.945   8.524 -0.1651 -1.0019  1.5693
  145SAPE  H15Y16025   2.869   5.095   8.594 -3.5762 -1.9222 -1.6774
  145SAPE  C31616026   2.794   4.904   8.678 -0.0202  0.4002  0.0346
  145SAPE  H16X16027   2.750   4.966   8.759 -0.0788  1.8860 -1.0847
  145SAPE  H16Y16028   2.843   4.818   8.727 -1.8042  0.3690  1.8863
  145SAPE  C31716029   2.685   4.841   8.584 -0.2659 -0.8871  0.2747
  145SAPE  H17X16030   2.649   4.920   8.515 -0.3240  0.7672  2.0927
  145SAPE  H17Y16031   2.605   4.817   8.657 -1.0490  1.2232  0.1869
  145SAPE  C31816032   2.731   4.726   8.494 -0.0463 -0.4999 -0.3029
  145SAPE  H18X16033   2.812   4.764   8.428 -0.7465 -0.7128 -1.3007
  145SAPE  H18Y16034   2.652   4.686   8.427 -0.1209 -0.8805  0.0089
  145SAPE  H18Z16035   2.787   4.651   8.554  0.9250  1.5569  1.5196
  146SAPE     N16036   2.011   4.148  10.906 -0.6599  0.1834  0.1688
  146SAPE   HN116037   1.975   4.238  10.867  2.9023  2.0174  0.7354
  146SAPE   HN216038   1.932   4.120  10.968  0.2122  0.6762  1.5438
  146SAPE   HN316039   2.097   4.165  10.961  0.1750  0.4219 -1.1559
  146SAPE   C1216040   2.017   4.040  10.796 -0.5822  0.1923  0.2236
  146SAPE  H12A16041   1.911   4.012  10.781 -1.0941  1.6005  0.9850
  146SAPE  H12B16042   2.088   3.966  10.839 -1.0200  0.4164  1.3759
  146SAPE   C1116043   2.070   4.097  10.662 -0.0847 -0.0985 -0.5248
  146SAPE  H11A16044   2.005   4.180  10.626 -0.4041 -0.4601 -0.7786
  146SAPE  H11B16045   2.075   4.024  10.578  2.0539 -0.1920 -0.3787
  146SAPE     P16046   2.335   4.086  10.674 -0.4990 -0.4135 -0.2237
  146SAPE   O1316047   2.385   4.076  10.810 -0.1498  0.2508 -0.2793
  146SAPE   O1416048   2.321   3.964  10.594  0.0539  0.4272  0.6230
  146SAPE   O1216049   2.193   4.156  10.681  0.4567  0.3475  0.1248
  146SAPE   O1116050   2.425   4.196  10.602 -0.1684  0.1873  0.0988
  146SAPE    C116051   2.371   4.328  10.576 -0.1356 -0.3792 -0.0610
  146SAPE    HA16052   2.315   4.370  10.663 -0.5503  0.0701 -0.5419
  146SAPE    HB16053   2.454   4.402  10.579  0.8604 -1.4531  2.4068
  146SAPE    C216054   2.289   4.340  10.444  0.4131 -0.5522 -0.6467
  146SAPE    HS16055   2.186   4.305  10.463 -0.5445  2.1450 -0.5446
  146SAPE   O2116056   2.346   4.267  10.340  0.0794 -0.3583  0.2798
  146SAPE   C2116057   2.278   4.181  10.272 -0.5032  0.2450 -0.0939
  146SAPE   O2216058   2.158   4.159  10.288 -0.1672  0.1293  0.5173
  146SAPE   C2216059   2.362   4.111  10.170 -0.4632 -0.2057 -0.3283
  146SAPE   H2R16060   2.429   4.180  10.113 -0.9559 -1.0204 -1.9382
  146SAPE   H2S16061   2.428   4.053  10.238  1.3505  0.5271 -1.3705
  146SAPE    C316062   2.258   4.492  10.409 -0.6940 -0.1529 -0.3149
  146SAPE    HX16063   2.357   4.539  10.389 -0.8037 -0.3016 -1.2681
  146SAPE    HY16064   2.223   4.544  10.501 -1.4765 -2.6982  0.8935
  146SAPE   O3116065   2.182   4.501  10.287  0.0246 -0.0961 -0.1813
  146SAPE   C3116066   2.052   4.514  10.303  0.6512 -0.2600  0.3134
  146SAPE   O3216067   1.997   4.535  10.408 -0.5369 -0.0672 -0.5898
  146SAPE   C3216068   1.985   4.493  10.172  0.4816 -0.1453  0.2420
  146SAPE   H2X16069   1.894   4.556  10.174  0.2715 -0.4479  0.5773
  146SAPE   H2Y16070   1.944   4.389  10.174  0.8408 -0.3872 -2.1210
  146SAPE   C2316071   2.293   4.013  10.075  0.1972  0.1217 -0.1598
  146SAPE   H3R16072   2.235   3.942  10.138  0.6794  0.5035  0.7339
  146SAPE   H3S16073   2.373   3.953  10.027  0.7966 -1.8052  2.9872
  146SAPE   C2416074   2.198   4.066   9.965  0.0001 -0.0184  1.3094
  146SAPE   H4R16075   2.103   4.096  10.014 -0.1359 -2.7870  2.9146
  146SAPE   H4S16076   2.175   3.977   9.904  1.1157  0.4435  0.1687
  146SAPE   C2516077   2.258   4.180   9.887 -0.5121  0.5495  0.1014
  146SAPE   H5R16078   2.284   4.273   9.940  3.0868  0.7009 -1.6372
  146SAPE   C2616079   2.300   4.173   9.762  0.4022  0.0667 -0.1450
  146SAPE   H6R16080   2.338   4.262   9.710 -1.7561 -0.6159 -3.1939
  146SAPE   C2716081   2.282   4.050   9.680 -0.6590 -0.3086  0.6561
  146SAPE   H7R16082   2.195   4.061   9.612 -0.7524  0.1523  0.8443
  146SAPE   H7S16083   2.279   3.953   9.733  2.9143 -1.8813 -1.6215
  146SAPE   C2816084   2.405   4.046   9.586  0.2952  0.9293  0.0358
  146SAPE   H8R16085   2.480   3.971   9.613 -0.8550 -0.8815 -1.5807
  146SAPE   C2916086   2.440   4.113   9.469  0.0146 -0.2849  0.2440
  146SAPE   H9R16087   2.537   4.082   9.428 -0.7106 -0.3095 -1.5234
  146SAPE  C21016088   2.355   4.205   9.394  0.6256 -0.1033 -0.7096
  146SAPE  H10R16089   2.305   4.267   9.471 -0.2543 -1.5139 -0.0907
  146SAPE  H10S16090   2.278   4.145   9.341  1.0303 -0.4807 -0.8820
  146SAPE  C21116091   2.442   4.299   9.319  0.0785 -0.1158  0.3649
  146SAPE  H11R16092   2.524   4.344   9.378 -0.1705 -0.0082  0.6300
  146SAPE  C21216093   2.441   4.308   9.182 -0.0776  0.4391 -0.6789
  146SAPE  H12R16094   2.510   4.381   9.138  0.2727  0.6628  0.2087
  146SAPE  C21316095   2.346   4.244   9.089  0.6406 -0.4859  0.8543
  146SAPE  H13R16096   2.316   4.335   9.032  1.9841  0.3487  1.4365
  146SAPE  H13S16097   2.254   4.207   9.139 -0.3572 -1.7890 -1.7700
  146SAPE  C21416098   2.400   4.155   8.976 -0.3422 -0.3309 -0.5506
  146SAPE  H14R16099   2.459   4.202   8.896 -2.5592 -2.4779 -3.6481
  146SAPE  C21516100   2.395   4.021   8.953  0.3660  0.2455 -0.4187
  146SAPE  H15R16101   2.443   3.980   8.863 -0.0235 -1.3591  0.0688
  146SAPE  C21616102   2.330   3.914   9.041 -0.6892  0.6624  0.1364
  146SAPE  H16R16103   2.257   3.862   8.975  0.7145 -0.2891 -0.7197
  146SAPE  H16S16104   2.278   3.956   9.129  0.4810  2.0918  0.1927
  146SAPE  C21716105   2.438   3.812   9.085 -0.0954  0.4755 -0.1826
  146SAPE  H17R16106   2.488   3.758   9.002 -0.3976 -2.3712  1.3565
  146SAPE  H17S16107   2.382   3.732   9.138 -0.9998 -0.1399 -2.0031
  146SAPE  C21816108   2.535   3.869   9.187 -0.4171 -0.0776  0.8138
  146SAPE  H18R16109   2.472   3.908   9.269 -0.0964  1.3393  0.4141
  146SAPE  H18S16110   2.595   3.947   9.136  0.9683 -1.5688  0.0565
  146SAPE  C21916111   2.640   3.767   9.237 -0.0468  0.0094  0.0500
  146SAPE  H19R16112   2.718   3.762   9.158 -1.0511  1.2019 -1.0442
  146SAPE  H19S16113   2.589   3.670   9.252  0.0580  0.1230  1.2929
  146SAPE  C22016114   2.694   3.805   9.376 -0.3121  0.0964  0.3318
  146SAPE  H20R16115   2.734   3.908   9.361 -1.0955  0.0654 -2.5879
  146SAPE  H20S16116   2.757   3.728   9.424  1.0738  1.4541  0.7829
  146SAPE  H20T16117   2.616   3.824   9.453 -0.5143 -0.5353  0.2878
  146SAPE   C3316118   2.079   4.503  10.047 -0.0059  0.4732  0.3570
  146SAPE   H3X16119   2.180   4.461  10.065 -0.1066  0.1139  0.1082
  146SAPE   H3Y16120   2.092   4.613  10.040  0.0913  0.4253 -0.2413
  146SAPE   C3416121   2.019   4.465   9.911 -0.1688  0.5210  1.5729
  146SAPE   H4X16122   2.025   4.357   9.885  0.3599  0.7474  0.7314
  146SAPE   H4Y16123   2.085   4.516   9.838  0.2273  0.8645  2.1639
  146SAPE   C3516124   1.870   4.494   9.901  0.0291  0.2728 -0.1823
  146SAPE   H5X16125   1.854   4.593   9.950  0.3747  0.4805 -0.4776
  146SAPE   H5Y16126   1.807   4.425   9.961  0.0153  2.4523  2.5071
  146SAPE   C3616127   1.799   4.493   9.764  0.2471  0.2264 -0.6692
  146SAPE   H6X16128   1.704   4.548   9.775 -1.5036 -3.0755  2.6487
  146SAPE   H6Y16129   1.778   4.388   9.735 -1.8352  0.3599  0.2151
  146SAPE   C3716130   1.889   4.560   9.655  0.9351  0.4502  0.3677
  146SAPE   H7X16131   1.937   4.475   9.602  1.6104  1.0207  0.0439
  146SAPE   H7Y16132   1.964   4.625   9.706 -1.0833  2.4907  0.9238
  146SAPE   C3816133   1.805   4.635   9.552  0.1350  0.1072  0.3181
  146SAPE   H8X16134   1.768   4.723   9.609  1.1000  1.0430 -0.4426
  146SAPE   H8Y16135   1.716   4.579   9.517  0.8121  0.3369 -1.9685
  146SAPE   C3916136   1.880   4.688   9.425 -1.0220 -0.2838  0.1664
  146SAPE   H9X16137   1.980   4.734   9.441  0.4044 -2.0215 -2.8299
  146SAPE   H9Y16138   1.813   4.767   9.384  0.7548  1.6344  0.7381
  146SAPE  C31016139   1.909   4.572   9.323 -0.1884 -0.2928  1.1996
  146SAPE  H10X16140   1.819   4.528   9.276 -0.0722  0.4761  0.2096
  146SAPE  H10Y16141   1.959   4.493   9.382  2.9816 -1.6083 -2.7342
  146SAPE  C31116142   2.016   4.600   9.209 -0.2797  0.0113  0.6882
  146SAPE  H11X16143   2.108   4.640   9.257 -1.9762  1.7851  2.6888
  146SAPE  H11Y16144   1.979   4.683   9.146  0.7805 -1.1971 -1.6720
  146SAPE  C31216145   2.044   4.480   9.118 -0.1583  0.5718 -0.4360
  146SAPE  H12X16146   2.083   4.392   9.173  1.6194 -0.3462 -2.9383
  146SAPE  H12Y16147   2.134   4.503   9.057 -0.5176  1.2837 -0.7017
  146SAPE  C31316148   1.923   4.429   9.038 -0.2608  0.2228  0.4554
  146SAPE  H13X16149   1.847   4.377   9.102 -1.1402  1.8708  0.8227
  146SAPE  H13Y16150   1.968   4.346   8.979  0.1279 -0.8042  2.1247
  146SAPE  C31416151   1.852   4.543   8.961 -0.1308 -0.0529  0.3041
  146SAPE  H14X16152   1.927   4.609   8.912 -0.8135  1.0431  0.7109
  146SAPE  H14Y16153   1.800   4.620   9.022 -1.3290 -1.2633  0.8630
  146SAPE  C31516154   1.747   4.495   8.865  0.2330 -0.2590 -0.4133
  146SAPE  H15X16155   1.802   4.417   8.809  0.3466 -1.6393  1.5130
  146SAPE  H15Y16156   1.705   4.579   8.806  0.0278 -0.3562 -0.4066
  146SAPE  C31616157   1.630   4.424   8.930  0.0954 -0.3495  0.5619
  146SAPE  H16X16158   1.557   4.497   8.970 -0.4366 -0.7195  0.2653
  146SAPE  H16Y16159   1.665   4.356   9.011 -2.0218 -3.3677 -0.9054
  146SAPE  C31716160   1.547   4.339   8.836 -0.5082  0.3663  0.5936
  146SAPE  H17X16161   1.607   4.260   8.786  0.2504  0.1429  1.8021
  146SAPE  H17Y16162   1.506   4.406   8.757  2.5775 -0.5561 -2.0066
  146SAPE  C31816163   1.436   4.266   8.905  0.2831  0.1056  0.6837
  146SAPE  H18X16164   1.365   4.225   8.830 -0.7039  0.5166  1.3579
  146SAPE  H18Y16165   1.377   4.337   8.967 -1.1429  0.9393 -1.5008
  146SAPE  H18Z16166   1.460   4.181   8.972  1.3273 -0.3004 -0.1692
  147SAPE     N16167   3.186   5.174  10.704  0.1069 -0.4221 -0.8311
  147SAPE   HN116168   3.201   5.153  10.603 -2.6056 -2.3899 -0.9441
  147SAPE   HN216169   3.247   5.111  10.759  0.9959  0.4061 -0.8486
  147SAPE   HN316170   3.086   5.162  10.731 -0.3269 -0.2992 -2.3280
  147SAPE   C1216171   3.218   5.314  10.722 -0.2850 -0.1654 -0.6399
  147SAPE  H12A16172   3.157   5.350  10.808  1.9798  1.1599  0.4988
  147SAPE  H12B16173   3.192   5.372  10.631  0.1923  0.3498 -0.4583
  147SAPE   C1116174   3.366   5.328  10.749  0.1492  0.5331 -0.3522
  147SAPE  H11A16175   3.415   5.286  10.659  0.6990  1.0730 -0.3106
  147SAPE  H11B16176   3.399   5.278  10.843  1.1192 -1.1475 -1.5188
  147SAPE     P16177   3.522   5.538  10.753 -0.2612  0.1404 -0.3355
  147SAPE   O1316178   3.505   5.681  10.756  0.0910 -1.0514 -0.0479
  147SAPE   O1416179   3.612   5.478  10.848 -0.1278  0.3541 -0.3194
  147SAPE   O1216180   3.387   5.469  10.769 -0.5205  0.6428  0.7655
  147SAPE   O1116181   3.572   5.504  10.612  0.2138  0.6458 -0.0059
  147SAPE    C116182   3.675   5.413  10.575  0.4646 -0.0548 -0.0758
  147SAPE    HA16183   3.772   5.436  10.626  0.6641 -1.6342  0.3037
  147SAPE    HB16184   3.641   5.308  10.590 -0.8408  0.5882  1.8693
  147SAPE    C216185   3.699   5.420  10.420 -0.4412  0.4963 -0.9749
  147SAPE    HS16186   3.797   5.370  10.405  0.1176  0.8371  1.2271
  147SAPE   O2116187   3.708   5.556  10.377 -0.1062  0.1333 -0.8149
  147SAPE   C2116188   3.821   5.621  10.403 -0.1331 -0.6288 -0.3336
  147SAPE   O2216189   3.922   5.576  10.459  0.1669 -0.6143 -0.7323
  147SAPE   C2216190   3.805   5.763  10.344  0.2074 -0.0409 -0.0786
  147SAPE   H2R16191   3.696   5.785  10.346 -0.0575 -1.3062  0.3408
  147SAPE   H2S16192   3.856   5.841  10.405  2.5735 -0.5643 -1.2699
  147SAPE    C316193   3.578   5.332  10.353 -0.2892 -0.2498 -0.1512
  147SAPE    HX16194   3.479   5.368  10.387  0.6518  2.4569 -0.0053
  147SAPE    HY16195   3.593   5.232  10.401  0.3680  0.0906  0.3832
  147SAPE   O3116196   3.590   5.332  10.212  0.6505 -0.2629 -0.4688
  147SAPE   C3116197   3.504   5.410  10.152  0.1413  0.7873  0.7651
  147SAPE   O3216198   3.436   5.493  10.208  0.0467  0.1910 -0.3672
  147SAPE   C3216199   3.512   5.394   9.999  0.4464 -0.7712  0.7157
  147SAPE   H2X16200   3.541   5.288   9.983 -1.3195 -1.0518 -1.0611
  147SAPE   H2Y16201   3.588   5.461   9.954 -1.2045  0.4821 -0.3443
  147SAPE   C2316202   3.860   5.779  10.199 -0.1431 -0.6499 -0.4732
  147SAPE   H3R16203   3.969   5.759  10.202 -0.1857 -0.7985  1.2436
  147SAPE   H3S16204   3.853   5.888  10.180  3.2325 -0.3938 -0.8006
  147SAPE   C2416205   3.803   5.685  10.102 -0.2290 -0.2318  0.8049
  147SAPE   H4R16206   3.807   5.577  10.131  0.3553 -0.7509 -1.0901
  147SAPE   H4S16207   3.841   5.680   9.998 -0.8351  1.7207  0.4568
  147SAPE   C2516208   3.654   5.721  10.084  0.0478 -0.6389 -0.2036
  147SAPE   H5R16209   3.592   5.687  10.168 -0.2226  1.1945  0.3839
  147SAPE   C2616210   3.598   5.771   9.970 -0.5041  0.0744 -0.4394
  147SAPE   H6R16211   3.491   5.797   9.974  0.0592  2.7819 -0.6913
  147SAPE   C2716212   3.655   5.814   9.831 -0.7397  0.0793  0.4925
  147SAPE   H7R16213   3.565   5.815   9.765 -0.7224  0.1374  0.4696
  147SAPE   H7S16214   3.728   5.735   9.806  0.1585  0.6863  1.1218
  147SAPE   C2816215   3.726   5.945   9.831 -0.2020 -0.3439  0.0494
  147SAPE   H8R16216   3.777   5.983   9.920  0.2373 -0.5048 -0.1340
  147SAPE   C2916217   3.752   6.010   9.716 -0.2339 -0.3874  0.3613
  147SAPE   H9R16218   3.820   6.096   9.715 -0.8145  0.1217 -2.0969
  147SAPE  C21016219   3.722   5.969   9.572  0.5064  0.6224 -0.1525
  147SAPE  H10R16220   3.649   6.047   9.541 -1.8260 -1.3365  0.1048
  147SAPE  H10S16221   3.663   5.875   9.570  0.0883  0.8924 -1.8640
  147SAPE  C21116222   3.844   5.963   9.483  0.1668  0.3470  0.2643
  147SAPE  H11R16223   3.930   5.912   9.528  0.7065 -1.0912 -2.2020
  147SAPE  C21216224   3.859   6.016   9.359  1.6237 -0.5159 -0.3992
  147SAPE  H12R16225   3.953   5.997   9.305  1.6447  1.9043 -1.3418
  147SAPE  C21316226   3.743   6.080   9.285  0.3058 -0.0219 -0.0102
  147SAPE  H13R16227   3.785   6.147   9.207 -1.7076  0.2157 -0.9773
  147SAPE  H13S16228   3.686   6.135   9.363  0.2950 -2.6075  1.9702
  147SAPE  C21416229   3.652   5.985   9.217  0.6271  0.1583 -0.1427
  147SAPE  H14R16230   3.622   5.902   9.282 -2.5730  0.7497 -0.6650
  147SAPE  C21516231   3.615   5.995   9.087  0.1215 -0.8482 -0.4903
  147SAPE  H15R16232   3.559   5.913   9.040  1.2604 -0.7267 -2.1782
  147SAPE  C21616233   3.641   6.107   8.989  0.2576 -0.0336 -0.6205
  147SAPE  H16R16234   3.736   6.160   9.009 -0.1986  0.4394  0.3513
  147SAPE  H16S16235   3.551   6.171   9.001  0.9069  1.4855 -3.1369
  147SAPE  C21716236   3.621   6.051   8.848  0.2528 -0.1538 -0.4727
  147SAPE  H17R16237   3.578   6.136   8.790  0.9189 -0.0312 -0.8001
  147SAPE  H17S16238   3.555   5.962   8.844 -0.0126  0.0721 -1.8841
  147SAPE  C21816239   3.754   6.017   8.781  0.2424 -0.8288 -0.2826
  147SAPE  H18R16240   3.806   5.943   8.845 -0.9495 -2.3957 -1.0585
  147SAPE  H18S16241   3.816   6.107   8.801 -0.9612 -0.6215  3.1827
  147SAPE  C21916242   3.744   5.977   8.630 -0.1753 -0.7585  0.4837
  147SAPE  H19R16243   3.848   5.979   8.591 -0.3729  2.7719 -0.1592
  147SAPE  H19S16244   3.696   6.058   8.571  0.5622  1.2832  2.5572
  147SAPE  C22016245   3.671   5.840   8.606 -0.0507 -1.1321  0.2749
  147SAPE  H20R16246   3.741   5.758   8.630  0.3237 -1.1338 -0.8164
  147SAPE  H20S16247   3.645   5.822   8.500 -1.9113 -1.0566  0.6817
  147SAPE  H20T16248   3.581   5.837   8.672  0.2134  0.8204  0.7908
  147SAPE   C3316249   3.376   5.431   9.931  1.0716  0.0442  0.8628
  147SAPE   H3X16250   3.351   5.538   9.944 -2.0414  0.0740 -3.1418
  147SAPE   H3Y16251   3.304   5.367   9.986 -0.1024 -0.5315 -1.2122
  147SAPE   C3416252   3.380   5.395   9.782  0.6722 -0.0982  0.3353
  147SAPE   H4X16253   3.280   5.410   9.736 -0.6845 -0.1379  3.0328
  147SAPE   H4Y16254   3.411   5.289   9.772  1.7674 -0.2522  3.9102
  147SAPE   C3516255   3.487   5.476   9.703  0.0324  0.3121  0.1826
  147SAPE   H5X16256   3.586   5.434   9.732  1.0807  0.3234 -3.0021
  147SAPE   H5Y16257   3.500   5.577   9.747  0.5432  0.1232  0.4691
  147SAPE   C3616258   3.468   5.480   9.551  0.7637 -0.5868 -0.2393
  147SAPE   H6X16259   3.376   5.540   9.538  1.7492  1.2505  0.8971
  147SAPE   H6Y16260   3.455   5.375   9.516  0.2160 -0.9609  1.0296
  147SAPE   C3716261   3.589   5.550   9.493 -0.2533  0.2183 -0.3179
  147SAPE   H7X16262   3.676   5.485   9.514 -0.9315 -1.3152 -2.0116
  147SAPE   H7Y16263   3.602   5.650   9.539  1.2169  0.7489 -1.8250
  147SAPE   C3816264   3.578   5.583   9.342  0.1435  0.4268 -0.1874
  147SAPE   H8X16265   3.664   5.644   9.308  0.6053 -0.8077 -1.3271
  147SAPE   H8Y16266   3.481   5.634   9.327 -0.3630 -0.0135  1.4254
  147SAPE   C3916267   3.558   5.464   9.251 -0.4721 -0.2223  0.6065
  147SAPE   H9X16268   3.452   5.433   9.255 -0.3770 -0.4826  1.2134
  147SAPE   H9Y16269   3.617   5.378   9.289  1.6403  1.8345  2.2987
  147SAPE  C31016270   3.577   5.477   9.099  0.5306 -0.4428  0.0368
  147SAPE  H10X16271   3.541   5.383   9.051 -0.1216 -0.1973  0.0412
  147SAPE  H10Y16272   3.685   5.495   9.078  0.6310 -0.2272  0.7233
  147SAPE  C31116273   3.507   5.586   9.029 -0.1973 -0.1763 -0.5485
  147SAPE  H11X16274   3.530   5.676   9.091 -0.9961 -0.3291 -0.0049
  147SAPE  H11Y16275   3.397   5.576   9.043 -0.4055 -0.7458 -2.4248
  147SAPE  C31216276   3.543   5.603   8.876  0.1488 -0.5285 -0.6609
  147SAPE  H12X16277   3.643   5.651   8.869 -0.9531  1.7502 -2.1197
  147SAPE  H12Y16278   3.473   5.674   8.827  1.4636  0.5621 -1.0177
  147SAPE  C31316279   3.556   5.476   8.799 -0.5195 -0.1627  0.0468
  147SAPE  H13X16280   3.490   5.393   8.831 -1.5790  0.5891 -0.1300
  147SAPE  H13Y16281   3.664   5.451   8.802 -0.3683  0.5391  0.6390
  147SAPE  C31416282   3.535   5.499   8.648  0.6904 -0.7585  0.3758
  147SAPE  H14X16283   3.626   5.551   8.611  0.0130  0.9302  0.9444
  147SAPE  H14Y16284   3.453   5.570   8.622  1.3127 -0.0872  0.2153
  147SAPE  C31516285   3.506   5.367   8.573  0.4059 -0.7601  0.8114
  147SAPE  H15X16286   3.420   5.314   8.619 -0.9314 -0.0043 -0.7224
  147SAPE  H15Y16287   3.589   5.293   8.574  0.1040 -1.2687 -2.1667
  147SAPE  C31616288   3.479   5.382   8.425  0.4444 -0.4547  0.8099
  147SAPE  H16X16289   3.490   5.289   8.365 -2.9392  1.1028 -2.6770
  147SAPE  H16Y16290   3.538   5.467   8.384 -3.3893  1.0439 -2.1707
  147SAPE  C31716291   3.335   5.431   8.395  0.0512  0.6871  0.4980
  147SAPE  H17X16292   3.308   5.516   8.462 -0.9509 -1.2481  2.6700
  147SAPE  H17Y16293   3.261   5.350   8.408 -0.1435  1.2698  3.7020
  147SAPE  C31816294   3.325   5.493   8.253 -0.3071 -0.0717 -0.3495
  147SAPE  H18X16295   3.358   5.420   8.176 -0.6493  1.4056 -1.9433
  147SAPE  H18Y16296   3.388   5.584   8.244 -0.3880 -0.0778 -1.0109
  147SAPE  H18Z16297   3.220   5.524   8.240 -0.3145  0.9047  1.6247
  148SAPE     N16298   4.731   2.489  10.426  0.3680 -0.3116 -0.2315
  148SAPE   HN116299   4.814   2.498  10.488  1.3643  1.0347 -1.6998
  148SAPE   HN216300   4.741   2.406  10.364  1.0327 -1.0441  0.8089
  148SAPE   HN316301   4.733   2.570  10.361 -1.5288 -0.3832 -0.4435
  148SAPE   C1216302   4.594   2.477  10.487 -0.1855  0.1865 -0.1592
  148SAPE  H12A16303   4.607   2.391  10.557 -2.5078  2.0558  2.8373
  148SAPE  H12B16304   4.519   2.460  10.407 -1.3050 -0.4556  0.9788
  148SAPE   C1116305   4.567   2.608  10.564 -0.0319  1.0252  0.4017
  148SAPE  H11A16306   4.635   2.608  10.652 -0.9126 -2.0603  1.2066
  148SAPE  H11B16307   4.465   2.607  10.607  0.6044 -1.2411  2.0705
  148SAPE     P16308   4.658   2.851  10.529  0.3855  0.1183 -0.1481
  148SAPE   O1316309   4.614   2.894  10.663  0.5926 -0.3144 -0.0950
  148SAPE   O1416310   4.810   2.832  10.516  0.8072  0.3444 -0.2192
  148SAPE   O1216311   4.579   2.721  10.479 -0.0158 -0.1642 -0.0772
  148SAPE   O1116312   4.614   2.966  10.429  0.5332  0.7769  0.9018
  148SAPE    C116313   4.505   2.935  10.343  0.4199 -0.4041  0.1421
  148SAPE    HA16314   4.426   2.872  10.389 -0.8974  0.9309 -0.1840
  148SAPE    HB16315   4.444   3.026  10.323 -1.3253 -1.5666 -0.0508
  148SAPE    C216316   4.538   2.858  10.205 -0.2274 -0.0062  0.1241
  148SAPE    HS16317   4.538   2.747  10.216  3.5324 -0.3525 -1.7817
  148SAPE   O2116318   4.676   2.895  10.165  0.0973 -0.0916  0.1893
  148SAPE   C2116319   4.768   2.805  10.193 -0.1036 -0.2642 -0.6357
  148SAPE   O2216320   4.745   2.692  10.240 -0.3547 -0.8305  0.2983
  148SAPE   C2216321   4.909   2.862  10.178 -0.0100 -0.2508 -0.3130
  148SAPE   H2R16322   4.884   2.968  10.160 -2.5062 -0.6615  0.3976
  148SAPE   H2S16323   4.963   2.839  10.272 -2.7592  1.6345  1.8448
  148SAPE    C316324   4.433   2.891  10.101 -0.1753  0.3222  0.9421
  148SAPE    HX16325   4.438   3.002  10.097 -1.2385  0.4140  1.6232
  148SAPE    HY16326   4.335   2.846  10.130  0.1968 -1.0237  0.2177
  148SAPE   O3116327   4.477   2.824   9.984  0.0839  0.4305 -0.5400
  148SAPE   C3116328   4.408   2.857   9.882  0.8211  0.6201  0.2347
  148SAPE   O3216329   4.296   2.905   9.886 -0.6328 -0.1358  0.4881
  148SAPE   C3216330   4.481   2.807   9.755  0.1765 -1.1361  0.2990
  148SAPE   H2X16331   4.484   2.696   9.758  0.5970 -1.1345 -0.0587
  148SAPE   H2Y16332   4.587   2.839   9.763 -0.2783  0.2286  1.2675
  148SAPE   C2316333   4.970   2.793  10.055  0.5047  0.3342  0.2578
  148SAPE   H3R16334   4.983   2.685  10.080  0.0902 -0.2169 -1.7253
  148SAPE   H3S16335   5.071   2.840  10.055  0.3734  0.6265 -0.2861
  148SAPE   C2416336   4.905   2.808   9.918 -0.0260  0.6747  0.2928
  148SAPE   H4R16337   4.795   2.795   9.914 -0.2079  2.2048 -2.9727
  148SAPE   H4S16338   4.947   2.728   9.854  0.2081  0.1192  1.1330
  148SAPE   C2516339   4.945   2.938   9.853 -0.2089  0.2580 -1.1540
  148SAPE   H5R16340   4.982   3.019   9.918  0.2534 -0.3123 -0.7000
  148SAPE   C2616341   4.928   2.969   9.722 -0.0922 -0.0056  0.6486
  148SAPE   H6R16342   4.941   3.073   9.690  0.4254  0.2340  1.5708
  148SAPE   C2716343   4.866   2.886   9.617  0.2048  0.1961 -0.5714
  148SAPE   H7R16344   4.798   2.952   9.559  1.8733  2.6791  0.1528
  148SAPE   H7S16345   4.803   2.807   9.663 -2.4346  2.2739 -0.3706
  148SAPE   C2816346   4.961   2.820   9.519  0.1937 -0.3403 -0.4911
  148SAPE   H8R16347   5.033   2.757   9.573 -0.9704 -0.3340  1.1376
  148SAPE   C2916348   4.977   2.831   9.385  0.2398 -0.1169  0.1118
  148SAPE   H9R16349   5.057   2.770   9.341 -0.4875 -0.1296 -1.2192
  148SAPE  C21016350   4.905   2.922   9.293  0.0271 -0.2396  0.4541
  148SAPE  H10R16351   4.802   2.942   9.329  0.2894  1.6324  0.2598
  148SAPE  H10S16352   4.903   2.866   9.198  1.1615  0.7228 -0.1715
  148SAPE  C21116353   4.961   3.059   9.277  0.1648 -0.4580 -0.5399
  148SAPE  H11R16354   5.043   3.093   9.342 -0.8540  0.1203  0.4750
  148SAPE  C21216355   4.935   3.145   9.178 -0.1403  0.5125 -0.4805
  148SAPE  H12R16356   4.978   3.245   9.167  1.1302 -0.2220 -2.6735
  148SAPE  C21316357   4.845   3.115   9.063  0.7532  0.2910  0.2390
  148SAPE  H13R16358   4.763   3.190   9.051  0.2154 -0.1494  1.0961
  148SAPE  H13S16359   4.785   3.023   9.077 -2.7534  2.0917 -1.4823
  148SAPE  C21416360   4.923   3.092   8.929 -0.0070 -0.7327  0.1069
  148SAPE  H14R16361   4.947   2.989   8.897  2.7306  0.2331 -1.3040
  148SAPE  C21516362   4.941   3.185   8.833  0.6131 -0.4337 -0.1635
  148SAPE  H15R16363   5.007   3.158   8.750 -1.0555 -1.4159 -1.2280
  148SAPE  C21616364   4.890   3.332   8.850 -0.6418 -0.4337  0.6956
  148SAPE  H16R16365   4.863   3.367   8.952 -1.3332  0.7492  0.1342
  148SAPE  H16S16366   4.798   3.352   8.792  1.6593  1.8611 -2.5594
  148SAPE  C21716367   4.984   3.448   8.798  0.3386  0.2287  0.6008
  148SAPE  H17R16368   5.084   3.440   8.847  0.6114  0.0547  0.0338
  148SAPE  H17S16369   4.937   3.541   8.835  2.4871  0.7716  2.2058
  148SAPE  C21816370   4.988   3.451   8.644  0.2919 -0.2756  0.4970
  148SAPE  H18R16371   4.901   3.396   8.603  0.7789 -0.2561 -0.5975
  148SAPE  H18S16372   5.072   3.397   8.596  1.5317  3.1588 -1.4963
  148SAPE  C21916373   4.987   3.580   8.568  0.1652  0.7447  0.1830
  148SAPE  H19R16374   4.893   3.637   8.585  0.3097  0.5501  1.7541
  148SAPE  H19S16375   4.994   3.553   8.460 -0.7671 -1.5300  0.6483
  148SAPE  C22016376   5.116   3.659   8.595 -0.4929  0.3391 -0.7183
  148SAPE  H20R16377   5.137   3.654   8.704 -2.3150  0.6357 -0.3054
  148SAPE  H20S16378   5.109   3.767   8.566  2.4121  0.2931 -1.9416
  148SAPE  H20T16379   5.206   3.616   8.547 -0.9850 -1.0089 -0.4705
  148SAPE   C3316380   4.421   2.856   9.628 -0.3857  0.3747  0.0581
  148SAPE   H3X16381   4.404   2.966   9.624  1.1640  0.5996 -2.0536
  148SAPE   H3Y16382   4.319   2.813   9.615 -0.0753 -0.9843  1.7199
  148SAPE   C3416383   4.503   2.811   9.502 -0.4776 -0.0552 -0.3638
  148SAPE   H4X16384   4.528   2.703   9.492  2.7483  0.4516  0.7413
  148SAPE   H4Y16385   4.600   2.866   9.501 -1.3433  1.5375  0.2895
  148SAPE   C3516386   4.427   2.835   9.372  0.4273  0.4691  0.0569
  148SAPE   H5X16387   4.385   2.935   9.396  1.4904  0.9592 -0.0509
  148SAPE   H5Y16388   4.352   2.757   9.346  0.9612 -0.0718  0.1252
  148SAPE   C3616389   4.516   2.843   9.243  0.4857  0.3453 -0.5071
  148SAPE   H6X16390   4.570   2.747   9.232 -1.7265 -0.9233 -0.7136
  148SAPE   H6Y16391   4.592   2.924   9.251 -0.4522  1.0709  2.0161
  148SAPE   C3716392   4.423   2.866   9.119  0.5712 -0.2972 -0.5217
  148SAPE   H7X16393   4.390   2.972   9.116  1.0822 -0.1434 -0.9563
  148SAPE   H7Y16394   4.335   2.799   9.124 -0.2910  0.7804 -0.7869
  148SAPE   C3816395   4.501   2.850   8.988  0.1970 -0.1660 -0.3416
  148SAPE   H8X16396   4.548   2.751   8.968  1.3480  0.1311  0.7360
  148SAPE   H8Y16397   4.592   2.914   8.992 -0.8478  1.4099 -0.7443
  148SAPE   C3916398   4.409   2.879   8.871  0.4938 -0.5487  0.6014
  148SAPE   H9X16399   4.420   2.984   8.835  0.5045 -0.8686 -0.3656
  148SAPE   H9Y16400   4.303   2.866   8.899  0.9104 -3.3300  1.1683
  148SAPE  C31016401   4.423   2.789   8.750  0.7270  0.4153 -0.0917
  148SAPE  H10X16402   4.427   2.680   8.771  1.2182  0.8733  2.4945
  148SAPE  H10Y16403   4.524   2.810   8.709  1.3647 -1.2945  0.5456
  148SAPE  C31116404   4.333   2.823   8.637  0.2680  0.3604  0.5477
  148SAPE  H11X16405   4.337   2.930   8.608  1.7116  0.4771  1.0880
  148SAPE  H11Y16406   4.229   2.814   8.674  0.0221  0.8166 -0.0296
  148SAPE  C31216407   4.345   2.730   8.511  0.0621 -0.2124  0.5175
  148SAPE  H12X16408   4.260   2.726   8.439 -0.7909  1.0333  1.4040
  148SAPE  H12Y16409   4.357   2.630   8.557 -3.3671 -1.5173 -1.0561
  148SAPE  C31316410   4.474   2.764   8.426  0.2331  0.2201 -1.1755
  148SAPE  H13X16411   4.512   2.680   8.364 -0.2301 -0.0816 -1.0560
  148SAPE  H13Y16412   4.564   2.776   8.490 -0.7765 -0.9827  0.5333
  148SAPE  C31416413   4.448   2.882   8.335 -0.0232  0.2788  0.5691
  148SAPE  H14X16414   4.441   2.974   8.398 -1.1800  0.3629  0.3481
  148SAPE  H14Y16415   4.351   2.870   8.281 -0.4067 -0.9614  1.4754
  148SAPE  C31516416   4.562   2.896   8.233 -0.8125  0.1755 -0.4651
  148SAPE  H15X16417   4.565   2.796   8.186 -1.8729 -0.8908  1.6115
  148SAPE  H15Y16418   4.656   2.903   8.292 -1.6154  1.1000  0.7289
  148SAPE  C31616419   4.555   3.004   8.123  0.2877 -0.7616  0.1601
  148SAPE  H16X16420   4.548   3.103   8.173 -0.9594  0.7562 -2.8286
  148SAPE  H16Y16421   4.467   2.987   8.058  1.3618 -2.7430 -0.8687
  148SAPE  C31716422   4.686   3.022   8.051 -0.7978 -0.3624  0.0944
  148SAPE  H17X16423   4.711   2.924   8.005  1.2045 -1.1289  2.5545
  148SAPE  H17Y16424   4.764   3.039   8.128 -0.2440  0.2958 -0.5924
  148SAPE  C31816425   4.695   3.134   7.948  0.0209  0.0220 -0.4566
  148SAPE  H18X16426   4.790   3.143   7.891 -0.4692  1.5114 -1.0764
  148SAPE  H18Y16427   4.680   3.228   8.005  1.9926 -1.1049  2.1603
  148SAPE  H18Z16428   4.608   3.121   7.880  0.2514  0.0077 -0.7511
  149SAPE     N16429   3.639   5.002  10.926  0.1712 -0.2467 -0.7379
  149SAPE   HN116430   3.629   4.947  10.838  0.1994  1.2161 -1.6890
  149SAPE   HN216431   3.676   4.941  11.002 -1.1510  0.1318  0.2343
  149SAPE   HN316432   3.545   5.042  10.939  0.6643 -0.1548  4.4844
  149SAPE   C1216433   3.736   5.117  10.912  0.5255  0.1471 -0.5984
  149SAPE  H12A16434   3.749   5.138  11.020  1.8198 -2.0697 -0.2639
  149SAPE  H12B16435   3.676   5.202  10.872  0.3747  0.6181  0.5770
  149SAPE   C1116436   3.874   5.080  10.869 -0.8659  0.6876 -0.2626
  149SAPE  H11A16437   3.932   5.174  10.879  0.2365  0.1520 -1.4009
  149SAPE  H11B16438   3.878   5.063  10.760 -1.6998 -0.7043 -0.1012
  149SAPE     P16439   4.024   4.863  10.874  0.4270 -0.0599 -0.0883
  149SAPE   O1316440   4.164   4.887  10.894  0.0825  0.1412  0.0277
  149SAPE   O1416441   3.973   4.736  10.927 -0.1864 -0.2216 -0.9480
  149SAPE   O1216442   3.937   4.975  10.946  0.2683  0.3641  0.4015
  149SAPE   O1116443   3.988   4.872  10.723 -0.0872 -0.5078  0.7704
  149SAPE    C116444   4.097   4.885  10.623  0.5425 -0.5218  0.3214
  149SAPE    HA16445   4.187   4.933  10.666  1.5958 -2.4305  0.3336
  149SAPE    HB16446   4.125   4.787  10.580  1.2806  0.1255 -0.7396
  149SAPE    C216447   4.048   4.966  10.503  0.0368  0.7821  0.2531
  149SAPE    HS16448   4.019   5.065  10.543  0.6746  0.5774  1.2595
  149SAPE   O2116449   3.933   4.896  10.453 -0.6178 -0.5313 -0.0409
  149SAPE   C2116450   3.839   4.972  10.403 -0.0536  0.5836 -0.4307
  149SAPE   O2216451   3.840   5.091  10.405  0.5207 -0.2179  0.1848
  149SAPE   C2216452   3.729   4.884  10.346  0.0300 -0.0104 -0.2823
  149SAPE   H2R16453   3.781   4.799  10.296  0.2600  0.3840 -0.7176
  149SAPE   H2S16454   3.674   4.837  10.430 -0.2525  0.6879 -0.0697
  149SAPE    C316455   4.159   4.973  10.400  0.4962  0.6387  0.5363
  149SAPE    HX16456   4.179   4.869  10.367  3.5090  0.6024  2.1607
  149SAPE    HY16457   4.248   5.023  10.443  0.1540  1.8621 -0.1016
  149SAPE   O3116458   4.133   5.056  10.282 -0.0893  0.5839 -0.2907
  149SAPE   C3116459   4.150   5.188  10.295 -0.1688 -0.0053 -0.6755
  149SAPE   O3216460   4.169   5.245  10.400  0.0799 -0.3305  0.6467
  149SAPE   C3216461   4.148   5.258  10.160  0.1397  0.4397  0.1911
  149SAPE   H2X16462   4.084   5.202  10.088  0.7420  0.6275 -0.5063
  149SAPE   H2Y16463   4.246   5.249  10.109  1.0439 -1.6676  2.1622
  149SAPE   C2316464   3.624   4.948  10.250  0.1640 -0.6201  0.7170
  149SAPE   H3R16465   3.563   5.011  10.319  1.6223 -2.1627  3.6109
  149SAPE   H3S16466   3.556   4.874  10.204  2.7258 -1.9522 -1.1435
  149SAPE   C2416467   3.678   5.015  10.118 -0.1668  0.5703  0.1223
  149SAPE   H4R16468   3.733   5.105  10.152  1.0114 -0.1119  0.0883
  149SAPE   H4S16469   3.595   5.045  10.051 -0.1251 -2.8046 -1.6721
  149SAPE   C2516470   3.766   4.916  10.039 -0.2272 -0.9669 -0.2774
  149SAPE   H5R16471   3.805   4.833  10.101 -0.0737  0.2779  1.3731
  149SAPE   C2616472   3.781   4.923   9.905 -0.1725  0.0177 -0.1522
  149SAPE   H6R16473   3.847   4.843   9.868  1.0337  0.4444  1.0154
  149SAPE   C2716474   3.718   5.010   9.796 -0.6124 -0.7498  0.1077
  149SAPE   H7R16475   3.655   5.089   9.842 -0.2541 -0.7980  0.6873
  149SAPE   H7S16476   3.664   4.942   9.727 -0.7375 -0.5865  0.0443
  149SAPE   C2816477   3.829   5.083   9.721  0.2557  0.1678 -0.2127
  149SAPE   H8R16478   3.875   5.158   9.786  0.6173 -0.8935  0.7933
  149SAPE   C2916479   3.863   5.069   9.590  0.0065  0.2941 -0.7369
  149SAPE   H9R16480   3.949   5.120   9.544 -0.0526 -0.8415 -2.1765
  149SAPE  C21016481   3.790   4.972   9.493 -0.7268  0.0157 -0.1041
  149SAPE  H10R16482   3.731   4.898   9.550 -0.0614 -1.0532 -0.7827
  149SAPE  H10S16483   3.864   4.904   9.447 -0.0054  0.1365  0.8582
  149SAPE  C21116484   3.698   5.029   9.392  0.1225  0.2620 -0.2888
  149SAPE  H11R16485   3.590   5.027   9.413 -0.2825 -3.0880 -2.0495
  149SAPE  C21216486   3.736   5.068   9.271  0.6449 -0.0017 -0.5439
  149SAPE  H12R16487   3.657   5.081   9.195 -0.7180 -2.0258  0.4350
  149SAPE  C21316488   3.877   5.067   9.210  1.1047 -0.5427 -0.9753
  149SAPE  H13R16489   3.891   4.977   9.146  1.9108 -1.8986  1.0409
  149SAPE  H13S16490   3.949   5.062   9.294  0.3269  0.1058 -0.2485
  149SAPE  C21416491   3.912   5.192   9.134 -1.0810  0.1440  0.1258
  149SAPE  H14R16492   3.993   5.250   9.179 -0.2410 -1.8970  1.4052
  149SAPE  C21516493   3.864   5.227   9.008 -0.4214  0.4662 -0.0253
  149SAPE  H15R16494   3.902   5.317   8.958 -0.8318 -0.1084 -1.4359
  149SAPE  C21616495   3.761   5.146   8.929 -0.5366 -0.5206 -0.0508
  149SAPE  H16R16496   3.662   5.197   8.922 -0.1266  0.1612 -1.2713
  149SAPE  H16S16497   3.740   5.055   8.989  0.7259 -1.9008 -1.6142
  149SAPE  C21716498   3.797   5.107   8.782  0.2173  0.0008  0.0921
  149SAPE  H17R16499   3.900   5.069   8.766  0.2806  0.7022 -1.3478
  149SAPE  H17S16500   3.796   5.202   8.724  2.1617  1.9305  2.9085
  149SAPE  C21816501   3.699   4.997   8.728 -0.4438 -0.5763  0.3012
  149SAPE  H18R16502   3.593   5.023   8.749 -0.5261 -1.9195  1.7496
  149SAPE  H18S16503   3.709   4.900   8.782 -4.3035 -2.6276 -2.1575
  149SAPE  C21916504   3.712   4.969   8.578  0.0576 -0.5010  1.1656
  149SAPE  H19R16505   3.687   5.067   8.532  0.6091 -0.1697  1.5610
  149SAPE  H19S16506   3.637   4.893   8.548 -1.6443  0.8679  1.7563
  149SAPE  C22016507   3.854   4.911   8.536  1.1627  0.0417 -0.0865
  149SAPE  H20R16508   3.881   4.818   8.590  0.4864  1.0559  2.0897
  149SAPE  H20S16509   3.934   4.985   8.557  0.4978  0.7379  0.0536
  149SAPE  H20T16510   3.853   4.887   8.427 -1.3577  1.5825 -0.4827
  149SAPE   C3316511   4.114   5.409  10.180  0.3171 -0.2936 -0.5407
  149SAPE   H3X16512   4.174   5.445  10.267  0.2695  0.1949 -0.7078
  149SAPE   H3Y16513   4.010   5.414  10.217  0.3727 -2.1664 -0.0054
  149SAPE   C3416514   4.139   5.502  10.059  0.2150  0.4736 -0.0843
  149SAPE   H4X16515   4.247   5.516  10.039 -0.5589  2.0599 -4.0860
  149SAPE   H4Y16516   4.097   5.603  10.081  0.0138 -0.1709  2.9283
  149SAPE   C3516517   4.064   5.455   9.932  0.2315 -0.3102  0.0667
  149SAPE   H5X16518   3.955   5.434   9.939 -0.1379  1.6041  0.5556
  149SAPE   H5Y16519   4.102   5.365   9.879 -1.6399 -1.0358 -0.1404
  149SAPE   C3616520   4.078   5.558   9.814  0.2122 -0.0346  0.3667
  149SAPE   H6X16521   4.185   5.549   9.785 -0.3655 -1.7269 -1.4348
  149SAPE   H6Y16522   4.052   5.658   9.855  0.5558  1.2479 -2.3309
  149SAPE   C3716523   3.985   5.531   9.695  0.3467 -0.4607  0.2679
  149SAPE   H7X16524   3.879   5.544   9.725  0.4442 -1.8394  1.3164
  149SAPE   H7Y16525   3.994   5.426   9.660 -0.5259 -0.0478 -1.3029
  149SAPE   C3816526   4.012   5.634   9.580  0.3396 -0.2156 -0.1853
  149SAPE   H8X16527   4.108   5.689   9.587 -0.8737  2.0056  0.1990
  149SAPE   H8Y16528   3.924   5.702   9.586 -0.8349 -1.8122  1.3902
  149SAPE   C3916529   4.020   5.564   9.438 -0.1905  0.1012 -0.1990
  149SAPE   H9X16530   3.928   5.504   9.422 -1.1220  1.7702 -1.4870
  149SAPE   H9Y16531   4.106   5.496   9.426  0.1172  0.7409 -1.9729
  149SAPE  C31016532   4.022   5.667   9.317  0.2214  0.0187  0.0666
  149SAPE  H10X16533   4.117   5.724   9.309  0.6556 -0.3789  2.0007
  149SAPE  H10Y16534   3.930   5.729   9.329  0.9424  1.2874 -0.7661
  149SAPE  C31116535   4.013   5.589   9.188 -0.2477 -0.2986  0.9621
  149SAPE  H11X16536   3.923   5.525   9.201 -1.5010  1.2008  0.0204
  149SAPE  H11Y16537   4.108   5.531   9.189  1.0036  1.5208 -1.1110
  149SAPE  C31216538   3.999   5.684   9.066  0.1881  0.4096 -0.1364
  149SAPE  H12X16539   4.086   5.753   9.072 -0.6281  1.4005  0.8544
  149SAPE  H12Y16540   3.903   5.737   9.088 -0.4609  0.1532 -2.1638
  149SAPE  C31316541   3.981   5.607   8.936 -0.0024  0.4303 -0.3481
  149SAPE  H13X16542   3.895   5.538   8.945  1.7396 -2.1454 -1.9462
  149SAPE  H13Y16543   4.061   5.530   8.936 -1.8300 -1.6763  2.5468
  149SAPE  C31416544   3.974   5.690   8.806 -0.1814  0.3410  0.2781
  149SAPE  H14X16545   4.055   5.765   8.793  0.5633 -0.9012 -3.2336
  149SAPE  H14Y16546   3.881   5.750   8.800  0.9497  2.4002  1.6744
  149SAPE  C31516547   3.978   5.620   8.665 -0.0898  0.0641 -0.2055
  149SAPE  H15X16548   3.963   5.705   8.595  3.1557  0.6122 -0.3725
  149SAPE  H15Y16549   3.890   5.552   8.659 -0.1243  0.1389 -0.6009
  149SAPE  C31616550   4.101   5.531   8.634 -0.5907 -0.8843  0.5024
  149SAPE  H16X16551   4.127   5.472   8.725 -1.0457 -2.2923 -0.2536
  149SAPE  H16Y16552   4.186   5.596   8.606 -1.3777 -0.4588 -0.9984
  149SAPE  C31716553   4.095   5.447   8.507  0.4764  0.0563 -0.0929
  149SAPE  H17X16554   4.195   5.402   8.490  1.6062  2.0738  0.9080
  149SAPE  H17Y16555   4.076   5.517   8.423  1.5315 -1.0070 -1.2769
  149SAPE  C31816556   3.995   5.330   8.510  0.0432 -0.2417 -0.2919
  149SAPE  H18X16557   4.007   5.269   8.602 -1.6753  2.2549  1.7242
  149SAPE  H18Y16558   4.015   5.264   8.423  0.0609  1.2955 -1.4927
  149SAPE  H18Z16559   3.894   5.376   8.512 -0.7003 -1.7591  2.8534
  150SAPE     N16560   2.764   2.681  10.975 -0.5719  0.2991 -0.5616
  150SAPE   HN116561   2.711   2.746  11.037 -0.3867 -0.8003  0.8101
  150SAPE   HN216562   2.707   2.691  10.889 -1.5187 -0.9792 -0.1226
  150SAPE   HN316563   2.759   2.583  11.012  1.5907 -0.0274 -1.0130
  150SAPE   C1216564   2.911   2.726  10.968 -0.0118  0.5153  0.1085
  150SAPE  H12A16565   2.970   2.633  10.987 -1.8310 -0.9495 -1.1122
  150SAPE  H12B16566   2.933   2.792  11.055 -0.0868  1.5394 -0.6303
  150SAPE   C1116567   2.942   2.805  10.845  0.2860 -0.9712  0.4604
  150SAPE  H11A16568   2.941   2.727  10.766 -1.8154 -1.0781  0.5350
  150SAPE  H11B16569   3.042   2.854  10.843 -1.4937  3.0417  0.2949
  150SAPE     P16570   2.827   3.045  10.820 -0.6271  0.0898 -0.6814
  150SAPE   O1316571   2.693   3.080  10.862 -0.3125 -0.4438  0.1323
  150SAPE   O1416572   2.937   3.093  10.905  0.2252  0.2439 -0.6354
  150SAPE   O1216573   2.831   2.891  10.815  0.2175 -0.8297 -0.1386
  150SAPE   O1116574   2.849   3.098  10.672 -1.0995  0.4780  1.3853
  150SAPE    C116575   2.965   3.070  10.593  1.0766  0.6240  0.0165
  150SAPE    HA16576   3.020   3.166  10.583 -0.3103  1.4684  0.1413
  150SAPE    HB16577   3.031   2.997  10.645  1.0498  1.2774  0.9930
  150SAPE    C216578   2.932   2.995  10.463 -0.2933  0.1130  0.2228
  150SAPE    HS16579   3.028   2.952  10.428  0.2687  0.5453  1.2076
  150SAPE   O2116580   2.868   3.089  10.369  0.4595 -0.0676 -0.3804
  150SAPE   C2116581   2.958   3.157  10.288 -0.4298  0.5886  0.5195
  150SAPE   O2216582   3.081   3.153  10.308  0.7701  0.6963  0.3656
  150SAPE   C2216583   2.887   3.228  10.172 -0.1297 -0.3382 -0.1741
  150SAPE   H2R16584   2.801   3.163  10.143  0.7896 -1.7946  0.2308
  150SAPE   H2S16585   2.847   3.323  10.212  2.2523  0.2738  0.9361
  150SAPE    C316586   2.829   2.873  10.475 -0.2247 -1.0261 -0.2726
  150SAPE    HX16587   2.724   2.906  10.488 -0.2877 -0.6168 -1.6549
  150SAPE    HY16588   2.860   2.817  10.567 -1.0890 -1.4075 -0.2033
  150SAPE   O3116589   2.855   2.778  10.366  0.3414 -0.0484 -0.4187
  150SAPE   C3116590   2.758   2.703  10.325 -0.3042 -0.6184 -0.0821
  150SAPE   O3216591   2.645   2.702  10.367  0.3219 -0.1866 -0.7440
  150SAPE   C3216592   2.803   2.616  10.200 -0.8743  0.2460 -0.2686
  150SAPE   H2X16593   2.706   2.594  10.149 -1.5547 -0.8458  1.4245
  150SAPE   H2Y16594   2.851   2.528  10.248 -0.1338 -0.0543 -1.5101
  150SAPE   C2316595   2.971   3.245  10.049  0.5128 -0.3552 -0.5176
  150SAPE   H3R16596   2.998   3.144  10.011  1.2447 -0.5911  0.5804
  150SAPE   H3S16597   3.068   3.286  10.084  0.4837 -0.9464  0.2850
  150SAPE   C2416598   2.909   3.339   9.944 -0.0488  0.6714 -0.5057
  150SAPE   H4R16599   2.896   3.438   9.992  1.6356  0.6449  0.0552
  150SAPE   H4S16600   2.814   3.295   9.906  0.6880  0.2786 -1.9670
  150SAPE   C2516601   3.013   3.363   9.838 -0.1563 -0.3653  0.1800
  150SAPE   H5R16602   3.111   3.388   9.880 -0.2558  1.7144 -0.6995
  150SAPE   C2616603   2.993   3.355   9.710  0.1693  0.4691  0.3998
  150SAPE   H6R16604   3.073   3.368   9.635 -1.6247  0.4340 -1.6241
  150SAPE   C2716605   2.864   3.321   9.647 -0.0050  0.3188  0.5220
  150SAPE   H7R16606   2.777   3.312   9.715  1.4160 -0.4208  2.3034
  150SAPE   H7S16607   2.868   3.216   9.609  1.1356 -0.4537  2.6391
  150SAPE   C2816608   2.828   3.432   9.549 -0.3314  0.1438 -1.2999
  150SAPE   H8R16609   2.826   3.533   9.593  0.7568 -0.4529  0.2096
  150SAPE   C2916610   2.780   3.419   9.427  0.5146 -0.4457 -0.1313
  150SAPE   H9R16611   2.748   3.513   9.379  2.1899  0.6534  0.7763
  150SAPE  C21016612   2.759   3.289   9.354  0.0826  0.0599  0.4811
  150SAPE  H10R16613   2.759   3.192   9.408 -0.7027 -1.0518 -1.3916
  150SAPE  H10S16614   2.836   3.272   9.275  0.1166  0.2629  0.4710
  150SAPE  C21116615   2.627   3.297   9.288 -0.3656 -0.4418  0.1226
  150SAPE  H11R16616   2.548   3.291   9.364 -0.9175  1.6531 -0.2218
  150SAPE  C21216617   2.599   3.316   9.157  0.5978  0.2177  0.1455
  150SAPE  H12R16618   2.495   3.313   9.120  0.4886  0.6831  0.4014
  150SAPE  C21316619   2.704   3.327   9.048  0.0899  0.0531 -0.4271
  150SAPE  H13R16620   2.644   3.318   8.955  0.5673  2.5254 -1.0381
  150SAPE  H13S16621   2.752   3.226   9.048 -3.5180 -1.8474  1.0569
  150SAPE  C21416622   2.798   3.442   9.042 -0.5675  0.0630 -0.1350
  150SAPE  H14R16623   2.813   3.485   9.142 -1.8970  0.4560 -0.0913
  150SAPE  C21516624   2.854   3.485   8.924 -0.7919 -0.6685  0.1662
  150SAPE  H15R16625   2.929   3.565   8.934 -0.0725 -1.2481 -0.4535
  150SAPE  C21616626   2.842   3.412   8.797 -0.2574  0.1809  0.3993
  150SAPE  H16R16627   2.781   3.319   8.799  2.1070 -1.4724  0.6532
  150SAPE  H16S16628   2.942   3.388   8.755 -0.8418 -2.6181  0.4115
  150SAPE  C21716629   2.772   3.506   8.692 -0.4402 -0.1971  0.0634
  150SAPE  H17R16630   2.778   3.443   8.601  2.2433  1.4767 -1.0597
  150SAPE  H17S16631   2.835   3.597   8.685 -0.1649 -0.3925 -0.0280
  150SAPE  C21816632   2.630   3.551   8.734 -0.3713 -0.1024  0.0726
  150SAPE  H18R16633   2.635   3.640   8.801 -0.3025  0.5962 -0.8460
  150SAPE  H18S16634   2.570   3.468   8.777  1.5995 -0.8288  1.5942
  150SAPE  C21916635   2.572   3.605   8.608  0.2180  0.1882  0.1370
  150SAPE  H19R16636   2.560   3.516   8.543 -1.6565 -0.3636  1.1435
  150SAPE  H19S16637   2.645   3.669   8.555  1.3500 -2.2203 -1.4138
  150SAPE  C22016638   2.424   3.652   8.625  0.8136 -0.3972 -0.0003
  150SAPE  H20R16639   2.426   3.757   8.661  0.3051  0.4093 -2.1588
  150SAPE  H20S16640   2.366   3.585   8.692  0.8195 -1.8271 -1.3747
  150SAPE  H20T16641   2.370   3.649   8.528  0.7971 -0.8451  0.0194
  150SAPE   C3316642   2.890   2.691  10.103 -0.4845 -0.7588  0.0537
  150SAPE   H3X16643   2.939   2.623  10.031  1.1762  1.2111 -0.7779
  150SAPE   H3Y16644   2.973   2.753  10.144  0.2577  0.4900 -3.0874
  150SAPE   C3416645   2.816   2.809  10.030  0.0284 -0.2640 -0.5084
  150SAPE   H4X16646   2.783   2.886  10.102 -1.5183 -2.5743  1.3996
  150SAPE   H4Y16647   2.726   2.771   9.977 -1.4927  0.7914  1.1822
  150SAPE   C3516648   2.902   2.883   9.929  0.2428 -0.1010  0.3093
  150SAPE   H5X16649   2.999   2.911   9.976 -0.3437  1.5736  0.5932
  150SAPE   H5Y16650   2.847   2.973   9.895 -1.0966 -0.9008  0.3237
  150SAPE   C3616651   2.925   2.781   9.814  0.9759 -0.7005 -0.6520
  150SAPE   H6X16652   2.834   2.717   9.801 -0.7710  2.0235 -3.1096
  150SAPE   H6Y16653   3.010   2.718   9.847 -0.7203 -1.6290  2.4452
  150SAPE   C3716654   2.977   2.847   9.687  0.1951 -0.1115 -0.1259
  150SAPE   H7X16655   3.040   2.782   9.623  1.5839  0.8373  0.2290
  150SAPE   H7Y16656   3.046   2.931   9.708 -0.5856  0.5275 -0.0714
  150SAPE   C3816657   2.855   2.873   9.594  0.1512 -0.4510  0.2745
  150SAPE   H8X16658   2.788   2.949   9.640 -1.0498 -1.1802 -0.2305
  150SAPE   H8Y16659   2.806   2.774   9.586 -0.9091  0.0941 -0.2935
  150SAPE   C3916660   2.886   2.918   9.456  0.5373  0.0342  0.1551
  150SAPE   H9X16661   2.938   3.016   9.465 -1.8859  1.3501  0.5761
  150SAPE   H9Y16662   2.797   2.936   9.391 -0.0559 -2.6171  0.1156
  150SAPE  C31016663   2.977   2.835   9.365  0.0472  0.0128  0.1503
  150SAPE  H10X16664   2.934   2.732   9.367 -1.4521  0.5113 -1.9526
  150SAPE  H10Y16665   3.081   2.828   9.403 -0.5637 -0.9361  1.7531
  150SAPE  C31116666   2.990   2.906   9.232 -0.5423  0.6745  0.2940
  150SAPE  H11X16667   3.034   3.007   9.248 -0.4823  0.3058  2.7586
  150SAPE  H11Y16668   2.891   2.921   9.184 -0.7426 -0.3690  0.3616
  150SAPE  C31216669   3.074   2.833   9.123  0.0962 -0.5507 -0.0789
  150SAPE  H12X16670   3.008   2.756   9.079 -2.3925 -0.9363  3.8966
  150SAPE  H12Y16671   3.169   2.793   9.165  1.1783  0.7672 -1.1541
  150SAPE  C31316672   3.116   2.931   9.005  0.1048 -0.5063  0.1883
  150SAPE  H13X16673   3.213   2.977   9.035  0.1768 -1.2061  1.0505
  150SAPE  H13Y16674   3.040   3.011   9.000  0.1070 -0.2295  2.9648
  150SAPE  C31416675   3.136   2.863   8.871  0.3450 -0.1556 -0.2010
  150SAPE  H14X16676   3.034   2.834   8.836  0.5737 -0.8841 -0.2771
  150SAPE  H14Y16677   3.205   2.778   8.886 -0.0897 -0.2265  1.5684
  150SAPE  C31516678   3.190   2.963   8.771 -0.7452 -0.4050  0.5206
  150SAPE  H15X16679   3.274   3.020   8.815 -0.8782 -0.9993  1.5891
  150SAPE  H15Y16680   3.110   3.034   8.743  0.4879  0.0834 -2.0288
  150SAPE  C31616681   3.241   2.889   8.640 -0.0565 -0.3847 -0.2264
  150SAPE  H16X16682   3.155   2.851   8.582 -1.5271 -0.5546  1.9385
  150SAPE  H16Y16683   3.303   2.800   8.666  0.0704 -0.3757 -0.4978
  150SAPE  C31716684   3.310   2.979   8.541 -0.1495  0.3541  0.0114
  150SAPE  H17X16685   3.385   2.925   8.479 -0.5359  0.2272 -0.3486
  150SAPE  H17Y16686   3.380   3.037   8.605 -1.6090  1.5883  0.5262
  150SAPE  C31816687   3.217   3.076   8.458 -1.2064  0.3475 -0.5260
  150SAPE  H18X16688   3.146   3.015   8.399 -0.0991 -0.4489 -1.0645
  150SAPE  H18Y16689   3.271   3.136   8.382 -1.2027 -0.5335 -1.2393
  150SAPE  H18Z16690   3.147   3.135   8.521 -0.8998 -2.0062  2.2422
  151SAPE     N16691   5.336   0.224  10.518 -0.1422 -0.5709  0.1755
  151SAPE   HN116692   5.321   0.315  10.469  0.8853 -0.6969 -0.3981
  151SAPE   HN216693   5.319   0.145  10.452  1.2210 -1.2433  0.5972
  151SAPE   HN316694   5.267   0.223  10.596 -1.3143  1.2006 -0.7654
  151SAPE   C1216695   5.481   0.239  10.580  0.2729  0.8480  0.0554
  151SAPE  H12A16696   5.521   0.140  10.609 -3.2597 -0.8634 -0.4299
  151SAPE  H12B16697   5.467   0.296  10.674  0.8165  1.3332 -0.1471
  151SAPE   C1116698   5.570   0.323  10.496 -0.5199  0.7475 -0.0818
  151SAPE  H11A16699   5.560   0.292  10.389  1.2290  1.2737 -0.4396
  151SAPE  H11B16700   5.678   0.308  10.517  0.0928  1.1648 -2.5710
  151SAPE     P16701   5.459   0.562  10.428 -0.0053 -0.1717 -0.1414
  151SAPE   O1316702   5.425   0.683  10.504 -0.5278  0.2510 -0.0030
  151SAPE   O1416703   5.514   0.585  10.293 -0.3877  0.2340  0.0244
  151SAPE   O1216704   5.557   0.469  10.514  0.5131 -0.1151  0.1582
  151SAPE   O1116705   5.325   0.468  10.403 -0.3520  0.1850  0.1669
  151SAPE    C116706   5.281   0.433  10.272 -0.2256  0.2829  0.4110
  151SAPE    HA16707   5.309   0.516  10.204  1.1624 -0.1883  0.3805
  151SAPE    HB16708   5.321   0.335  10.238  1.2877  0.9400  0.2418
  151SAPE    C216709   5.125   0.421  10.279 -0.3514 -0.0340  0.3095
  151SAPE    HS16710   5.102   0.527  10.306  2.4709  0.4608  1.1559
  151SAPE   O2116711   5.085   0.311  10.364  0.3027  0.1799  0.2081
  151SAPE   C2116712   4.978   0.337  10.432 -0.3341 -0.5175  0.4203
  151SAPE   O2216713   4.926   0.449  10.440  0.1798 -0.0116  0.1365
  151SAPE   C2216714   4.923   0.203  10.488  0.8255 -0.0559  0.0146
  151SAPE   H2R16715   4.922   0.129  10.405  0.5475  0.1363 -0.1527
  151SAPE   H2S16716   4.994   0.169  10.566  0.0075  0.1347  0.8574
  151SAPE    C316717   5.067   0.396  10.138 -0.0510  0.9716  0.3043
  151SAPE    HX16718   5.082   0.289  10.110  0.6220  0.7586  1.4063
  151SAPE    HY16719   5.138   0.447  10.070 -0.8508 -1.2616 -2.3830
  151SAPE   O3116720   4.933   0.433  10.125  0.3511  0.4514 -0.6044
  151SAPE   C3116721   4.917   0.561  10.107 -0.3522  0.1450  0.1174
  151SAPE   O3216722   5.008   0.641  10.089 -0.6811  0.0679 -0.3248
  151SAPE   C3216723   4.767   0.601  10.106  0.5893 -0.5919 -0.4855
  151SAPE   H2X16724   4.733   0.617  10.210 -0.4819 -0.1467 -0.8916
  151SAPE   H2Y16725   4.705   0.521  10.059 -0.7569  0.5281 -0.6895
  151SAPE   C2316726   4.773   0.219  10.531  0.6452  0.0218 -0.2266
  151SAPE   H3R16727   4.760   0.310  10.594  2.2150 -0.1303  0.3605
  151SAPE   H3S16728   4.746   0.134  10.596  2.0132  1.6690  2.6831
  151SAPE   C2416729   4.675   0.230  10.411  0.5875 -0.5706 -0.9283
  151SAPE   H4R16730   4.733   0.290  10.338  1.9143  0.2199  0.6917
  151SAPE   H4S16731   4.584   0.287  10.438  1.3316 -0.5361  1.8929
  151SAPE   C2516732   4.621   0.098  10.349  0.5179 -0.1168 -0.2198
  151SAPE   H5R16733   4.592   0.021  10.422  1.5324 -0.4071 -0.1152
  151SAPE   C2616734   4.610   0.068  10.220  0.1072 -0.0706  0.2406
  151SAPE   H6R16735   4.581  -0.031  10.182 -1.7656  0.9868 -1.2786
  151SAPE   C2716736   4.654   0.157  10.106  0.0939 -0.5460 -0.6421
  151SAPE   H7R16737   4.747   0.213  10.132  0.4430 -1.3065 -0.2208
  151SAPE   H7S16738   4.570   0.228  10.092  0.0029 -0.6619 -0.6874
  151SAPE   C2816739   4.660   0.090   9.977  0.2767 -0.2883 -0.1031
  151SAPE   H8R16740   4.634  -0.017   9.987  1.2750 -0.4753  0.6561
  151SAPE   C2916741   4.711   0.147   9.864 -0.3566  0.1008 -0.3524
  151SAPE   H9R16742   4.705   0.093   9.768 -1.9393 -0.8767  0.2408
  151SAPE  C21016743   4.753   0.292   9.870  0.0444  0.1263  0.0725
  151SAPE  H10R16744   4.846   0.282   9.929 -0.4004 -0.9176  0.6387
  151SAPE  H10S16745   4.702   0.358   9.944  1.7442 -0.0909  1.5039
  151SAPE  C21116746   4.784   0.364   9.742  0.2371  0.2916 -0.6760
  151SAPE  H11R16747   4.700   0.393   9.678 -0.1075  1.1483  0.1458
  151SAPE  C21216748   4.911   0.395   9.708 -0.6547  0.4259 -0.4421
  151SAPE  H12R16749   4.916   0.441   9.608  0.4436 -0.0193 -0.6010
  151SAPE  C21316750   5.046   0.357   9.770 -0.6071 -0.5409  0.2109
  151SAPE  H13R16751   5.081   0.274   9.705  0.2308 -1.1167  1.3497
  151SAPE  H13S16752   5.034   0.325   9.876  2.2053  2.7839  1.7206
  151SAPE  C21416753   5.140   0.474   9.766 -0.5018 -1.1120  0.6556
  151SAPE  H14R16754   5.139   0.541   9.853 -1.9697 -1.6129  1.0614
  151SAPE  C21516755   5.236   0.492   9.672 -0.4839 -0.0939 -0.5036
  151SAPE  H15R16756   5.281   0.593   9.681 -1.1328  0.2077 -0.5903
  151SAPE  C21616757   5.263   0.403   9.552  0.1569 -0.3545 -0.0075
  151SAPE  H16R16758   5.186   0.400   9.472  2.2968  0.1395 -2.2340
  151SAPE  H16S16759   5.292   0.299   9.581  1.8735  0.3967  1.1366
  151SAPE  C21716760   5.387   0.458   9.474  0.3330  1.0878 -0.3170
  151SAPE  H17R16761   5.475   0.435   9.537 -1.0514  1.7338  1.9390
  151SAPE  H17S16762   5.368   0.567   9.467  0.7958  1.2101  0.2957
  151SAPE  C21816763   5.412   0.389   9.334 -0.0495 -0.2827 -0.8584
  151SAPE  H18R16764   5.318   0.382   9.275  0.6178  3.2811 -2.6212
  151SAPE  H18S16765   5.452   0.286   9.347  1.3146  0.2464 -0.7366
  151SAPE  C21916766   5.519   0.456   9.248  0.1208 -0.5191  0.9016
  151SAPE  H19R16767   5.557   0.402   9.158 -1.0502  1.0753 -0.6343
  151SAPE  H19S16768   5.613   0.481   9.301 -0.8935 -1.0748  3.0862
  151SAPE  C22016769   5.470   0.587   9.183  0.1606  0.0953 -0.4144
  151SAPE  H20R16770   5.488   0.675   9.248  1.5453  0.5843 -1.3980
  151SAPE  H20S16771   5.363   0.577   9.157  0.1008 -1.6334  0.3375
  151SAPE  H20T16772   5.525   0.604   9.088 -0.0977  1.8526 -0.2857
  151SAPE   C3316773   4.739   0.731  10.031  0.2467  0.5211 -0.2968
  151SAPE   H3X16774   4.804   0.808  10.078  0.4408  0.6132 -0.7080
  151SAPE   H3Y16775   4.634   0.767  10.043  0.0860  0.4310 -1.3510
  151SAPE   C3416776   4.761   0.704   9.882 -1.0522 -0.7694  0.0754
  151SAPE   H4X16777   4.684   0.640   9.835 -1.5373 -0.0696 -0.1024
  151SAPE   H4Y16778   4.860   0.653   9.876 -0.7499 -0.1517 -0.4066
  151SAPE   C3516779   4.789   0.832   9.794  0.4593 -0.2285 -0.1071
  151SAPE   H5X16780   4.827   0.800   9.694  0.9032  0.8234 -0.2855
  151SAPE   H5Y16781   4.880   0.879   9.835  0.1561  0.0047  0.3139
  151SAPE   C3616782   4.675   0.935   9.770 -0.3981  0.2506  0.1740
  151SAPE   H6X16783   4.644   0.995   9.857  1.5127  1.1006  0.3163
  151SAPE   H6Y16784   4.593   0.873   9.726  0.4479 -0.0308 -1.0514
  151SAPE   C3716785   4.712   1.040   9.662 -0.2700 -0.3265 -0.0218
  151SAPE   H7X16786   4.620   1.081   9.617  0.1538 -1.2604 -1.8486
  151SAPE   H7Y16787   4.771   0.986   9.584 -0.4730 -2.6600  1.3189
  151SAPE   C3816788   4.815   1.154   9.708 -0.0427 -0.1229 -0.1288
  151SAPE   H8X16789   4.886   1.104   9.777 -0.8242  0.4758  1.1555
  151SAPE   H8Y16790   4.754   1.229   9.762 -0.6803 -0.2045 -0.7292
  151SAPE   C3916791   4.897   1.207   9.592 -0.5853 -0.5751 -0.3841
  151SAPE   H9X16792   4.823   1.248   9.520 -0.5830  0.3348  0.1235
  151SAPE   H9Y16793   4.944   1.121   9.539  0.2563 -0.3700  0.0200
  151SAPE  C31016794   4.995   1.324   9.619 -0.3714 -0.5497 -1.2634
  151SAPE  H10X16795   5.070   1.278   9.688 -0.5740  0.3042 -0.4467
  151SAPE  H10Y16796   4.934   1.396   9.677 -0.8197 -1.2974 -0.7918
  151SAPE  C31116797   5.067   1.378   9.497  0.3138  0.4002  0.0387
  151SAPE  H11X16798   5.113   1.306   9.426  0.8923  2.1471 -1.4330
  151SAPE  H11Y16799   5.134   1.458   9.536 -1.5243  1.7172  0.6155
  151SAPE  C31216800   4.972   1.459   9.415  0.7726 -0.5639  0.9893
  151SAPE  H12X16801   4.966   1.561   9.460 -1.2536  0.3184 -1.0798
  151SAPE  H12Y16802   4.869   1.417   9.406  0.2252  1.0757 -1.8717
  151SAPE  C31316803   5.023   1.479   9.271  0.2823 -0.1463  0.1353
  151SAPE  H13X16804   5.130   1.504   9.263  0.2927  0.0965  0.9820
  151SAPE  H13Y16805   4.964   1.557   9.218  0.8357 -0.7765 -1.4949
  151SAPE  C31416806   5.003   1.352   9.185 -0.6196  0.3714  0.2158
  151SAPE  H14X16807   4.896   1.327   9.201 -0.5487  0.3058  0.5880
  151SAPE  H14Y16808   5.066   1.269   9.225 -0.3712 -0.5013 -1.8268
  151SAPE  C31516809   5.039   1.371   9.034 -0.5899  0.4119 -0.7717
  151SAPE  H15X16810   5.143   1.408   9.021 -0.4841  1.2439  1.8663
  151SAPE  H15Y16811   4.974   1.452   8.996 -2.2291  0.6462  2.2330
  151SAPE  C31616812   5.029   1.239   8.962  0.1862  0.0926 -0.0001
  151SAPE  H16X16813   5.031   1.256   8.852  0.0483 -0.1744 -0.0448
  151SAPE  H16Y16814   4.926   1.203   8.983  0.8012 -0.5156  2.2173
  151SAPE  C31716815   5.137   1.135   8.996 -0.2250  0.3727 -0.4751
  151SAPE  H17X16816   5.126   1.039   8.941 -1.5701  0.0259  0.3736
  151SAPE  H17Y16817   5.122   1.110   9.103  2.3174  1.4615  0.2213
  151SAPE  C31816818   5.281   1.180   8.988 -0.3173 -0.4791  0.1180
  151SAPE  H18X16819   5.319   1.197   8.885  0.3138 -0.7437  0.3025
  151SAPE  H18Y16820   5.344   1.105   9.041 -0.7749 -0.6341  0.4416
  151SAPE  H18Z16821   5.302   1.270   9.050  1.4160  0.2405 -1.4351
  152SAPE     N16822   0.980   1.395  10.530 -0.4557  0.0447  0.3875
  152SAPE   HN116823   1.080   1.402  10.502 -1.0479 -0.0297 -2.0065
  152SAPE   HN216824   0.949   1.302  10.493 -1.4971  1.0622 -1.4926
  152SAPE   HN316825   0.928   1.472  10.482  0.8423  0.3371 -0.6251
  152SAPE   C1216826   0.949   1.408  10.677  0.1674  0.3281  0.7415
  152SAPE  H12A16827   0.840   1.432  10.682 -0.5366 -2.6327  1.6062
  152SAPE  H12B16828   1.010   1.491  10.717  0.5663  1.0080 -1.1891
  152SAPE   C1116829   1.005   1.286  10.748 -0.1937 -0.0322 -0.0091
  152SAPE  H11A16830   0.977   1.293  10.855  0.3416 -1.5512  0.2522
  152SAPE  H11B16831   1.116   1.280  10.744 -0.2593 -0.6583 -1.2073
  152SAPE     P16832   0.822   1.103  10.737 -0.0514 -0.1928  0.4051
  152SAPE   O1316833   0.846   1.037  10.860  0.2853 -0.4330  0.6939
  152SAPE   O1416834   0.716   1.206  10.739  0.0305 -0.7423 -0.9607
  152SAPE   O1216835   0.952   1.170  10.690  0.2872 -0.0577 -0.2350
  152SAPE   O1116836   0.784   0.996  10.626 -0.1043  0.0957  0.3362
  152SAPE    C116837   0.881   0.899  10.580  0.2166  0.5031 -0.3049
  152SAPE    HA16838   0.938   0.849  10.662 -2.1255 -0.7105  0.6777
  152SAPE    HB16839   0.828   0.808  10.544 -0.1441 -1.0015  3.5839
  152SAPE    C216840   0.970   0.934  10.466  0.3070  0.1981  0.3163
  152SAPE    HS16841   1.035   1.021  10.489 -2.2582  1.7373  2.4716
  152SAPE   O2116842   0.888   0.958  10.351  0.4148  0.2825  0.0650
  152SAPE   C2116843   0.871   1.081  10.308  0.1793  0.0823  0.6553
  152SAPE   O2216844   0.888   1.181  10.376  0.5559  0.0565  0.3588
  152SAPE   C2216845   0.814   1.072  10.163  0.4257 -0.1629  0.8907
  152SAPE   H2R16846   0.886   1.014  10.101 -1.0045 -1.1192  0.0446
  152SAPE   H2S16847   0.720   1.014  10.181 -0.2338  0.1663 -1.1740
  152SAPE    C316848   1.073   0.817  10.445 -0.3203 -0.4230 -0.4505
  152SAPE    HX16849   1.029   0.715  10.451 -1.4506 -0.2094 -3.6155
  152SAPE    HY16850   1.154   0.834  10.520 -0.2880  0.8669 -0.7669
  152SAPE   O3116851   1.121   0.828  10.304  1.1351  0.2570 -0.2765
  152SAPE   C3116852   1.239   0.904  10.290  0.0696 -0.0654 -0.0574
  152SAPE   O3216853   1.310   0.927  10.383 -0.5982 -0.7430 -0.2707
  152SAPE   C3216854   1.253   0.963  10.147  0.5185 -0.8602 -0.2366
  152SAPE   H2X16855   1.167   1.033  10.140  0.2475 -1.2361 -0.6984
  152SAPE   H2Y16856   1.242   0.873  10.083  1.0610 -2.6601  2.0660
  152SAPE   C2316857   0.769   1.217  10.112 -0.5698  0.9233  0.1167
  152SAPE   H3R16858   0.856   1.285  10.110 -0.3655  0.6502 -1.4195
  152SAPE   H3S16859   0.705   1.257  10.193  0.0647 -0.9959  1.6651
  152SAPE   C2416860   0.689   1.243   9.980  0.0438  0.6241 -0.2218
  152SAPE   H4R16861   0.738   1.197   9.892 -3.7606 -3.2666 -0.6192
  152SAPE   H4S16862   0.672   1.352   9.965 -0.3768  0.6372  0.3504
  152SAPE   C2516863   0.553   1.184   9.995  0.3968 -0.5927  0.0056
  152SAPE   H5R16864   0.485   1.239  10.062 -4.0931 -1.4384 -3.3669
  152SAPE   C2616865   0.495   1.085   9.923 -0.9014  0.1944 -0.2876
  152SAPE   H6R16866   0.402   1.036   9.956  0.7253 -4.2186 -1.5106
  152SAPE   C2716867   0.564   1.012   9.811 -0.0696  0.0708 -0.8895
  152SAPE   H7R16868   0.528   0.907   9.819  1.7421 -0.4557  2.3612
  152SAPE   H7S16869   0.672   0.997   9.831 -0.5637 -2.1180  0.5776
  152SAPE   C2816870   0.527   1.086   9.685  0.1939 -0.4141  0.3779
  152SAPE   H8R16871   0.510   1.194   9.694 -1.1053 -0.4988 -0.6478
  152SAPE   C2916872   0.533   1.031   9.562  0.7394 -0.4150 -0.3294
  152SAPE   H9R16873   0.496   1.087   9.474 -3.1336 -2.6108 -0.3052
  152SAPE  C21016874   0.564   0.886   9.540  0.1432 -0.8056  0.2406
  152SAPE  H10R16875   0.484   0.831   9.486 -0.6998  0.5166  0.1052
  152SAPE  H10S16876   0.563   0.819   9.630  2.2171  0.4107  1.2506
  152SAPE  C21116877   0.686   0.877   9.458 -0.2947 -0.8112  0.3296
  152SAPE  H11R16878   0.776   0.903   9.515  1.0764  2.5029 -2.9675
  152SAPE  C21216879   0.699   0.847   9.327 -0.4444  0.0032 -0.0573
  152SAPE  H12R16880   0.800   0.848   9.283 -0.4994 -2.1950 -0.3441
  152SAPE  C21316881   0.583   0.820   9.227  0.2646  0.4671 -0.4268
  152SAPE  H13R16882   0.498   0.759   9.266  1.9010 -2.4361 -1.1117
  152SAPE  H13S16883   0.621   0.758   9.143  0.9425 -1.5537  1.2735
  152SAPE  C21416884   0.523   0.951   9.176 -0.0096  0.1027  0.7296
  152SAPE  H14R16885   0.555   1.045   9.224 -0.0342  0.9246 -0.7971
  152SAPE  C21516886   0.436   0.950   9.072 -0.5256 -0.1487  0.4958
  152SAPE  H15R16887   0.412   1.045   9.023  0.7966 -0.7261 -1.3873
  152SAPE  C21616888   0.390   0.830   8.997  0.1656  0.1929  0.1626
  152SAPE  H16R16889   0.303   0.844   8.929  0.2416 -2.6237 -0.6374
  152SAPE  H16S16890   0.367   0.745   9.065  1.2268  2.2263  3.2620
  152SAPE  C21716891   0.492   0.787   8.900 -0.2951 -0.3801 -0.0578
  152SAPE  H17R16892   0.480   0.681   8.869  0.7013 -0.1543 -1.3336
  152SAPE  H17S16893   0.597   0.799   8.935  0.1016 -1.4564 -0.8100
  152SAPE  C21816894   0.485   0.864   8.765  0.1557 -0.2141 -0.5114
  152SAPE  H18R16895   0.509   0.970   8.787  1.7573 -0.8631  1.1189
  152SAPE  H18S16896   0.381   0.852   8.727  0.3206  0.7094 -1.2883
  152SAPE  C21916897   0.587   0.810   8.670  0.0168  0.9081 -0.4566
  152SAPE  H19R16898   0.605   0.706   8.705  0.5242  1.6410  1.6187
  152SAPE  H19S16899   0.680   0.866   8.694  0.5306  0.8372 -2.1671
  152SAPE  C22016900   0.546   0.815   8.526 -0.7921  0.3127 -0.8309
  152SAPE  H20R16901   0.468   0.738   8.510 -1.2678  0.9604 -1.7235
  152SAPE  H20S16902   0.631   0.794   8.458 -0.1520  0.3316 -0.0514
  152SAPE  H20T16903   0.489   0.908   8.506 -1.9771  0.1459  1.4027
  152SAPE   C3316904   1.384   1.033  10.106  0.5249  0.4186 -0.1588
  152SAPE   H3X16905   1.461   0.955  10.121  0.8058  0.5440 -0.8822
  152SAPE   H3Y16906   1.403   1.125  10.165 -2.1402  0.4170  0.8347
  152SAPE   C3416907   1.384   1.062   9.957 -0.0624 -0.4692  0.2262
  152SAPE   H4X16908   1.295   1.127   9.939  1.7442  1.9360 -0.5975
  152SAPE   H4Y16909   1.368   0.969   9.898  1.0219  0.6036 -1.8516
  152SAPE   C3516910   1.514   1.127   9.903  1.0516 -0.2025  0.2238
  152SAPE   H5X16911   1.609   1.076   9.929  2.0739  1.7521  0.5234
  152SAPE   H5Y16912   1.521   1.223   9.959 -2.5769 -0.3429  1.2087
  152SAPE   C3616913   1.517   1.147   9.756  0.1742  0.0566  0.2716
  152SAPE   H6X16914   1.605   1.209   9.729 -0.3579  0.7988  0.2020
  152SAPE   H6Y16915   1.428   1.190   9.706  2.0652  1.8783 -1.7438
  152SAPE   C3716916   1.541   1.012   9.683  0.3120  0.0081 -0.0790
  152SAPE   H7X16917   1.462   0.943   9.719 -1.1409  2.0867  0.9988
  152SAPE   H7Y16918   1.637   0.963   9.707 -0.0844 -0.9443 -0.4153
  152SAPE   C3816919   1.543   1.020   9.528 -0.0186  0.3645  0.0486
  152SAPE   H8X16920   1.628   1.086   9.502 -1.4190  1.7476 -1.2523
  152SAPE   H8Y16921   1.447   1.060   9.487  0.5944  0.3449 -1.5033
  152SAPE   C3916922   1.573   0.886   9.452  0.5513  0.2414  0.4302
  152SAPE   H9X16923   1.509   0.801   9.486  1.7077 -0.6881  0.3745
  152SAPE   H9Y16924   1.681   0.864   9.469  1.0032 -0.4472 -2.7530
  152SAPE  C31016925   1.553   0.905   9.301 -0.3810 -0.5053 -0.2690
  152SAPE  H10X16926   1.447   0.929   9.278 -0.4646 -1.9813 -1.6355
  152SAPE  H10Y16927   1.571   0.807   9.252 -2.0778 -0.1526 -1.6781
  152SAPE  C31116928   1.654   1.009   9.238 -0.8289 -0.6483 -0.0822
  152SAPE  H11X16929   1.756   0.967   9.249 -0.9380 -1.1167 -0.7638
  152SAPE  H11Y16930   1.656   1.107   9.290 -1.6368 -1.2491  1.1205
  152SAPE  C31216931   1.632   1.024   9.087 -1.1412  0.0408 -0.0196
  152SAPE  H12X16932   1.537   1.079   9.072 -0.0365  3.2129  3.2800
  152SAPE  H12Y16933   1.625   0.925   9.036  0.3029  1.7264 -3.8662
  152SAPE  C31316934   1.738   1.112   9.013 -0.2415 -0.9768  0.2578
  152SAPE  H13X16935   1.843   1.086   9.037  0.2493  1.9386  1.7140
  152SAPE  H13Y16936   1.726   1.220   9.036  3.1917 -0.5761  0.7838
  152SAPE  C31416937   1.738   1.090   8.863  0.3221  1.3324 -0.3376
  152SAPE  H14X16938   1.640   1.119   8.819 -0.9052  0.0027  1.3871
  152SAPE  H14Y16939   1.739   0.983   8.834 -2.3445  1.4594 -1.1674
  152SAPE  C31516940   1.848   1.169   8.791  0.2298 -0.2930  0.7920
  152SAPE  H15X16941   1.943   1.112   8.802 -0.6146 -1.6429  1.3958
  152SAPE  H15Y16942   1.856   1.278   8.812  0.3443  0.3454 -2.1826
  152SAPE  C31616943   1.808   1.173   8.638 -0.3977 -0.3591 -1.0899
  152SAPE  H16X16944   1.704   1.214   8.635 -0.5988 -0.9029 -2.1148
  152SAPE  H16Y16945   1.806   1.072   8.592 -1.0392  0.0419 -1.9910
  152SAPE  C31716946   1.907   1.269   8.565  0.3358  0.1355  0.5233
  152SAPE  H17X16947   1.918   1.363   8.622 -0.8774  0.1910  0.6963
  152SAPE  H17Y16948   1.863   1.296   8.467  3.9393 -0.0575 -1.3110
  152SAPE  C31816949   2.048   1.217   8.541 -0.4552  0.7363 -0.4141
  152SAPE  H18X16950   2.046   1.116   8.495 -1.6634  0.4180  0.3009
  152SAPE  H18Y16951   2.099   1.198   8.637 -1.1087  0.9013 -0.0264
  152SAPE  H18Z16952   2.107   1.290   8.481 -1.9128  0.2775 -2.5395
  153SAPE     N16953   2.637   0.400  10.840  0.2696  0.2676 -0.1269
  153SAPE   HN116954   2.728   0.373  10.884  0.3650 -0.8951 -1.0131
  153SAPE   HN216955   2.575   0.443  10.912  0.7070 -1.7062  1.5067
  153SAPE   HN316956   2.591   0.313  10.809 -1.4405  1.1912 -0.2841
  153SAPE   C1216957   2.669   0.499  10.727 -0.5300  0.9841 -0.0078
  153SAPE  H12A16958   2.722   0.587  10.769  0.4647 -0.3879  1.7451
  153SAPE  H12B16959   2.576   0.538  10.680 -1.3535 -1.0418 -0.1572
  153SAPE   C1116960   2.763   0.438  10.626  0.0993  0.2556  0.1727
  153SAPE  H11A16961   2.788   0.501  10.538 -0.0512  0.1303  0.0389
  153SAPE  H11B16962   2.717   0.348  10.579  1.0009  0.5141 -1.2834
  153SAPE     P16963   2.975   0.293  10.632  0.2215  0.0361  0.0673
  153SAPE   O1316964   3.105   0.278  10.693 -0.2685 -0.4368  0.2981
  153SAPE   O1416965   2.908   0.160  10.632 -0.1708  0.5226  0.1096
  153SAPE   O1216966   2.881   0.403  10.696 -0.9088 -0.2704 -0.2539
  153SAPE   O1116967   2.990   0.333  10.478  0.2054 -0.3839  0.1390
  153SAPE    C116968   3.064   0.454  10.459 -0.2201 -0.6823  0.4538
  153SAPE    HA16969   2.997   0.528  10.411  1.2305 -1.1129 -2.4365
  153SAPE    HB16970   3.112   0.494  10.551  0.2735 -1.4985  0.5609
  153SAPE    C216971   3.199   0.430  10.376 -0.0983  0.2760  0.0995
  153SAPE    HS16972   3.255   0.526  10.372  2.0425 -0.9513 -0.7265
  153SAPE   O2116973   3.156   0.377  10.251 -0.3369  0.2393 -0.3741
  153SAPE   C2116974   3.109   0.460  10.162 -0.3471  0.8727 -0.2031
  153SAPE   O2216975   3.108   0.583  10.170 -0.3986  0.2987  0.5791
  153SAPE   C2216976   3.053   0.368  10.050  0.1605  0.8032 -0.3272
  153SAPE   H2R16977   3.139   0.316  10.003  1.1135  2.4704 -0.4959
  153SAPE   H2S16978   2.981   0.300  10.101 -0.7752  1.3565 -0.8744
  153SAPE    C316979   3.300   0.332  10.445  0.1869 -0.1089  0.1192
  153SAPE    HX16980   3.234   0.244  10.461  1.8480 -0.9953  2.8715
  153SAPE    HY16981   3.323   0.365  10.549  0.0976  2.3342 -0.5711
  153SAPE   O3116982   3.416   0.285  10.359 -1.1295 -0.2644  0.4623
  153SAPE   C3116983   3.514   0.366  10.354  0.0679 -0.3214 -0.9283
  153SAPE   O3216984   3.525   0.472  10.416 -0.2684 -0.3088 -0.3359
  153SAPE   C3216985   3.616   0.328  10.258 -0.7094 -0.4247  0.9316
  153SAPE   H2X16986   3.589   0.234  10.205 -1.7802  0.1885  0.3600
  153SAPE   H2Y16987   3.707   0.311  10.320 -1.1539  1.6029  2.2479
  153SAPE   C2316988   2.993   0.458   9.937 -0.2073 -0.4321 -0.1051
  153SAPE   H3R16989   3.072   0.485   9.864  2.8840 -1.2919  2.6252
  153SAPE   H3S16990   2.965   0.554   9.985 -0.2032  0.0794 -1.1105
  153SAPE   C2416991   2.871   0.399   9.864  0.5931  0.3838  0.3669
  153SAPE   H4R16992   2.791   0.388   9.940  0.6697 -1.9781  0.1787
  153SAPE   H4S16993   2.905   0.301   9.825 -4.1498 -0.4887 -2.3164
  153SAPE   C2516994   2.836   0.489   9.746 -0.0034  0.1540 -0.3340
  153SAPE   H5R16995   2.763   0.565   9.776 -1.0694 -1.2238  0.7048
  153SAPE   C2616996   2.892   0.484   9.622  0.2456  0.0379  0.6273
  153SAPE   H6R16997   2.857   0.558   9.549 -0.2566  0.0112  0.8355
  153SAPE   C2716998   3.007   0.398   9.585 -0.7811 -0.1210 -0.1056
  153SAPE   H7R16999   3.067   0.379   9.677 -0.6917 -0.4244 -0.2231
  153SAPE   H7S17000   3.071   0.451   9.511  0.0320 -2.1948 -0.9714
  153SAPE   C2817001   2.961   0.273   9.518 -0.0110 -0.1728 -0.6751
  153SAPE   H8R17002   2.959   0.182   9.581 -0.9411  1.2673  1.4920
  153SAPE   C2917003   2.921   0.266   9.389 -1.2513 -0.0848 -0.8783
  153SAPE   H9R17004   2.886   0.166   9.359  0.0139 -0.8691  0.1245
  153SAPE  C21017005   2.919   0.377   9.290 -0.1794 -0.7713 -0.1691
  153SAPE  H10R17006   2.993   0.352   9.212  1.4948  0.6870  0.8632
  153SAPE  H10S17007   2.961   0.475   9.322 -0.1098 -0.5298 -0.9847
  153SAPE  C21117008   2.784   0.419   9.232  0.0974  0.1405 -1.0754
  153SAPE  H11R17009   2.697   0.389   9.292  0.6390  2.7811  1.1979
  153SAPE  C21217010   2.767   0.489   9.120 -0.4209  0.3323  0.1655
  153SAPE  H12R17011   2.665   0.509   9.086 -0.0381  0.8702 -0.6912
  153SAPE  C21317012   2.886   0.534   9.039  0.3143 -0.3300  0.6091
  153SAPE  H13R17013   2.847   0.539   8.935 -1.7782 -3.4367  1.1209
  153SAPE  H13S17014   2.967   0.459   9.040 -0.1087 -1.0575 -3.4798
  153SAPE  C21417015   2.959   0.658   9.082 -0.1557  0.7940 -0.4524
  153SAPE  H14R17016   2.969   0.679   9.189  1.5267  1.0359 -0.6273
  153SAPE  C21517017   3.016   0.740   8.991 -0.3395 -0.1544  0.5512
  153SAPE  H15R17018   3.074   0.823   9.035 -1.1734 -0.2110  1.8140
  153SAPE  C21617019   3.010   0.729   8.842  0.3399 -0.1740 -0.0797
  153SAPE  H16R17020   3.021   0.624   8.806  0.4177  0.8698 -3.3649
  153SAPE  H16S17021   3.095   0.785   8.798  1.1152 -1.2014  0.0778
  153SAPE  C21717022   2.874   0.756   8.777 -0.0801 -0.3301 -0.7178
  153SAPE  H17R17023   2.841   0.844   8.835 -1.2226 -1.5556  0.5726
  153SAPE  H17S17024   2.794   0.681   8.796 -1.3491  1.1124 -0.1436
  153SAPE  C21817025   2.888   0.806   8.629  0.4975  0.1003 -0.2102
  153SAPE  H18R17026   2.963   0.884   8.605  2.8199 -1.3473  1.8341
  153SAPE  H18S17027   2.788   0.847   8.601  0.9935  0.8693 -0.8943
  153SAPE  C21917028   2.893   0.698   8.522 -0.2446  0.9148  0.3203
  153SAPE  H19R17029   2.825   0.709   8.435  0.3663 -1.8854 -0.6316
  153SAPE  H19S17030   2.862   0.600   8.565  1.6003  0.0970 -0.0820
  153SAPE  C22017031   3.034   0.678   8.475 -0.7518 -0.7092  0.5697
  153SAPE  H20R17032   3.075   0.779   8.454  1.1641 -1.1304  1.9659
  153SAPE  H20S17033   3.043   0.602   8.395  3.1919 -1.1699  1.2336
  153SAPE  H20T17034   3.109   0.644   8.550  1.9329  2.7522 -0.2354
  153SAPE   C3317035   3.657   0.426  10.150  0.4450 -0.1859  0.0868
  153SAPE   H3X17036   3.721   0.380  10.072 -1.4643  0.2706 -1.8696
  153SAPE   H3Y17037   3.705   0.515  10.196 -4.1517  1.3609  2.5900
  153SAPE   C3417038   3.541   0.492  10.070 -0.1763  0.4512  0.3085
  153SAPE   H4X17039   3.591   0.548   9.988  0.7417 -0.6760  0.0812
  153SAPE   H4Y17040   3.477   0.545  10.144 -1.7246 -0.2881 -0.4469
  153SAPE   C3517041   3.440   0.394  10.009  0.1145  0.1436  0.1564
  153SAPE   H5X17042   3.377   0.453   9.939  0.1997  0.6903  0.5327
  153SAPE   H5Y17043   3.376   0.341  10.083  0.7156 -2.3606 -1.0303
  153SAPE   C3617044   3.507   0.279   9.931 -0.1564 -0.9219 -0.3337
  153SAPE   H6X17045   3.433   0.199   9.912 -0.6649 -0.1144 -1.9329
  153SAPE   H6Y17046   3.591   0.236   9.990  0.1894 -0.3654 -0.4141
  153SAPE   C3717047   3.559   0.320   9.792  0.1472  0.3487 -0.6573
  153SAPE   H7X17048   3.595   0.228   9.743 -1.0498  0.5250 -1.9388
  153SAPE   H7Y17049   3.634   0.402   9.794  0.3425  0.1611  0.0269
  153SAPE   C3817050   3.452   0.387   9.706  0.0273  0.2664 -0.1053
  153SAPE   H8X17051   3.418   0.486   9.741 -1.2725 -1.1168  2.8991
  153SAPE   H8Y17052   3.370   0.312   9.706  2.2086 -2.4320  2.8657
  153SAPE   C3917053   3.485   0.403   9.565 -0.0500  0.2424 -0.0377
  153SAPE   H9X17054   3.540   0.314   9.527  2.7060  1.2262  1.4193
  153SAPE   H9Y17055   3.558   0.486   9.562  2.0691 -1.4364  1.9194
  153SAPE  C31017056   3.366   0.434   9.474  0.2315  0.4706 -0.2853
  153SAPE  H10X17057   3.319   0.529   9.508 -0.1994 -0.1507  0.8988
  153SAPE  H10Y17058   3.292   0.351   9.473 -0.0603  0.6516  1.8956
  153SAPE  C31117059   3.421   0.457   9.334  0.9000 -0.4654 -0.4117
  153SAPE  H11X17060   3.486   0.370   9.312 -0.5884 -2.0956  1.2355
  153SAPE  H11Y17061   3.483   0.548   9.326  0.4568  0.1666  2.2143
  153SAPE  C31217062   3.318   0.460   9.229  0.4363 -0.0610 -0.3391
  153SAPE  H12X17063   3.256   0.552   9.233  1.7130  0.9053 -1.7736
  153SAPE  H12Y17064   3.258   0.366   9.226  0.0121  0.1729  0.5087
  153SAPE  C31317065   3.388   0.456   9.088  0.5328  0.0843 -0.3525
  153SAPE  H13X17066   3.307   0.463   9.013 -0.6712  3.2134  1.0594
  153SAPE  H13Y17067   3.442   0.360   9.073  3.2677  0.7823  3.3894
  153SAPE  C31417068   3.472   0.583   9.065  0.4855  0.3666  0.7782
  153SAPE  H14X17069   3.564   0.548   9.115 -0.5269 -2.2765  0.9580
  153SAPE  H14Y17070   3.425   0.665   9.124 -2.6992 -1.0082  0.3975
  153SAPE  C31517071   3.517   0.623   8.923  0.3811  0.2685  0.1285
  153SAPE  H15X17072   3.558   0.533   8.872 -0.4678  1.6103 -3.1839
  153SAPE  H15Y17073   3.594   0.702   8.933  0.4677 -0.1217  3.7179
  153SAPE  C31617074   3.398   0.662   8.839 -0.0568 -0.0597  0.2538
  153SAPE  H16X17075   3.342   0.742   8.891 -1.4983  0.2854 -1.7079
  153SAPE  H16Y17076   3.327   0.577   8.827 -0.4814  0.2186  0.7663
  153SAPE  C31717077   3.428   0.721   8.699 -0.0446  0.7073  0.1622
  153SAPE  H17X17078   3.499   0.805   8.718  1.0343  0.0359 -0.7390
  153SAPE  H17Y17079   3.341   0.767   8.648 -2.0740 -1.6420  1.3343
  153SAPE  C31817080   3.483   0.621   8.602 -0.1959  0.7045 -0.5702
  153SAPE  H18X17081   3.585   0.600   8.643 -0.2192  0.2186 -0.7516
  153SAPE  H18Y17082   3.495   0.666   8.501  1.5523  1.4813 -0.0671
  153SAPE  H18Z17083   3.426   0.527   8.613 -0.4508  1.0304  1.1105
  154SAPE     N17084   2.315   2.299  10.989 -0.7334  0.8703  0.3071
  154SAPE   HN117085   2.241   2.292  10.916  0.6208 -2.0289 -0.9340
  154SAPE   HN217086   2.407   2.288  10.943 -0.5809 -0.2729  0.8649
  154SAPE   HN317087   2.302   2.229  11.065 -0.3643  1.6949  1.1534
  154SAPE   C1217088   2.332   2.437  11.039  0.6724 -0.3113 -0.0384
  154SAPE  H12A17089   2.409   2.423  11.117  1.4656 -1.9397 -1.0598
  154SAPE  H12B17090   2.234   2.471  11.079  1.5100 -0.0129  1.8567
  154SAPE   C1117091   2.374   2.527  10.918 -0.0887  0.0129 -0.5027
  154SAPE  H11A17092   2.413   2.622  10.960 -0.1412  0.8457 -2.2622
  154SAPE  H11B17093   2.291   2.561  10.853  0.2276  0.8534 -0.4685
  154SAPE     P17094   2.559   2.534  10.732 -0.0182 -0.1498  0.3332
  154SAPE   O1317095   2.572   2.667  10.778  0.0043 -0.9991 -0.1797
  154SAPE   O1417096   2.675   2.451  10.710  0.0776 -0.4918  0.6105
  154SAPE   O1217097   2.475   2.459  10.840  0.2643  0.2661  0.0882
  154SAPE   O1117098   2.470   2.535  10.603  0.5205  0.1562  0.0865
  154SAPE    C117099   2.403   2.421  10.552  0.3144 -0.2993  0.2196
  154SAPE    HA17100   2.445   2.327  10.593  0.7499 -1.5153 -2.7287
  154SAPE    HB17101   2.294   2.431  10.573 -0.1659 -1.3606 -1.5634
  154SAPE    C217102   2.414   2.411  10.394 -0.1957 -0.0875 -0.3424
  154SAPE    HS17103   2.524   2.405  10.378  0.1301  2.6123  0.3330
  154SAPE   O2117104   2.368   2.527  10.331 -0.1182 -0.2420  0.2415
  154SAPE   C2117105   2.381   2.534  10.200 -1.0104 -0.3587 -0.4827
  154SAPE   O2217106   2.437   2.449  10.129  0.0751 -0.6042 -0.5251
  154SAPE   C2217107   2.339   2.676  10.149 -0.0164  0.7984 -0.1835
  154SAPE   H2R17108   2.377   2.747  10.226  0.9038 -0.1618  0.2775
  154SAPE   H2S17109   2.388   2.691  10.050 -1.8303 -1.0138 -1.4230
  154SAPE    C317110   2.339   2.278  10.345 -0.5140  0.2315 -0.1926
  154SAPE    HX17111   2.349   2.206  10.429 -1.3103  0.0930 -0.2146
  154SAPE    HY17112   2.395   2.225  10.265 -0.2956  1.3645 -0.7968
  154SAPE   O3117113   2.199   2.291  10.313  0.3053 -0.3354 -0.1014
  154SAPE   C3117114   2.136   2.179  10.301  0.0341  0.1020 -0.0837
  154SAPE   O3217115   2.188   2.066  10.302  0.2712  0.3617 -0.3617
  154SAPE   C3217116   1.985   2.200  10.276 -0.0815 -0.4775  0.0911
  154SAPE   H2X17117   1.966   2.304  10.244  0.5591 -0.3956 -0.0500
  154SAPE   H2Y17118   1.941   2.182  10.377  0.3711 -0.2686  0.3285
  154SAPE   C2317119   2.187   2.676  10.130  1.1173  0.4549  0.2457
  154SAPE   H3R17120   2.153   2.782  10.126  0.0205  0.2332  2.1630
  154SAPE   H3S17121   2.136   2.637  10.221  0.8372  1.2558  0.4456
  154SAPE   C2417122   2.128   2.597  10.009  1.3174 -0.6675 -0.3374
  154SAPE   H4R17123   2.124   2.491  10.042  1.6797 -1.0588 -1.4790
  154SAPE   H4S17124   2.202   2.612   9.927  0.5788  3.3434 -0.4413
  154SAPE   C2517125   1.995   2.655   9.965 -0.2614 -0.9497  0.4358
  154SAPE   H5R17126   1.934   2.677  10.054 -0.8201 -0.7080  0.0018
  154SAPE   C2617127   1.948   2.669   9.836 -0.0388  0.4899 -0.7025
  154SAPE   H6R17128   1.847   2.712   9.830 -0.1789  0.4578  1.0855
  154SAPE   C2717129   2.005   2.649   9.697  0.0118  0.1196 -0.1125
  154SAPE   H7R17130   2.100   2.593   9.712  0.2157  0.4743 -0.0795
  154SAPE   H7S17131   2.032   2.751   9.664 -2.8116  1.0702  0.3332
  154SAPE   C2817132   1.909   2.576   9.604  0.5418  0.0827 -0.3683
  154SAPE   H8R17133   1.875   2.476   9.632 -0.6763  0.5079 -0.2750
  154SAPE   C2917134   1.846   2.617   9.496 -0.0429  0.2211 -0.2413
  154SAPE   H9R17135   1.783   2.552   9.433  2.2718  0.5703 -3.1187
  154SAPE  C21017136   1.864   2.754   9.434  0.0372  0.0723  0.7960
  154SAPE  H10R17137   1.951   2.744   9.365 -1.9565 -2.9821 -1.5394
  154SAPE  H10S17138   1.885   2.830   9.512  3.3608  1.3258 -1.1172
  154SAPE  C21117139   1.757   2.809   9.337 -0.2042  0.8538 -1.0764
  154SAPE  H11R17140   1.687   2.879   9.385  1.5221  1.9474 -0.0093
  154SAPE  C21217141   1.743   2.769   9.210 -0.0058 -0.0576  0.4180
  154SAPE  H12R17142   1.667   2.816   9.147  1.0431  0.9585 -0.1113
  154SAPE  C21317143   1.826   2.666   9.139  0.0627 -0.4786 -0.4488
  154SAPE  H13R17144   1.764   2.582   9.101  0.2754 -0.5767 -0.5774
  154SAPE  H13S17145   1.901   2.618   9.205  0.3673 -1.3717 -1.4106
  154SAPE  C21417146   1.888   2.728   9.014  0.1661 -0.1268 -0.5052
  154SAPE  H14R17147   1.961   2.804   9.044 -2.0723  1.8932  0.1791
  154SAPE  C21517148   1.868   2.697   8.882 -0.5251  0.2729 -0.5827
  154SAPE  H15R17149   1.914   2.767   8.810 -0.6608  1.8694  0.8229
  154SAPE  C21617150   1.773   2.594   8.828 -0.0172 -0.7048  1.0961
  154SAPE  H16R17151   1.694   2.558   8.897 -1.8847 -1.0850 -1.1286
  154SAPE  H16S17152   1.832   2.507   8.791 -2.4218 -1.7830 -0.4397
  154SAPE  C21717153   1.699   2.661   8.709  0.1758 -0.1030  0.0209
  154SAPE  H17R17154   1.775   2.711   8.645 -0.0257 -0.0401 -0.1671
  154SAPE  H17S17155   1.642   2.746   8.751  1.6826  2.4620 -2.7467
  154SAPE  C21817156   1.592   2.578   8.637 -0.0265 -0.1784  0.0110
  154SAPE  H18R17157   1.524   2.541   8.717 -0.8662 -1.7127 -1.3595
  154SAPE  H18S17158   1.636   2.490   8.586 -2.7860 -1.2475 -0.7204
  154SAPE  C21917159   1.493   2.653   8.546  0.3082 -0.3494 -0.6095
  154SAPE  H19R17160   1.446   2.735   8.603  0.7152 -0.8325  0.4452
  154SAPE  H19S17161   1.413   2.584   8.511  0.8834 -1.0908 -0.4873
  154SAPE  C22017162   1.557   2.705   8.420  0.1110 -0.1187 -0.0871
  154SAPE  H20R17163   1.618   2.797   8.428 -1.1616  0.6913  0.7831
  154SAPE  H20S17164   1.475   2.723   8.348 -1.4483  0.2658  1.7051
  154SAPE  H20T17165   1.622   2.620   8.391  2.5647  0.5427  2.9886
  154SAPE   C3317166   1.927   2.093  10.184  0.3805  0.3604 -0.5296
  154SAPE   H3X17167   1.816   2.091  10.192  0.4479  0.4028  0.5539
  154SAPE   H3Y17168   1.953   1.987  10.204 -0.6056  0.4498  1.4379
  154SAPE   C3417169   1.947   2.137  10.044 -0.2048 -0.0811  0.6304
  154SAPE   H4X17170   2.047   2.111  10.004  0.9413  0.4038  3.0181
  154SAPE   H4Y17171   1.935   2.247  10.046  3.7525  0.4805  2.9361
  154SAPE   C3517172   1.845   2.068   9.953  0.0910 -0.3500 -0.3692
  154SAPE   H5X17173   1.743   2.106   9.977  0.6777  0.5073  0.8393
  154SAPE   H5Y17174   1.841   1.962   9.986 -0.3255  0.3012  1.8239
  154SAPE   C3617175   1.875   2.083   9.802 -0.1646 -0.4900 -0.2032
  154SAPE   H6X17176   1.982   2.066   9.775 -0.2426 -0.7939 -0.3279
  154SAPE   H6Y17177   1.853   2.191   9.790 -1.3182 -0.3597  2.3958
  154SAPE   C3717178   1.784   1.989   9.719  0.0272  0.3401 -0.2319
  154SAPE   H7X17179   1.679   2.015   9.747 -0.8015 -0.7620 -2.0952
  154SAPE   H7Y17180   1.809   1.885   9.749 -0.1389  0.3917  0.0966
  154SAPE   C3817181   1.803   2.003   9.572  0.2763  0.1204  0.0910
  154SAPE   H8X17182   1.747   1.925   9.516  1.4077  1.2681 -2.8338
  154SAPE   H8Y17183   1.912   2.015   9.555  0.7043  2.3634  3.3910
  154SAPE   C3917184   1.745   2.139   9.519  0.8897 -0.2911  0.5695
  154SAPE   H9X17185   1.768   2.215   9.596 -1.4117  0.3707  0.6556
  154SAPE   H9Y17186   1.636   2.135   9.500  1.2318  0.1232 -1.8593
  154SAPE  C31017187   1.827   2.188   9.390  0.0863 -0.2736 -0.0422
  154SAPE  H10X17188   1.935   2.177   9.413  0.6533  1.0946 -1.8218
  154SAPE  H10Y17189   1.805   2.297   9.387  3.5302  0.5599  0.7480
  154SAPE  C31117190   1.793   2.125   9.261  0.1260  0.0343 -0.1636
  154SAPE  H11X17191   1.686   2.147   9.240  0.4579  1.1563 -0.7516
  154SAPE  H11Y17192   1.791   2.018   9.290 -1.5331  0.0181 -0.2450
  154SAPE  C31217193   1.868   2.188   9.143  0.5404 -0.3288 -0.5682
  154SAPE  H12X17194   1.978   2.172   9.148  0.2616 -2.2488  0.1470
  154SAPE  H12Y17195   1.847   2.296   9.127 -2.3133 -0.8140 -0.6470
  154SAPE  C31317196   1.828   2.106   9.022  0.2382  0.2510  0.4043
  154SAPE  H13X17197   1.720   2.121   9.001  0.2929  3.5073  1.8648
  154SAPE  H13Y17198   1.850   2.001   9.052 -0.9866 -0.5391 -1.2831
  154SAPE  C31417199   1.901   2.142   8.893  0.4621 -0.0495 -0.2724
  154SAPE  H14X17200   2.005   2.107   8.908 -0.7616 -3.1950  1.7899
  154SAPE  H14Y17201   1.899   2.253   8.880  0.5414  0.1556  1.2796
  154SAPE  C31517202   1.838   2.095   8.763  0.5306  0.2535  0.5052
  154SAPE  H15X17203   1.901   2.122   8.676 -0.3296 -0.1455 -0.2637
  154SAPE  H15Y17204   1.745   2.152   8.743  1.0641  0.7856 -0.5464
  154SAPE  C31617205   1.805   1.944   8.757  0.2227  0.4648 -0.3733
  154SAPE  H16X17206   1.742   1.916   8.670 -1.5871  0.6261  0.8150
  154SAPE  H16Y17207   1.750   1.912   8.849  2.2240  1.2281  1.1616
  154SAPE  C31717208   1.928   1.855   8.744  0.4524 -0.8559  0.0844
  154SAPE  H17X17209   2.002   1.872   8.826 -0.4924 -1.6231  1.1132
  154SAPE  H17Y17210   1.980   1.882   8.650 -1.2873  0.7466 -0.4761
  154SAPE  C31817211   1.895   1.697   8.743  0.0420 -0.3016  0.4017
  154SAPE  H18X17212   1.831   1.660   8.826 -0.0731  0.5383  0.6961
  154SAPE  H18Y17213   1.991   1.642   8.755 -0.6939 -2.0119 -1.1015
  154SAPE  H18Z17214   1.830   1.691   8.653  1.1917  1.5829 -0.6084
  155SAPE     N17215   4.146   1.665  10.732  0.3785 -0.2653  0.1161
  155SAPE   HN117216   4.109   1.618  10.817 -2.2592 -0.3204 -0.9445
  155SAPE   HN217217   4.248   1.663  10.750  0.2452  0.6292  1.1152
  155SAPE   HN317218   4.124   1.766  10.746 -1.9038 -0.6944  0.0231
  155SAPE   C1217219   4.081   1.589  10.622  0.3697  0.2971 -0.8820
  155SAPE  H12A17220   4.101   1.644  10.528 -1.2150  3.9916  0.7280
  155SAPE  H12B17221   3.971   1.595  10.641  0.4789 -2.7315  1.5853
  155SAPE   C1117222   4.129   1.442  10.623  0.4179 -0.0143 -0.6044
  155SAPE  H11A17223   4.234   1.437  10.585  1.6424 -0.1731  2.4968
  155SAPE  H11B17224   4.065   1.376  10.560  1.7394 -1.0352 -0.9344
  155SAPE     P17225   4.219   1.263  10.794  0.2482  0.1552  0.4322
  155SAPE   O1317226   4.350   1.309  10.841  0.4054 -0.2144  0.5265
  155SAPE   O1417227   4.144   1.182  10.889  0.1251  0.3231 -0.2302
  155SAPE   O1217228   4.128   1.383  10.751 -1.1545 -0.1578  0.0389
  155SAPE   O1117229   4.238   1.185  10.661 -0.5640  0.1032 -0.0520
  155SAPE    C117230   4.273   1.047  10.656  0.0847  0.5041  0.2599
  155SAPE    HA17231   4.370   1.034  10.604  1.7826  0.0413  3.2816
  155SAPE    HB17232   4.307   1.008  10.754  0.5415  0.9850  0.2982
  155SAPE    C217233   4.162   0.965  10.589 -0.3300  0.3400  0.1440
  155SAPE    HS17234   4.178   0.855  10.593  0.5576  0.3522 -1.7085
  155SAPE   O2117235   4.143   1.022  10.458 -0.0589  0.3025  0.5937
  155SAPE   C2117236   4.238   0.984  10.370 -0.9473  0.3991 -0.0765
  155SAPE   O2217237   4.343   0.923  10.399  0.2820 -0.6921  0.0798
  155SAPE   C2217238   4.191   1.010  10.229 -0.3546  0.5096 -0.4707
  155SAPE   H2R17239   4.098   0.955  10.205  1.0100 -2.4697  0.6478
  155SAPE   H2S17240   4.169   1.119  10.218 -1.8905  0.2704  0.0044
  155SAPE    C317241   4.026   0.978  10.665 -1.0176  0.1599 -0.4363
  155SAPE    HX17242   3.981   1.079  10.661 -0.4827  0.3972 -0.5476
  155SAPE    HY17243   4.051   0.954  10.771  1.9720 -0.3347 -1.1382
  155SAPE   O3117244   3.945   0.867  10.625 -0.3683 -0.3653 -1.0240
  155SAPE   C3117245   3.838   0.909  10.556  0.1200  0.0075 -0.4323
  155SAPE   O3217246   3.803   1.023  10.526 -0.2009  0.2065 -0.1104
  155SAPE   C3217247   3.756   0.786  10.527 -1.0513 -0.5708  0.5316
  155SAPE   H2X17248   3.659   0.789  10.581 -0.5022  0.9884  1.4855
  155SAPE   H2Y17249   3.822   0.699  10.545  0.9432  0.8600  0.5089
  155SAPE   C2317250   4.298   0.976  10.115 -0.6776  0.3930 -1.5692
  155SAPE   H3R17251   4.321   0.868  10.129 -0.3496  0.5470 -0.8658
  155SAPE   H3S17252   4.388   1.040  10.130  0.3166 -0.9564 -1.5733
  155SAPE   C2417253   4.241   0.999   9.976  0.1929  0.0185 -0.0507
  155SAPE   H4R17254   4.243   1.108   9.954 -0.9836 -0.1664 -1.1845
  155SAPE   H4S17255   4.136   0.965   9.962  0.0160  0.9382 -1.0449
  155SAPE   C2517256   4.335   0.941   9.873 -0.5422  0.0843 -0.0130
  155SAPE   H5R17257   4.416   0.875   9.907 -0.4384 -0.3986 -1.1335
  155SAPE   C2617258   4.318   0.959   9.745 -0.8130  0.4601 -0.4540
  155SAPE   H6R17259   4.394   0.917   9.678 -0.9532  0.0016 -0.3319
  155SAPE   C2717260   4.202   1.034   9.680  0.1826 -0.2465  0.3190
  155SAPE   H7R17261   4.126   1.074   9.750  1.1044  1.2409  0.5131
  155SAPE   H7S17262   4.138   0.960   9.626  1.9221 -2.4189  1.0610
  155SAPE   C2817263   4.242   1.144   9.585 -0.0820 -0.1313 -0.4409
  155SAPE   H8R17264   4.298   1.213   9.650 -1.0487 -0.4202  0.7315
  155SAPE   C2917265   4.239   1.159   9.454 -0.3020  0.1785  0.2382
  155SAPE   H9R17266   4.273   1.257   9.418 -1.6223  0.0407 -1.4650
  155SAPE  C21017267   4.183   1.062   9.354  0.2900 -0.0654  0.2098
  155SAPE  H10R17268   4.096   1.005   9.392 -0.8837 -0.3150 -2.5878
  155SAPE  H10S17269   4.247   0.972   9.340  0.0581 -0.4935  1.7512
  155SAPE  C21117270   4.136   1.118   9.221  0.9096  0.7075 -0.1915
  155SAPE  H11R17271   4.043   1.177   9.226  0.9938  0.8057  0.3475
  155SAPE  C21217272   4.190   1.093   9.101 -1.1107 -0.5122 -0.1862
  155SAPE  H12R17273   4.144   1.144   9.015 -1.8849 -0.4765  0.2387
  155SAPE  C21317274   4.317   1.011   9.092  0.0771 -0.2850 -1.0472
  155SAPE  H13R17275   4.296   0.904   9.113  0.9799 -0.2006  0.4382
  155SAPE  H13S17276   4.391   1.059   9.160  2.5151  0.0538 -3.7139
  155SAPE  C21417277   4.383   1.026   8.958 -0.6769 -0.3195 -1.0630
  155SAPE  H14R17278   4.425   1.127   8.944  0.5560 -0.7084 -0.2977
  155SAPE  C21517279   4.409   0.942   8.866 -0.7422  0.4425 -0.1802
  155SAPE  H15R17280   4.454   0.980   8.773  0.0026 -0.2189 -0.0991
  155SAPE  C21617281   4.381   0.791   8.867  0.5321 -0.6985  0.5042
  155SAPE  H16R17282   4.325   0.769   8.774 -0.3326  1.9456  0.3405
  155SAPE  H16S17283   4.321   0.753   8.952 -2.0871  0.8386 -0.5417
  155SAPE  C21717284   4.513   0.719   8.860  0.3040 -0.8382 -0.3543
  155SAPE  H17R17285   4.563   0.727   8.959 -0.9434 -0.8185  0.2880
  155SAPE  H17S17286   4.571   0.778   8.786  1.3903 -0.0116  1.1067
  155SAPE  C21817287   4.480   0.578   8.805  0.1827  0.2752  0.0185
  155SAPE  H18R17288   4.401   0.584   8.727  0.1667  1.5429  0.1083
  155SAPE  H18S17289   4.433   0.520   8.887  1.1824 -2.6695 -1.3732
  155SAPE  C21917290   4.595   0.505   8.741 -0.1209 -0.2633 -0.4679
  155SAPE  H19R17291   4.607   0.409   8.794  0.1850  0.9653  1.8302
  155SAPE  H19S17292   4.681   0.566   8.778 -0.0247 -1.0785  0.6932
  155SAPE  C22017293   4.591   0.490   8.590 -0.3402  1.1406  0.3146
  155SAPE  H20R17294   4.544   0.581   8.548  0.5581  0.3970 -2.4969
  155SAPE  H20S17295   4.523   0.409   8.557 -0.0363  0.6642  0.8302
  155SAPE  H20T17296   4.696   0.467   8.559 -0.9481 -0.1551 -0.8803
  155SAPE   C3317297   3.731   0.789  10.371 -0.4083 -0.3904 -0.8437
  155SAPE   H3X17298   3.692   0.889  10.342 -0.0431 -0.4575 -1.5753
  155SAPE   H3Y17299   3.656   0.711  10.346 -2.0793  1.0838 -0.6010
  155SAPE   C3417300   3.857   0.765  10.276  1.2849  0.6361 -0.0960
  155SAPE   H4X17301   3.895   0.662  10.293  1.1492  0.4468 -0.8879
  155SAPE   H4Y17302   3.941   0.832  10.303  3.3612 -1.3610 -1.3140
  155SAPE   C3517303   3.807   0.802  10.137 -0.4025 -0.4528  0.5156
  155SAPE   H5X17304   3.775   0.909  10.136  1.7173  0.4067 -4.5612
  155SAPE   H5Y17305   3.723   0.735  10.108 -0.7701  0.3000 -0.2056
  155SAPE   C3617306   3.910   0.782  10.025  0.3070 -0.4009  0.2314
  155SAPE   H6X17307   3.956   0.680  10.024 -1.5293 -1.2642 -0.8275
  155SAPE   H6Y17308   4.000   0.846  10.038  0.2083 -0.1430 -0.3285
  155SAPE   C3717309   3.858   0.798   9.880 -0.4785  0.0233  0.6232
  155SAPE   H7X17310   3.832   0.902   9.850  3.5649  0.7327 -0.9877
  155SAPE   H7Y17311   3.777   0.724   9.861 -0.9254  0.6703 -0.0301
  155SAPE   C3817312   3.962   0.751   9.773 -0.5808  0.0295  0.2682
  155SAPE   H8X17313   3.972   0.641   9.771 -0.8623  0.0108 -1.3428
  155SAPE   H8Y17314   4.062   0.791   9.798 -0.3150 -0.6883  0.3707
  155SAPE   C3917315   3.916   0.809   9.632  0.0451  0.6268 -0.3697
  155SAPE   H9X17316   4.006   0.801   9.567  0.0073 -1.3129 -0.2637
  155SAPE   H9Y17317   3.891   0.917   9.632 -1.2700  0.3403  0.2454
  155SAPE  C31017318   3.800   0.730   9.564 -0.3099 -0.1361  0.1668
  155SAPE  H10X17319   3.725   0.700   9.640  0.9243  0.9819  1.8704
  155SAPE  H10Y17320   3.847   0.639   9.519 -1.2050 -0.9502  0.8472
  155SAPE  C31117321   3.729   0.816   9.460  0.3548  0.4129 -0.0332
  155SAPE  H11X17322   3.698   0.911   9.507 -1.7093 -0.4118  0.3826
  155SAPE  H11Y17323   3.641   0.756   9.428  0.5292 -1.3924  2.5272
  155SAPE  C31217324   3.828   0.856   9.348  0.2885 -0.1868 -0.3604
  155SAPE  H12X17325   3.848   0.763   9.291 -0.9477 -0.0937 -0.9682
  155SAPE  H12Y17326   3.928   0.889   9.383  0.1289  2.2341 -1.9445
  155SAPE  C31317327   3.757   0.957   9.249  0.9600 -0.2032 -0.0701
  155SAPE  H13X17328   3.827   0.993   9.170 -0.4166  0.9416 -0.8299
  155SAPE  H13Y17329   3.732   1.044   9.314  0.2996  0.5792 -1.3220
  155SAPE  C31417330   3.628   0.905   9.180  0.1703 -0.1714  0.3898
  155SAPE  H14X17331   3.565   0.850   9.252  2.3868 -1.9623  1.1011
  155SAPE  H14Y17332   3.657   0.824   9.109  1.9325  2.6175 -2.3766
  155SAPE  C31517333   3.553   1.017   9.108  0.4052  0.1761  0.0238
  155SAPE  H15X17334   3.521   1.080   9.194  0.3465  3.0191 -1.9513
  155SAPE  H15Y17335   3.459   0.980   9.062  1.6007 -3.6372  0.3101
  155SAPE  C31617336   3.641   1.100   9.004 -0.3154  0.0622  0.0269
  155SAPE  H16X17337   3.714   1.160   9.061  1.0535 -1.4643 -0.0736
  155SAPE  H16Y17338   3.569   1.168   8.953 -0.0792  0.4511  0.2112
  155SAPE  C31717339   3.712   1.009   8.896  0.0490  0.0022 -0.0210
  155SAPE  H17X17340   3.632   0.960   8.836  0.5726  0.2744 -0.9528
  155SAPE  H17Y17341   3.761   0.925   8.951  1.8095  1.6767  1.0829
  155SAPE  C31817342   3.811   1.074   8.798 -0.9292  0.3690  0.6855
  155SAPE  H18X17343   3.753   1.137   8.727 -2.2327  1.1883  2.4147
  155SAPE  H18Y17344   3.862   1.002   8.730  0.6066  5.0314 -3.8313
  155SAPE  H18Z17345   3.894   1.115   8.859 -0.3041 -0.9615  0.7558
  156SAPE     N17346   0.522   1.322  10.613 -0.5375 -0.3572 -0.0256
  156SAPE   HN117347   0.431   1.271  10.624 -0.2317 -0.5530  1.9816
  156SAPE   HN217348   0.589   1.272  10.675 -2.9997 -1.1788  2.2091
  156SAPE   HN317349   0.509   1.417  10.653 -0.2488 -0.7780  1.1129
  156SAPE   C1217350   0.577   1.317  10.472  0.3565  0.1229 -0.2457
  156SAPE  H12A17351   0.544   1.219  10.430 -0.3373  0.1784  0.1598
  156SAPE  H12B17352   0.688   1.317  10.465  0.3144 -0.4631 -1.1801
  156SAPE   C1117353   0.531   1.420  10.377  1.0183 -0.2992  0.4084
  156SAPE  H11A17354   0.425   1.404  10.346  1.2954  1.8311 -2.0434
  156SAPE  H11B17355   0.580   1.418  10.277  0.0824  1.8798 -0.1632
  156SAPE     P17356   0.669   1.633  10.429 -0.2126 -0.5555  0.2301
  156SAPE   O1317357   0.663   1.706  10.559  0.4054 -0.8310  0.2836
  156SAPE   O1417358   0.784   1.546  10.408 -0.9336  0.2207 -0.6345
  156SAPE   O1217359   0.541   1.544  10.439 -0.9179  0.6077 -0.0306
  156SAPE   O1117360   0.642   1.722  10.311  0.1840 -0.0876  0.0970
  156SAPE    C117361   0.532   1.809  10.297 -0.6995 -0.0549  0.0660
  156SAPE    HA17362   0.490   1.836  10.396 -0.6641 -0.7087  0.2663
  156SAPE    HB17363   0.566   1.897  10.238 -0.3076  0.2388  0.7205
  156SAPE    C217364   0.426   1.736  10.212 -0.1626  0.0024 -1.1098
  156SAPE    HS17365   0.409   1.642  10.269  0.6469  0.8656  0.6584
  156SAPE   O2117366   0.479   1.709  10.082  0.3071  0.1567 -0.5797
  156SAPE   C2117367   0.403   1.612  10.030 -0.5522  0.5752  0.5300
  156SAPE   O2217368   0.317   1.540  10.084  0.4165  0.1055  0.1764
  156SAPE   C2217369   0.453   1.585   9.885  1.2547  0.0055  0.0915
  156SAPE   H2R17370   0.506   1.671   9.839 -0.2234 -1.0521 -4.0071
  156SAPE   H2S17371   0.529   1.504   9.891 -0.5434 -1.7125  0.9288
  156SAPE    C317372   0.292   1.820  10.223 -0.0362  0.9922 -0.4373
  156SAPE    HX17373   0.262   1.824  10.330 -0.1408  2.3717 -0.5057
  156SAPE    HY17374   0.215   1.756  10.174  1.7149 -0.6083 -1.2142
  156SAPE   O3117375   0.300   1.957  10.173  0.2280  0.1463 -0.2489
  156SAPE   C3117376   0.290   1.976  10.040 -0.2951  0.0303 -0.2065
  156SAPE   O3217377   0.262   1.886   9.963 -0.5845  0.0438  0.5762
  156SAPE   C3217378   0.323   2.113   9.994 -0.0178 -0.3350  0.2855
  156SAPE   H2X17379   0.415   2.156  10.039  0.5074  1.3242 -2.1429
  156SAPE   H2Y17380   0.232   2.174  10.016 -0.3103 -1.6698  3.2577
  156SAPE   C2317381   0.347   1.537   9.781  0.3889 -0.3878 -0.2411
  156SAPE   H3R17382   0.286   1.629   9.768  1.4080 -0.0043 -3.1022
  156SAPE   H3S17383   0.279   1.456   9.816  0.0428 -0.9686 -2.1683
  156SAPE   C2417384   0.415   1.476   9.657 -0.0465  0.2241 -0.2246
  156SAPE   H4R17385   0.336   1.414   9.609 -0.8138 -1.2842  2.7193
  156SAPE   H4S17386   0.497   1.406   9.682 -0.5672 -0.3772 -0.1612
  156SAPE   C2517387   0.456   1.590   9.567 -0.4287  0.0680 -0.7829
  156SAPE   H5R17388   0.471   1.692   9.605  1.2354  0.3536 -2.0919
  156SAPE   C2617389   0.489   1.571   9.439  0.0460  0.2526  0.3664
  156SAPE   H6R17390   0.504   1.665   9.385 -1.5635  0.5366  0.3734
  156SAPE   C2717391   0.493   1.437   9.371 -0.4060 -0.3958 -1.0664
  156SAPE   H7R17392   0.487   1.349   9.439  1.9239  0.7934  0.8579
  156SAPE   H7S17393   0.596   1.416   9.335 -0.5675 -0.8327 -1.2724
  156SAPE   C2817394   0.395   1.421   9.262  0.0388 -0.0212  0.4164
  156SAPE   H8R17395   0.300   1.385   9.302  1.5505 -2.7271  1.9070
  156SAPE   C2917396   0.399   1.460   9.131 -0.6668  0.3409 -0.8209
  156SAPE   H9R17397   0.308   1.442   9.072 -1.5303  2.0745 -0.1014
  156SAPE  C21017398   0.523   1.523   9.065 -0.0643  0.4098 -0.2511
  156SAPE  H10R17399   0.548   1.480   8.966  1.6803  2.5853 -0.8238
  156SAPE  H10S17400   0.612   1.506   9.129  0.1077  1.1876 -0.2712
  156SAPE  C21117401   0.510   1.672   9.028  0.3606  0.0674 -0.0491
  156SAPE  H11R17402   0.425   1.716   9.083  0.2343 -2.3538  1.8782
  156SAPE  C21217403   0.600   1.744   8.954  0.2588 -1.0406 -0.7220
  156SAPE  H12R17404   0.595   1.854   8.950 -2.6736 -1.1014 -0.7898
  156SAPE  C21317405   0.714   1.677   8.903 -0.7419 -0.3195 -0.2208
  156SAPE  H13R17406   0.746   1.592   8.968  1.3301 -0.0317 -0.8043
  156SAPE  H13S17407   0.803   1.742   8.913 -0.0166 -1.2632 -0.4279
  156SAPE  C21417408   0.713   1.620   8.763  0.4368  0.5842  0.1966
  156SAPE  H14R17409   0.617   1.584   8.724  0.0343  1.6919  0.1309
  156SAPE  C21517410   0.818   1.631   8.680 -0.1433 -0.3766  0.5267
  156SAPE  H15R17411   0.802   1.600   8.576  3.3950  1.0394 -0.5890
  156SAPE  C21617412   0.955   1.696   8.700 -0.0023  0.4790  0.1655
  156SAPE  H16R17413   1.034   1.627   8.737  1.0080  0.9473 -1.0739
  156SAPE  H16S17414   0.958   1.774   8.779  1.3057  1.6169 -0.9617
  156SAPE  C21717415   1.011   1.767   8.568 -0.8395  0.1448 -0.5408
  156SAPE  H17R17416   1.116   1.802   8.582 -0.4004 -1.0620 -0.7493
  156SAPE  H17S17417   0.953   1.858   8.542  1.0486  2.1847  1.8318
  156SAPE  C21817418   1.028   1.665   8.453 -0.0520  0.0875 -0.2734
  156SAPE  H18R17419   0.928   1.636   8.415 -1.3830  2.5678  1.0750
  156SAPE  H18S17420   1.066   1.568   8.492 -0.2782  0.7176  1.6184
  156SAPE  C21917421   1.098   1.713   8.330 -0.0481 -0.0887 -0.0403
  156SAPE  H19R17422   1.207   1.718   8.350  0.1645 -0.5020 -1.0199
  156SAPE  H19S17423   1.070   1.817   8.303 -0.7502 -0.6352 -1.5492
  156SAPE  C22017424   1.073   1.624   8.211 -0.8408  0.2638  0.0008
  156SAPE  H20R17425   0.969   1.644   8.176 -0.3192  1.0368 -1.1472
  156SAPE  H20S17426   1.071   1.517   8.240 -1.5772  1.0779  3.5002
  156SAPE  H20T17427   1.133   1.641   8.119 -2.6964 -0.7246 -1.4723
  156SAPE   C3317428   0.357   2.128   9.843  0.5169 -0.1805  0.4697
  156SAPE   H3X17429   0.360   2.235   9.812  0.6807 -0.5917 -1.0290
  156SAPE   H3Y17430   0.274   2.085   9.783  0.6627  0.4274 -0.1864
  156SAPE   C3417431   0.493   2.067   9.804 -0.1694 -0.2692  0.0934
  156SAPE   H4X17432   0.489   1.956   9.801  1.7125 -0.4039  1.2583
  156SAPE   H4Y17433   0.564   2.102   9.882  1.2712 -0.9670 -0.8460
  156SAPE   C3517434   0.545   2.114   9.666  1.1128  0.2823 -0.6749
  156SAPE   H5X17435   0.653   2.086   9.660  0.9552 -1.6669  2.8704
  156SAPE   H5Y17436   0.539   2.225   9.657  0.0112  0.2590 -0.3107
  156SAPE   C3617437   0.462   2.058   9.553  0.1470 -0.0491  0.0304
  156SAPE   H6X17438   0.362   2.106   9.556 -0.4942 -1.3868  2.1674
  156SAPE   H6Y17439   0.451   1.949   9.570  0.9125  0.1885  2.3328
  156SAPE   C3717440   0.529   2.074   9.418 -0.4165 -0.7534  0.0931
  156SAPE   H7X17441   0.631   2.031   9.424  0.4961  0.9726 -1.7588
  156SAPE   H7Y17442   0.546   2.178   9.381  1.9950 -0.6811  1.2619
  156SAPE   C3817443   0.459   1.993   9.311 -0.4218  0.4257  0.1594
  156SAPE   H8X17444   0.436   1.899   9.364  2.1919 -0.6469 -0.4689
  156SAPE   H8Y17445   0.517   1.962   9.221 -0.7028  0.3000  0.0199
  156SAPE   C3917446   0.335   2.070   9.260 -0.1092 -0.3838 -0.2737
  156SAPE   H9X17447   0.296   2.129   9.346  2.5480  2.2775 -0.7355
  156SAPE   H9Y17448   0.247   2.017   9.219 -2.1444  2.5000  0.0421
  156SAPE  C31017449   0.358   2.176   9.152  0.1211 -0.2763  0.2130
  156SAPE  H10X17450   0.442   2.237   9.192  0.6431  1.4301 -3.2084
  156SAPE  H10Y17451   0.266   2.237   9.140  0.5026  0.5053  1.1677
  156SAPE  C31117452   0.388   2.121   9.011 -0.6183 -1.1539  0.1617
  156SAPE  H11X17453   0.471   2.046   9.013  0.6292  0.1740 -0.5867
  156SAPE  H11Y17454   0.428   2.205   8.951 -1.1903 -0.8055  0.2601
  156SAPE  C31217455   0.268   2.077   8.931 -0.3110  0.2240  0.6134
  156SAPE  H12X17456   0.221   2.174   8.907 -2.2199 -0.8873 -0.4390
  156SAPE  H12Y17457   0.213   2.009   9.000  0.8964 -2.4809 -0.9077
  156SAPE  C31317458   0.319   1.997   8.800  0.3396  0.9030 -0.0362
  156SAPE  H13X17459   0.221   1.953   8.771  0.3327  0.0752  1.1773
  156SAPE  H13Y17460   0.387   1.911   8.817 -0.2711  0.2577 -0.7342
  156SAPE  C31417461   0.363   2.091   8.687 -0.1583  0.0196 -0.6237
  156SAPE  H14X17462   0.446   2.160   8.713 -0.8471  0.9119 -0.7492
  156SAPE  H14Y17463   0.273   2.148   8.655  0.1249  0.2252 -1.0538
  156SAPE  C31517464   0.414   2.017   8.559  0.3847 -0.5588 -0.2049
  156SAPE  H15X17465   0.451   2.100   8.496 -1.5144  0.3169 -0.2270
  156SAPE  H15Y17466   0.327   1.980   8.501 -0.2648 -2.3944  1.8036
  156SAPE  C31617467   0.516   1.905   8.577 -0.2528  0.9294 -0.2057
  156SAPE  H16X17468   0.478   1.834   8.654  0.2610 -0.4015 -1.1476
  156SAPE  H16Y17469   0.605   1.947   8.629 -0.2235  0.4974  0.0982
  156SAPE  C31717470   0.553   1.851   8.445  0.5551  0.0536 -0.2626
  156SAPE  H17X17471   0.634   1.777   8.460  1.1608  1.0750  1.8596
  156SAPE  H17Y17472   0.610   1.929   8.391  3.6555 -1.0737  1.1388
  156SAPE  C31817473   0.436   1.784   8.368 -0.7970  0.5254 -0.5838
  156SAPE  H18X17474   0.384   1.702   8.422  2.4606 -0.3981  1.3952
  156SAPE  H18Y17475   0.487   1.735   8.282  2.8842  1.1627  1.0585
  156SAPE  H18Z17476   0.357   1.860   8.349 -1.2030 -0.0140 -1.0875
  157SAPE     N17477   4.399   4.770  10.978  0.1170 -0.1043  0.2764
  157SAPE   HN117478   4.309   4.813  10.947 -0.7560 -0.3186  2.3624
  157SAPE   HN217479   4.435   4.708  10.902 -1.7515 -0.6813 -0.1960
  157SAPE   HN317480   4.377   4.710  11.060 -0.5196 -0.4286 -0.1185
  157SAPE   C1217481   4.511   4.873  11.012 -0.3038 -0.4999  0.7474
  157SAPE  H12A17482   4.584   4.819  11.075 -1.5118 -1.4400  1.3996
  157SAPE  H12B17483   4.453   4.944  11.074 -1.6972 -0.9004 -0.0422
  157SAPE   C1117484   4.569   4.928  10.879 -0.3631 -0.3150  0.2552
  157SAPE  H11A17485   4.488   4.970  10.815 -1.1603 -2.5262 -0.2983
  157SAPE  H11B17486   4.618   4.845  10.823 -2.6886 -2.1858  0.7736
  157SAPE     P17487   4.646   5.182  10.911 -0.0256  0.1118  0.1912
  157SAPE   O1317488   4.580   5.213  11.041  0.0892 -0.3421 -0.9673
  157SAPE   O1417489   4.766   5.259  10.889 -0.6605 -0.8054 -0.0912
  157SAPE   O1217490   4.669   5.028  10.903  0.2239 -0.0669  0.2797
  157SAPE   O1117491   4.545   5.223  10.797 -0.8929 -0.0094 -0.1977
  157SAPE    C117492   4.599   5.258  10.667 -0.0494  0.2174  0.3576
  157SAPE    HA17493   4.703   5.228  10.642  0.3270  1.2799  0.5755
  157SAPE    HB17494   4.542   5.206  10.588  2.0821 -1.6326 -0.0655
  157SAPE    C217495   4.584   5.416  10.655  0.5134 -0.5036 -0.1547
  157SAPE    HS17496   4.621   5.466  10.747  0.0566  0.1012 -0.2885
  157SAPE   O2117497   4.447   5.454  10.614 -0.0426 -0.4124 -0.1340
  157SAPE   C2117498   4.426   5.581  10.651 -0.2777 -0.7470 -0.5280
  157SAPE   O2217499   4.498   5.654  10.716  0.8761 -1.0360 -0.2035
  157SAPE   C2217500   4.304   5.618  10.576  0.7551 -0.1243 -0.4406
  157SAPE   H2R17501   4.291   5.553  10.487 -0.3415  1.3917 -1.4453
  157SAPE   H2S17502   4.213   5.602  10.638 -0.9600  2.2640 -2.1071
  157SAPE    C317503   4.679   5.466  10.543  0.0754  0.1677 -0.4716
  157SAPE    HX17504   4.782   5.457  10.584 -0.3825 -1.9161  0.3792
  157SAPE    HY17505   4.672   5.575  10.524  0.2883 -0.0200 -1.7342
  157SAPE   O3117506   4.653   5.390  10.427 -0.2823 -0.0521  0.0864
  157SAPE   C3117507   4.562   5.434  10.346  0.1847  0.6186  0.2356
  157SAPE   O3217508   4.503   5.546  10.348 -0.4111 -0.4073  0.2614
  157SAPE   C3217509   4.541   5.323  10.242  0.2706 -0.0617 -0.3854
  157SAPE   H2X17510   4.442   5.337  10.194 -0.7370 -0.1472  1.5954
  157SAPE   H2Y17511   4.555   5.223  10.289  0.9913  0.3109  0.2217
  157SAPE   C2317512   4.314   5.759  10.515 -0.1355 -0.0696 -0.1542
  157SAPE   H3R17513   4.399   5.768  10.444 -1.2921  1.2222 -1.4388
  157SAPE   H3S17514   4.323   5.832  10.599  0.0274  0.0708 -0.2925
  157SAPE   C2417515   4.193   5.792  10.430 -0.3195 -0.3701 -0.3060
  157SAPE   H4R17516   4.108   5.796  10.501 -0.3857  0.1774 -0.4123
  157SAPE   H4S17517   4.172   5.727  10.342  1.0170  1.7108 -2.2623
  157SAPE   C2517518   4.193   5.930  10.371 -0.4222 -1.1807  0.3857
  157SAPE   H5R17519   4.141   6.014  10.420  0.8346  0.6270 -1.2418
  157SAPE   C2617520   4.255   5.970  10.256 -0.8926  0.4536  0.2595
  157SAPE   H6R17521   4.232   6.073  10.226  0.1380  0.7733  0.5080
  157SAPE   C2717522   4.343   5.884  10.171  0.7272  0.1533  0.0943
  157SAPE   H7R17523   4.363   5.789  10.225  3.3608  0.8406  0.4751
  157SAPE   H7S17524   4.443   5.925  10.147 -0.3188  1.7987 -1.7570
  157SAPE   C2817525   4.265   5.857  10.044 -0.1625  0.3197 -0.6188
  157SAPE   H8R17526   4.200   5.770  10.055  0.8650 -0.1405  3.7115
  157SAPE   C2917527   4.270   5.926   9.929 -0.7255 -0.1574  0.4993
  157SAPE   H9R17528   4.213   5.899   9.839  1.9179 -1.1359 -0.9823
  157SAPE  C21017529   4.351   6.052   9.905  0.0897  0.7092 -0.4211
  157SAPE  H10R17530   4.428   6.025   9.830 -0.4817  1.9059 -1.4630
  157SAPE  H10S17531   4.412   6.086   9.991  0.1780  2.6008 -1.1929
  157SAPE  C21117532   4.273   6.169   9.856 -0.4973 -0.9497 -0.3267
  157SAPE  H11R17533   4.273   6.254   9.926  0.1926 -0.7360 -0.5798
  157SAPE  C21217534   4.216   6.183   9.731  0.4038 -0.1092  0.2312
  157SAPE  H12R17535   4.193   6.287   9.703 -0.2566 -0.0925  0.8120
  157SAPE  C21317536   4.217   6.093   9.608  0.4899  0.3547 -0.1617
  157SAPE  H13R17537   4.135   6.118   9.538  0.6543 -1.1365 -0.9264
  157SAPE  H13S17538   4.184   5.993   9.645 -1.2902  0.6774 -0.7926
  157SAPE  C21417539   4.345   6.072   9.525 -0.5122  0.3050  0.4241
  157SAPE  H14R17540   4.417   5.999   9.567 -0.4547  0.3093  0.3310
  157SAPE  C21517541   4.368   6.119   9.398  0.1220  0.7967 -0.6371
  157SAPE  H15R17542   4.451   6.074   9.341 -1.2093 -1.1685 -1.1023
  157SAPE  C21617543   4.271   6.197   9.318  0.4669  0.2158 -0.0623
  157SAPE  H16R17544   4.330   6.287   9.289 -0.0356  0.3629 -0.6556
  157SAPE  H16S17545   4.187   6.242   9.376 -0.0634  0.1496 -0.7525
  157SAPE  C21717546   4.221   6.119   9.197 -0.0585 -0.5005  0.0220
  157SAPE  H17R17547   4.164   6.196   9.140  1.9036  0.3479 -0.8681
  157SAPE  H17S17548   4.157   6.032   9.222 -2.4986  1.5152  1.2825
  157SAPE  C21817549   4.325   6.061   9.101  0.0817 -0.1907  0.6818
  157SAPE  H18R17550   4.368   5.974   9.155  0.3950 -1.2570 -1.2123
  157SAPE  H18S17551   4.405   6.135   9.082 -0.2194  0.4310  1.7740
  157SAPE  C21917552   4.264   6.005   8.970  0.6459 -0.0203 -0.0490
  157SAPE  H19R17553   4.232   6.095   8.913 -3.6448 -1.4170 -0.2442
  157SAPE  H19S17554   4.164   5.960   8.993 -0.5468  3.4602  2.4085
  157SAPE  C22017555   4.355   5.906   8.895 -0.1901 -1.0464  0.2495
  157SAPE  H20R17556   4.455   5.954   8.892 -0.1876 -1.0512  0.2588
  157SAPE  H20S17557   4.314   5.898   8.792 -1.0197 -0.5961  0.5333
  157SAPE  H20T17558   4.377   5.811   8.947  1.0592  0.0175  1.7315
  157SAPE   C3317559   4.660   5.337  10.139 -0.2943 -0.5379  0.7569
  157SAPE   H3X17560   4.663   5.253  10.066  1.2265 -0.6085  0.8731
  157SAPE   H3Y17561   4.759   5.324  10.188  0.0193  0.6065  0.4387
  157SAPE   C3417562   4.663   5.452  10.047 -0.0264 -0.1479  0.6976
  157SAPE   H4X17563   4.757   5.454   9.988  0.3040 -1.2911  1.1686
  157SAPE   H4Y17564   4.654   5.551  10.097  0.0953  0.2906 -0.1331
  157SAPE   C3517565   4.553   5.454   9.939  0.0265 -0.1125  0.6169
  157SAPE   H5X17566   4.462   5.494   9.987  1.1057  1.7181  1.2161
  157SAPE   H5Y17567   4.532   5.349   9.907 -1.2285  0.5485 -0.8076
  157SAPE   C3617568   4.588   5.543   9.815  0.7874 -0.5361 -0.1477
  157SAPE   H6X17569   4.697   5.540   9.792  1.1981  2.1754  1.0355
  157SAPE   H6Y17570   4.568   5.648   9.846  0.7842 -0.6772  0.3365
  157SAPE   C3717571   4.501   5.525   9.692  0.5397 -0.1269 -0.0667
  157SAPE   H7X17572   4.396   5.499   9.719  0.1598  0.2229 -1.1342
  157SAPE   H7Y17573   4.533   5.436   9.634 -2.9382 -0.0392 -2.4563
  157SAPE   C3817574   4.515   5.636   9.586 -0.4628  0.2030  0.2473
  157SAPE   H8X17575   4.623   5.638   9.563 -0.3170 -3.6859  0.0065
  157SAPE   H8Y17576   4.466   5.728   9.624 -2.0976  0.6101 -2.5169
  157SAPE   C3917577   4.432   5.610   9.455 -0.8170 -0.3801 -0.7391
  157SAPE   H9X17578   4.325   5.587   9.476 -0.6936  0.7188  1.4465
  157SAPE   H9Y17579   4.475   5.517   9.413  0.4223 -0.5364  0.7778
  157SAPE  C31017580   4.454   5.718   9.348 -0.4632 -0.2289 -0.1083
  157SAPE  H10X17581   4.562   5.741   9.338 -0.2699 -0.5446  1.0811
  157SAPE  H10Y17582   4.408   5.815   9.376  2.1557  1.5384 -1.4647
  157SAPE  C31117583   4.388   5.674   9.216 -0.1759  0.4190  0.9159
  157SAPE  H11X17584   4.333   5.747   9.153 -0.1411 -2.0332 -2.2394
  157SAPE  H11Y17585   4.319   5.592   9.244  0.1837  0.5126  2.1230
  157SAPE  C31217586   4.482   5.599   9.113 -0.0900 -0.1287  0.2464
  157SAPE  H12X17587   4.556   5.534   9.165  0.5171  0.4848  0.1594
  157SAPE  H12Y17588   4.543   5.672   9.056 -2.1519  0.3844 -1.4200
  157SAPE  C31317589   4.402   5.504   9.022  0.1834  0.5527 -0.1102
  157SAPE  H13X17590   4.333   5.561   8.956 -1.1177 -0.4098  0.3694
  157SAPE  H13Y17591   4.337   5.433   9.077 -0.6296  0.9458 -0.5383
  157SAPE  C31417592   4.501   5.420   8.939 -0.4360  0.0342 -0.6092
  157SAPE  H14X17593   4.548   5.336   8.995 -0.2694 -0.3603 -1.3350
  157SAPE  H14Y17594   4.586   5.483   8.907 -0.0361  1.0589  2.1645
  157SAPE  C31517595   4.433   5.361   8.805  0.2947 -0.2411 -0.1581
  157SAPE  H15X17596   4.356   5.428   8.761 -0.4798  1.2687  3.1700
  157SAPE  H15Y17597   4.382   5.272   8.849 -1.4494  1.1855  0.8423
  157SAPE  C31617598   4.521   5.318   8.692  0.2850 -0.6996 -0.2658
  157SAPE  H16X17599   4.575   5.226   8.724 -0.5706 -1.6198 -1.3902
  157SAPE  H16Y17600   4.598   5.397   8.679  0.4581 -0.6684  0.8161
  157SAPE  C31717601   4.453   5.271   8.562  0.1374  0.1325  0.0550
  157SAPE  H17X17602   4.528   5.246   8.484 -0.5290 -1.3463 -0.1553
  157SAPE  H17Y17603   4.387   5.351   8.522 -1.9439 -2.3832 -1.9179
  157SAPE  C31817604   4.346   5.157   8.577 -0.4837 -0.5288 -0.6423
  157SAPE  H18X17605   4.308   5.124   8.478  0.0007 -1.1487 -0.6306
  157SAPE  H18Y17606   4.256   5.195   8.630  0.6381  1.0378  0.2376
  157SAPE  H18Z17607   4.389   5.083   8.648  0.2739 -1.8421 -2.3858
  158SAPE     N17608   0.816   3.220  10.720 -0.4647  0.1221 -0.0681
  158SAPE   HN117609   0.776   3.254  10.630 -0.3282 -0.8086 -0.4914
  158SAPE   HN217610   0.732   3.207  10.780 -0.9004  2.1608 -0.1441
  158SAPE   HN317611   0.876   3.304  10.736  0.0256  0.3423 -2.5590
  158SAPE   C1217612   0.901   3.104  10.677  0.0249 -0.1806  0.0714
  158SAPE  H12A17613   0.948   3.055  10.765  1.7683  0.1991 -0.6204
  158SAPE  H12B17614   0.985   3.146  10.618  0.7732 -1.5389  0.1441
  158SAPE   C1117615   0.813   3.000  10.599  0.2250 -0.2859 -0.7707
  158SAPE  H11A17616   0.761   3.053  10.517 -1.8609  1.5622  1.5985
  158SAPE  H11B17617   0.730   2.980  10.670  1.8048 -0.5696  1.0911
  158SAPE     P17618   0.806   2.746  10.522  0.5948 -0.0032  0.3705
  158SAPE   O1317619   0.909   2.645  10.498 -0.0420 -0.5836  0.1292
  158SAPE   O1417620   0.693   2.716  10.611 -0.0525  0.0487 -0.3563
  158SAPE   O1217621   0.876   2.879  10.571 -0.1594  0.4441  0.2253
  158SAPE   O1117622   0.753   2.794  10.382  0.3817 -0.2770 -0.1579
  158SAPE    C117623   0.854   2.839  10.289 -0.0720  0.2727  0.2082
  158SAPE    HA17624   0.863   2.950  10.293 -1.6004  0.4176  0.2671
  158SAPE    HB17625   0.956   2.799  10.308  0.1328  0.5488 -0.2861
  158SAPE    C217626   0.817   2.797  10.146 -0.6008 -0.3099  0.1262
  158SAPE    HS17627   0.893   2.814  10.067 -1.4325 -0.2281 -0.6704
  158SAPE   O2117628   0.689   2.843  10.119 -0.0594 -0.0808  0.9106
  158SAPE   C2117629   0.674   2.890   9.993  0.8773 -0.8434  0.5436
  158SAPE   O2217630   0.760   2.926   9.913  0.2928  0.0904 -0.3810
  158SAPE   C2217631   0.525   2.906   9.974  0.3215 -0.1064  0.1875
  158SAPE   H2R17632   0.470   2.862  10.060 -2.2670 -0.1413 -1.3769
  158SAPE   H2S17633   0.500   3.014   9.973 -1.1298 -0.4210  0.5769
  158SAPE    C317634   0.807   2.643  10.128  0.1332  0.5379 -0.1066
  158SAPE    HX17635   0.728   2.607  10.198  0.7960  0.1756  0.4677
  158SAPE    HY17636   0.900   2.597  10.168  0.4459  1.3381  0.0993
  158SAPE   O3117637   0.789   2.603   9.990  0.5139  0.2440 -0.3595
  158SAPE   C3117638   0.884   2.526   9.938  0.7068  0.2246 -0.1433
  158SAPE   O3217639   0.983   2.487   9.991 -0.0920  0.1598 -0.0763
  158SAPE   C3217640   0.831   2.467   9.811 -0.1891  0.3111 -0.4456
  158SAPE   H2X17641   0.794   2.546   9.742 -1.2704  0.0125 -0.2225
  158SAPE   H2Y17642   0.740   2.406   9.833  0.0575  0.3232  0.6444
  158SAPE   C2317643   0.468   2.832   9.855  0.7814  0.6213 -0.2930
  158SAPE   H3R17644   0.531   2.845   9.765 -1.5912 -0.5304 -2.2390
  158SAPE   H3S17645   0.373   2.881   9.824  0.2346  0.6539  1.3125
  158SAPE   C2417646   0.460   2.678   9.877  0.2965 -0.0313  0.5749
  158SAPE   H4R17647   0.433   2.658   9.983  1.9421 -2.9414  0.5636
  158SAPE   H4S17648   0.557   2.626   9.862 -0.5747 -1.4750 -0.3413
  158SAPE   C2517649   0.357   2.614   9.782 -0.6595 -0.5826 -0.2891
  158SAPE   H5R17650   0.262   2.594   9.833 -0.4324 -2.1593 -0.4315
  158SAPE   C2617651   0.373   2.572   9.652  0.2468 -0.3161  0.6492
  158SAPE   H6R17652   0.286   2.527   9.601  0.7167 -0.6940  0.1763
  158SAPE   C2717653   0.498   2.586   9.570  0.1053  0.0996 -0.3017
  158SAPE   H7R17654   0.588   2.582   9.636  0.9800 -0.4618 -1.5023
  158SAPE   H7S17655   0.508   2.689   9.530 -0.1119  0.0370 -0.5148
  158SAPE   C2817656   0.508   2.473   9.473 -0.1437  0.1100 -0.5850
  158SAPE   H8R17657   0.519   2.371   9.514  1.1981  0.2912 -0.4353
  158SAPE   C2917658   0.495   2.487   9.342 -0.0880 -1.2767  0.4597
  158SAPE   H9R17659   0.495   2.393   9.285 -1.2427 -2.0086  1.6189
  158SAPE  C21017660   0.453   2.614   9.272 -0.0719 -0.7375  0.2570
  158SAPE  H10R17661   0.455   2.705   9.335  0.0459 -1.0510  0.7066
  158SAPE  H10S17662   0.353   2.597   9.227  0.8520 -1.2579 -1.7149
  158SAPE  C21117663   0.558   2.631   9.165 -0.0930 -0.4024 -0.4959
  158SAPE  H11R17664   0.657   2.671   9.189 -0.6533 -1.0805  3.6835
  158SAPE  C21217665   0.547   2.593   9.033 -0.3385  0.3009  0.4081
  158SAPE  H12R17666   0.627   2.616   8.961 -0.0580  0.1237  0.6604
  158SAPE  C21317667   0.425   2.534   8.974 -0.3740 -0.0343  0.3931
  158SAPE  H13R17668   0.339   2.595   9.011 -0.2964  2.1340 -2.6484
  158SAPE  H13S17669   0.414   2.426   8.998  1.9460 -0.2718  0.6386
  158SAPE  C21417670   0.419   2.546   8.826 -0.0804  0.0766  0.2285
  158SAPE  H14R17671   0.452   2.450   8.783  1.9699  0.3292  1.0954
  158SAPE  C21517672   0.375   2.646   8.753 -0.4454  0.1750 -0.0911
  158SAPE  H15R17673   0.369   2.628   8.644 -0.7779 -0.6522  0.0561
  158SAPE  C21617674   0.311   2.773   8.803 -0.0474  0.2077 -0.6585
  158SAPE  H16R17675   0.289   2.764   8.912 -0.1823  0.5086 -0.6612
  158SAPE  H16S17676   0.214   2.791   8.751 -0.2929 -0.8069 -0.5843
  158SAPE  C21717677   0.395   2.892   8.765  0.5194  0.1868  0.2640
  158SAPE  H17R17678   0.329   2.980   8.783 -1.1616 -0.3103 -2.7356
  158SAPE  H17S17679   0.431   2.890   8.660  0.7907  1.3642  0.3288
  158SAPE  C21817680   0.522   2.895   8.846 -0.2723  0.2235  0.4919
  158SAPE  H18R17681   0.590   2.809   8.836 -1.3776 -0.6298  0.1872
  158SAPE  H18S17682   0.495   2.911   8.953  1.1455 -0.8624  1.0446
  158SAPE  C21917683   0.609   3.012   8.801  0.4277  0.3666  0.4773
  158SAPE  H19R17684   0.674   3.039   8.886  0.0716  3.4429 -0.0862
  158SAPE  H19S17685   0.535   3.092   8.777 -0.5944 -0.4316  0.8770
  158SAPE  C22017686   0.701   2.996   8.687  0.0447 -0.7517  0.6259
  158SAPE  H20R17687   0.752   2.899   8.702  2.1640  0.4481  1.8639
  158SAPE  H20S17688   0.777   3.077   8.693  0.5704 -1.2970  1.7174
  158SAPE  H20T17689   0.654   2.985   8.588 -0.4790 -0.2312  0.8095
  158SAPE   C3317690   0.935   2.367   9.743 -0.0392  0.2637  0.6611
  158SAPE   H3X17691   0.976   2.280   9.799  1.6047 -0.8771 -2.0881
  158SAPE   H3Y17692   1.022   2.428   9.709 -0.3979  0.2221 -0.3394
  158SAPE   C3417693   0.869   2.308   9.612 -0.1167  0.2408 -0.3758
  158SAPE   H4X17694   0.802   2.385   9.568 -2.8057 -0.9877  1.2765
  158SAPE   H4Y17695   0.805   2.221   9.638 -0.0864  0.9252  2.2667
  158SAPE   C3517696   0.973   2.274   9.506  0.0290 -0.6527 -0.3143
  158SAPE   H5X17697   1.027   2.191   9.557 -1.1835 -1.2387  0.0461
  158SAPE   H5Y17698   1.035   2.362   9.479 -2.8193  1.3824 -0.6379
  158SAPE   C3617699   0.913   2.224   9.375  0.0137  0.0846 -0.0531
  158SAPE   H6X17700   0.819   2.276   9.344 -0.3554 -0.3371  0.3423
  158SAPE   H6Y17701   0.875   2.123   9.401 -2.1424  0.1647 -2.4215
  158SAPE   C3717702   1.010   2.227   9.255  0.4979 -0.3419 -0.1446
  158SAPE   H7X17703   1.104   2.182   9.294  0.5286 -0.5840 -0.4939
  158SAPE   H7Y17704   1.040   2.332   9.231  0.1105 -0.7255 -2.6465
  158SAPE   C3817705   0.969   2.151   9.127 -0.0852 -0.0363 -0.5173
  158SAPE   H8X17706   0.940   2.049   9.159 -3.3320  0.3000 -2.0149
  158SAPE   H8Y17707   1.056   2.145   9.059  1.2433  1.2938  0.9846
  158SAPE   C3917708   0.845   2.211   9.059 -0.8244  0.1175  0.7419
  158SAPE   H9X17709   0.880   2.315   9.043 -1.2651  0.0762 -0.5973
  158SAPE   H9Y17710   0.749   2.215   9.116 -1.5320  1.6357 -0.4742
  158SAPE  C31017711   0.809   2.153   8.923 -0.2637 -0.0741  0.2759
  158SAPE  H10X17712   0.743   2.064   8.923 -1.4387  0.7568 -0.7340
  158SAPE  H10Y17713   0.907   2.128   8.876 -1.0548  0.7366 -1.9502
  158SAPE  C31117714   0.748   2.253   8.819  0.1996  0.3573 -0.5971
  158SAPE  H11X17715   0.655   2.288   8.868 -0.4190 -1.9505 -0.0072
  158SAPE  H11Y17716   0.738   2.187   8.730 -0.2554  0.0011 -0.2854
  158SAPE  C31217717   0.847   2.356   8.775 -0.5345 -0.6393  0.3182
  158SAPE  H12X17718   0.945   2.307   8.757  0.7322  1.7216  0.2853
  158SAPE  H12Y17719   0.874   2.414   8.866  1.3847 -2.4108  0.9533
  158SAPE  C31317720   0.808   2.463   8.670 -0.2297  0.3211  0.5184
  158SAPE  H13X17721   0.719   2.507   8.718  0.4072 -0.6754  2.7490
  158SAPE  H13Y17722   0.777   2.425   8.570  0.2377 -0.8224  0.7946
  158SAPE  C31417723   0.921   2.573   8.648 -0.5805 -0.1410  0.4654
  158SAPE  H14X17724   1.012   2.509   8.649  0.3132  1.0650 -0.7719
  158SAPE  H14Y17725   0.912   2.643   8.734 -2.2911 -0.6804  0.7484
  158SAPE  C31517726   0.906   2.664   8.520  0.0836 -0.3905 -0.1247
  158SAPE  H15X17727   0.804   2.706   8.529  0.4123  0.9373 -2.0649
  158SAPE  H15Y17728   0.905   2.603   8.427 -0.5913 -0.8106  0.1483
  158SAPE  C31617729   1.012   2.772   8.519 -0.1198  0.6508  0.3743
  158SAPE  H16X17730   1.109   2.718   8.527 -1.5063 -2.1987 -0.5602
  158SAPE  H16Y17731   0.990   2.836   8.606 -1.9993 -0.5322  0.8330
  158SAPE  C31717732   1.010   2.839   8.387 -0.4336 -0.2671  0.0858
  158SAPE  H17X17733   1.039   2.769   8.306  1.6423  1.6229 -0.9120
  158SAPE  H17Y17734   1.095   2.910   8.383  0.3046 -1.1693 -1.1101
  158SAPE  C31817735   0.875   2.896   8.350  0.3883 -0.0783 -0.5292
  158SAPE  H18X17736   0.894   2.970   8.269  5.3680 -1.0809 -0.5647
  158SAPE  H18Y17737   0.833   2.951   8.437  0.0484 -0.8829 -0.1798
  158SAPE  H18Z17738   0.808   2.813   8.321 -0.1763 -0.5119  1.8229
  159SAPE     N17739   6.078   5.108   6.148 -0.3549 -0.5477 -0.0895
  159SAPE   HN117740   6.055   5.032   6.215  1.4544 -0.9772  0.1087
  159SAPE   HN217741   6.084   5.070   6.052 -0.9621 -1.1335  0.1001
  159SAPE   HN317742   6.173   5.141   6.176 -0.0466 -0.5614 -1.1033
  159SAPE   C1217743   5.988   5.227   6.170 -1.2334 -0.3744  0.4861
  159SAPE  H12A17744   5.879   5.212   6.159 -1.2357 -1.2823  1.6260
  159SAPE  H12B17745   6.032   5.303   6.101  0.8622 -1.1426  0.9088
  159SAPE   C1117746   6.016   5.277   6.314 -0.1114 -0.8773 -0.0348
  159SAPE  H11A17747   5.954   5.211   6.377  1.2867 -0.2570  2.0897
  159SAPE  H11B17748   5.971   5.378   6.307  0.5873 -0.6014 -0.7562
  159SAPE     P17749   6.245   5.416   6.342 -0.2145 -0.0279 -0.0825
  159SAPE   O1317750   6.371   5.389   6.409 -0.4053  0.1222 -0.3671
  159SAPE   O1417751   6.249   5.469   6.204  0.2096  0.4486 -0.3899
  159SAPE   O1217752   6.161   5.284   6.349  0.1487  0.4510  0.1584
  159SAPE   O1117753   6.160   5.521   6.435  0.6997  0.0088  0.3675
  159SAPE    C117754   6.179   5.509   6.580  0.3098  0.4427  0.3070
  159SAPE    HA17755   6.213   5.408   6.612 -0.7761  0.6214  2.1504
  159SAPE    HB17756   6.272   5.566   6.602 -0.1382  2.4680 -2.4669
  159SAPE    C217757   6.053   5.554   6.661  0.7304 -0.0512 -0.4450
  159SAPE    HS17758   6.018   5.650   6.617 -0.7354 -0.8929 -1.1644
  159SAPE   O2117759   6.107   5.561   6.792  1.4707  0.8414  0.4297
  159SAPE   C2117760   6.029   5.624   6.883  0.1385 -0.4990 -0.2993
  159SAPE   O2217761   5.923   5.683   6.859 -0.5146 -0.2800  0.2364
  159SAPE   C2217762   6.078   5.609   7.030 -0.3194 -0.2440 -0.7260
  159SAPE   H2R17763   6.148   5.525   7.048 -0.0558 -0.2249 -1.6035
  159SAPE   H2S17764   6.124   5.707   7.054  0.4319 -1.5104  4.0769
  159SAPE    C317765   5.923   5.461   6.654  0.0355 -0.0097  0.5299
  159SAPE    HX17766   5.890   5.472   6.548  1.6116  0.4183  0.0674
  159SAPE    HY17767   5.839   5.505   6.712 -1.8102 -1.9349 -0.5177
  159SAPE   O3117768   5.947   5.332   6.710 -0.9148  0.1439 -0.6551
  159SAPE   C3117769   5.860   5.249   6.653  0.3810  0.0632  0.0107
  159SAPE   O3217770   5.778   5.281   6.567  0.5546 -0.0921  0.0572
  159SAPE   C3217771   5.872   5.110   6.715 -0.1928  0.3782  0.5677
  159SAPE   H2X17772   5.981   5.089   6.718 -0.1176  0.8178  1.5295
  159SAPE   H2Y17773   5.818   5.040   6.648  0.1405  1.4251 -0.8256
  159SAPE   C2317774   5.945   5.584   7.110 -0.1795  0.0504 -0.0310
  159SAPE   H3R17775   5.863   5.647   7.068  1.1154  2.5842  0.9907
  159SAPE   H3S17776   5.958   5.609   7.218  0.6980 -0.5745  0.0138
  159SAPE   C2417777   5.889   5.439   7.093  0.0464  0.1958 -0.5739
  159SAPE   H4R17778   5.950   5.359   7.139  0.6961  0.7051 -0.5184
  159SAPE   H4S17779   5.896   5.408   6.987  0.5340  0.6580 -0.6814
  159SAPE   C2517780   5.749   5.426   7.140  0.3917  0.3040  0.3696
  159SAPE   H5R17781   5.675   5.446   7.061  1.4048  0.8485 -0.4717
  159SAPE   C2617782   5.716   5.407   7.269 -0.2696 -0.3599 -0.4148
  159SAPE   H6R17783   5.612   5.413   7.302  0.1114  3.9980  0.6112
  159SAPE   C2717784   5.813   5.398   7.387 -0.5168 -0.3071 -0.5821
  159SAPE   H7R17785   5.878   5.487   7.371 -1.4404 -0.1006 -3.8821
  159SAPE   H7S17786   5.886   5.315   7.373  0.2531  0.2302  0.1317
  159SAPE   C2817787   5.753   5.384   7.516  0.3618  0.4256  0.1114
  159SAPE   H8R17788   5.644   5.392   7.524  0.4422  1.0647  0.7420
  159SAPE   C2917789   5.815   5.356   7.633 -0.2833 -0.2795 -0.0916
  159SAPE   H9R17790   5.757   5.348   7.726  2.9424 -2.9419  1.9186
  159SAPE  C21017791   5.962   5.314   7.657 -0.3295  0.2768 -0.0143
  159SAPE  H10R17792   6.015   5.321   7.559 -1.1712  0.2734 -0.4746
  159SAPE  H10S17793   5.955   5.212   7.700 -2.4277  0.4014  0.0515
  159SAPE  C21117794   6.033   5.414   7.750  0.0385 -0.2718  0.2581
  159SAPE  H11R17795   6.097   5.483   7.692  1.0019 -0.1937  1.3669
  159SAPE  C21217796   6.013   5.426   7.887 -0.5040  0.4781 -0.7056
  159SAPE  H12R17797   6.071   5.501   7.943  1.1180 -1.2825  0.0813
  159SAPE  C21317798   5.919   5.341   7.971  0.1610 -0.0450 -0.4669
  159SAPE  H13R17799   5.974   5.266   8.032  0.3053  1.6037  1.5231
  159SAPE  H13S17800   5.870   5.275   7.895 -0.5201  1.4439 -1.3557
  159SAPE  C21417801   5.820   5.426   8.040  0.4793  0.7650 -0.0163
  159SAPE  H14R17802   5.774   5.505   7.979 -1.1424  1.7916  2.3716
  159SAPE  C21517803   5.785   5.417   8.173 -0.1374  0.0820  0.3588
  159SAPE  H15R17804   5.713   5.494   8.204  1.9675  2.6381 -0.7575
  159SAPE  C21617805   5.829   5.326   8.284 -0.1528  0.0680 -0.5419
  159SAPE  H16R17806   5.866   5.227   8.250  0.0326 -0.3423  0.8153
  159SAPE  H16S17807   5.749   5.305   8.358 -0.0479 -1.5396 -0.8408
  159SAPE  C21717808   5.944   5.398   8.368 -0.1980 -0.1395  0.1626
  159SAPE  H17R17809   5.905   5.492   8.413 -0.9043 -0.4901  0.3078
  159SAPE  H17S17810   6.025   5.419   8.295  1.7575 -2.2696  1.5924
  159SAPE  C21817811   5.992   5.313   8.477  0.4248  0.1157 -0.9490
  159SAPE  H18R17812   5.999   5.209   8.440 -0.8680  0.3390 -1.8777
  159SAPE  H18S17813   5.933   5.320   8.571 -0.1955  0.2608 -1.3435
  159SAPE  C21917814   6.131   5.352   8.509  0.2752  0.4526 -0.6622
  159SAPE  H19R17815   6.200   5.335   8.423  3.2363  1.1559  1.4283
  159SAPE  H19S17816   6.162   5.276   8.583 -1.2402 -0.8516 -1.3135
  159SAPE  C22017817   6.150   5.492   8.565 -0.6933  0.4895 -0.7232
  159SAPE  H20R17818   6.085   5.509   8.654 -0.5065  1.6964 -0.7920
  159SAPE  H20S17819   6.148   5.574   8.490 -2.9608  0.1334 -1.1234
  159SAPE  H20T17820   6.249   5.488   8.614 -1.4424  0.9699  0.9042
  159SAPE   C3317821   5.817   5.110   6.855 -0.5392  0.6058 -0.2585
  159SAPE   H3X17822   5.721   5.165   6.864 -1.5142 -0.7885 -1.4474
  159SAPE   H3Y17823   5.888   5.149   6.930  0.9944  1.1819 -1.9454
  159SAPE   C3417824   5.791   4.967   6.902  0.2894 -0.4317 -0.2106
  159SAPE   H4X17825   5.878   4.898   6.914 -0.8202 -1.6993  0.9367
  159SAPE   H4Y17826   5.722   4.924   6.827  0.2281 -0.9913  0.1551
  159SAPE   C3517827   5.734   4.962   7.044 -0.3687  0.1799  0.2208
  159SAPE   H5X17828   5.736   4.855   7.074 -1.4836  0.0337 -0.1829
  159SAPE   H5Y17829   5.629   4.995   7.054 -0.1690  0.3360  2.1535
  159SAPE   C3617830   5.808   5.031   7.161  0.5633 -0.5783  0.1534
  159SAPE   H6X17831   5.829   5.135   7.126  1.7733 -1.1710 -0.9595
  159SAPE   H6Y17832   5.909   4.990   7.181  0.9018  0.6532  1.1632
  159SAPE   C3717833   5.727   5.043   7.287 -0.3788  0.7600 -0.0116
  159SAPE   H7X17834   5.622   5.074   7.265  0.3305  2.8156 -0.6855
  159SAPE   H7Y17835   5.778   5.128   7.337  0.1949 -0.4288  1.4908
  159SAPE   C3817836   5.736   4.916   7.384 -0.1277 -0.5600  0.1126
  159SAPE   H8X17837   5.841   4.885   7.403 -0.1545  0.3994  2.1351
  159SAPE   H8Y17838   5.675   4.834   7.340  1.2063 -1.9096  0.6997
  159SAPE   C3917839   5.693   4.957   7.524 -0.3106 -0.2950 -0.2583
  159SAPE   H9X17840   5.583   4.976   7.525 -0.6229 -1.8640 -1.3458
  159SAPE   H9Y17841   5.743   5.049   7.561 -2.4263  1.3976 -1.3162
  159SAPE  C31017842   5.715   4.843   7.626  0.0180  0.5605  0.2103
  159SAPE  H10X17843   5.818   4.804   7.613  0.3609  1.2887  0.6696
  159SAPE  H10Y17844   5.653   4.755   7.599 -0.3663  0.9845 -0.3155
  159SAPE  C31117845   5.690   4.878   7.773 -1.0097 -0.1255 -0.4305
  159SAPE  H11X17846   5.690   4.785   7.833 -2.1576 -0.1901 -0.4936
  159SAPE  H11Y17847   5.593   4.930   7.793 -1.0124 -1.1156  2.6925
  159SAPE  C31217848   5.786   4.976   7.839 -0.1877  0.3676  0.3595
  159SAPE  H12X17849   5.789   5.072   7.784 -0.3207 -1.8722 -4.0547
  159SAPE  H12Y17850   5.885   4.928   7.830 -0.7564 -0.6574 -0.7989
  159SAPE  C31317851   5.761   5.003   7.986  0.3019 -0.0975  0.2914
  159SAPE  H13X17852   5.680   5.078   7.999  0.4830 -0.1741  2.2906
  159SAPE  H13Y17853   5.849   5.040   8.043  2.1344  0.3386 -2.6209
  159SAPE  C31417854   5.707   4.883   8.064  0.7933  0.1056  0.3649
  159SAPE  H14X17855   5.762   4.790   8.037  0.3125 -0.7044  2.0131
  159SAPE  H14Y17856   5.600   4.865   8.040  1.1942  0.2460 -1.7356
  159SAPE  C31517857   5.711   4.926   8.215 -0.1877 -0.0190 -0.7175
  159SAPE  H15X17858   5.654   5.022   8.212 -0.8977 -0.4395 -0.9755
  159SAPE  H15Y17859   5.814   4.957   8.245  0.1566 -2.6501  1.1354
  159SAPE  C31617860   5.649   4.826   8.310  0.6668  0.4159 -0.5097
  159SAPE  H16X17861   5.544   4.807   8.279  0.6191 -0.5825  0.2084
  159SAPE  H16Y17862   5.650   4.864   8.414 -1.4784 -1.3948  0.2465
  159SAPE  C31717863   5.714   4.684   8.309  0.5736  0.4427  0.3194
  159SAPE  H17X17864   5.825   4.686   8.305  1.0483 -3.5972  3.9528
  159SAPE  H17Y17865   5.683   4.621   8.223  0.5402  0.5333  0.2640
  159SAPE  C31817866   5.694   4.609   8.440 -0.0168 -0.3717  0.1165
  159SAPE  H18X17867   5.688   4.683   8.523 -0.9184 -1.0569  0.6703
  159SAPE  H18Y17868   5.776   4.535   8.446 -0.9736 -1.5310 -0.6437
  159SAPE  H18Z17869   5.603   4.545   8.448 -0.2296  0.0697  1.5502
  160SAPE     N17870   5.626   2.144   6.332  0.3835 -0.2676  0.2169
  160SAPE   HN117871   5.650   2.093   6.419  2.8901  0.9137  0.3154
  160SAPE   HN217872   5.691   2.225   6.326 -0.3539  0.3172 -0.0305
  160SAPE   HN317873   5.532   2.184   6.349  1.0094  2.2411 -1.4875
  160SAPE   C1217874   5.638   2.061   6.203  0.1529  0.1799 -0.1226
  160SAPE  H12A17875   5.650   2.137   6.122 -2.9484  1.1200  0.1593
  160SAPE  H12B17876   5.542   2.007   6.193 -0.4135  0.1057  3.9261
  160SAPE   C1117877   5.758   1.965   6.207  0.2649 -0.8263  0.1455
  160SAPE  H11A17878   5.851   2.023   6.226 -0.5151  0.4668  0.1687
  160SAPE  H11B17879   5.788   1.933   6.105 -0.1702  1.9452 -0.9366
  160SAPE     P17880   5.672   1.728   6.266  0.1190  0.8132 -0.2085
  160SAPE   O1317881   5.549   1.745   6.192  0.2508 -0.2232  0.0047
  160SAPE   O1417882   5.773   1.656   6.190  0.0088 -0.1041 -0.3004
  160SAPE   O1217883   5.745   1.860   6.310 -0.3639 -0.6303  0.0493
  160SAPE   O1117884   5.625   1.656   6.405 -0.3781 -0.6710  0.4382
  160SAPE    C117885   5.698   1.542   6.455  0.4132 -0.0097  0.0752
  160SAPE    HA17886   5.669   1.456   6.390 -1.2592  1.0733 -0.6838
  160SAPE    HB17887   5.808   1.553   6.454  0.5171 -0.7853  0.9487
  160SAPE    C217888   5.669   1.498   6.601 -0.7813 -0.0782 -0.1595
  160SAPE    HS17889   5.562   1.519   6.623 -0.5317  0.4870  0.5451
  160SAPE   O2117890   5.751   1.576   6.689  0.1850  0.1454  0.1464
  160SAPE   C2117891   5.708   1.693   6.733  1.0057  0.3675 -0.2881
  160SAPE   O2217892   5.599   1.745   6.704 -0.5975  0.1814 -0.6624
  160SAPE   C2217893   5.791   1.745   6.849 -0.1729 -0.1108 -0.0342
  160SAPE   H2R17894   5.890   1.696   6.840 -0.6618 -0.8523 -2.0177
  160SAPE   H2S17895   5.801   1.855   6.841  0.4318 -0.0781  1.0194
  160SAPE    C317896   5.698   1.347   6.617  0.4035  0.1460 -0.6718
  160SAPE    HX17897   5.808   1.340   6.612  0.5564  1.7380 -0.1548
  160SAPE    HY17898   5.660   1.288   6.530  0.0358 -0.6908  0.0443
  160SAPE   O3117899   5.648   1.295   6.742  0.5011 -0.9411  0.2413
  160SAPE   C3117900   5.616   1.177   6.759 -0.2065 -0.0568 -0.0208
  160SAPE   O3217901   5.611   1.088   6.680 -0.1761 -0.1027  0.0512
  160SAPE   C3217902   5.583   1.167   6.912  1.1909  0.1334 -0.1382
  160SAPE   H2X17903   5.557   1.270   6.944 -0.1541  0.2585 -1.5655
  160SAPE   H2Y17904   5.673   1.127   6.966  0.4400 -0.1642  0.9298
  160SAPE   C2317905   5.735   1.705   6.993 -0.8363 -0.9210 -0.7416
  160SAPE   H3R17906   5.635   1.751   6.978  0.4573  1.8898 -1.5524
  160SAPE   H3S17907   5.787   1.767   7.070 -0.1863  0.3380 -2.1350
  160SAPE   C2417908   5.728   1.557   7.010  0.1738  0.8291 -0.0571
  160SAPE   H4R17909   5.831   1.530   7.040  1.1700  2.9650 -1.3366
  160SAPE   H4S17910   5.701   1.495   6.921 -1.9361 -2.3154  2.5179
  160SAPE   C2517911   5.625   1.522   7.115  0.0583  0.3090 -0.1574
  160SAPE   H5R17912   5.527   1.500   7.072 -0.1829  0.9962  0.0268
  160SAPE   C2617913   5.631   1.522   7.249 -0.7874 -0.4475 -0.1208
  160SAPE   H6R17914   5.553   1.479   7.313 -0.2490 -0.1075  0.7875
  160SAPE   C2717915   5.750   1.561   7.335 -0.2806 -0.3670  0.4800
  160SAPE   H7R17916   5.829   1.595   7.264 -1.0559  1.1079  0.2870
  160SAPE   H7S17917   5.791   1.466   7.375 -0.9840 -0.5539  0.7724
  160SAPE   C2817918   5.715   1.664   7.440  0.4280 -0.1003  0.0678
  160SAPE   H8R17919   5.615   1.667   7.485 -0.2685  2.0484 -1.4414
  160SAPE   C2917920   5.796   1.762   7.487  0.5885 -0.5582  0.1305
  160SAPE   H9R17921   5.752   1.835   7.556  0.4595 -0.8018  0.3089
  160SAPE  C21017922   5.943   1.777   7.448 -0.3106  0.2291 -0.3823
  160SAPE  H10R17923   5.972   1.702   7.370 -0.6118 -0.4341  0.1318
  160SAPE  H10S17924   6.014   1.754   7.530 -1.0088  2.2347  0.8562
  160SAPE  C21117925   5.972   1.919   7.391 -0.3264  0.0067  0.2053
  160SAPE  H11R17926   5.992   1.930   7.283  1.6549  1.3622  0.6346
  160SAPE  C21217927   5.986   2.024   7.473  0.0249 -0.3030  0.3218
  160SAPE  H12R17928   6.003   2.124   7.430  3.0918 -0.9310 -0.1506
  160SAPE  C21317929   5.991   2.020   7.628 -0.6040 -0.0970 -0.5707
  160SAPE  H13R17930   6.093   1.990   7.660 -1.1842  0.5561  2.0891
  160SAPE  H13S17931   5.930   1.932   7.658  0.3196 -0.8497 -0.8673
  160SAPE  C21417932   5.932   2.142   7.697 -0.2565 -0.2544 -0.5177
  160SAPE  H14R17933   5.869   2.198   7.627  1.3510 -0.1537 -1.9386
  160SAPE  C21517934   5.938   2.177   7.829  0.0781  0.6020  0.7680
  160SAPE  H15R17935   5.882   2.269   7.854 -0.1787  0.0294  2.3832
  160SAPE  C21617936   5.994   2.096   7.942 -0.1223 -0.8605 -0.3619
  160SAPE  H16R17937   6.100   2.126   7.957  0.3354 -0.2808 -3.8634
  160SAPE  H16S17938   6.004   1.987   7.925 -0.4997 -1.2461  1.6313
  160SAPE  C21717939   5.909   2.095   8.068 -0.7063  0.0902 -0.3335
  160SAPE  H17R17940   5.952   2.039   8.153 -1.0008  2.0677  1.1846
  160SAPE  H17S17941   5.804   2.069   8.045 -1.6318  2.6953  0.5692
  160SAPE  C21817942   5.894   2.240   8.122 -0.6123  0.2531 -0.4041
  160SAPE  H18R17943   5.875   2.302   8.033 -1.2975  0.8373  0.1459
  160SAPE  H18S17944   5.994   2.277   8.155 -0.4566 -0.2306 -0.3139
  160SAPE  C21917945   5.794   2.251   8.239 -0.0280 -0.3955  0.4610
  160SAPE  H19R17946   5.839   2.211   8.333 -0.3554 -1.6657  0.1036
  160SAPE  H19S17947   5.703   2.192   8.210  0.7233  0.2126 -3.8077
  160SAPE  C22017948   5.745   2.389   8.278 -0.9921  0.6937 -0.0637
  160SAPE  H20R17949   5.834   2.452   8.297  0.6256 -1.1014 -1.3299
  160SAPE  H20S17950   5.686   2.391   8.373  0.4126 -1.9540  0.9763
  160SAPE  H20T17951   5.687   2.423   8.190  0.1894  1.5223 -0.5346
  160SAPE   C3317952   5.459   1.073   6.944 -0.6255  0.4028 -0.0650
  160SAPE   H3X17953   5.490   0.971   6.914 -0.7247  0.4489 -0.3299
  160SAPE   H3Y17954   5.368   1.101   6.888 -1.5594  1.7410  2.0065
  160SAPE   C3417955   5.431   1.046   7.089  0.0341  0.3915 -0.0095
  160SAPE   H4X17956   5.333   1.000   7.113  0.2252 -0.6953 -1.1788
  160SAPE   H4Y17957   5.426   1.150   7.128  0.8003  0.9830 -1.4110
  160SAPE   C3517958   5.543   0.959   7.161  0.0038 -0.0406 -0.4621
  160SAPE   H5X17959   5.636   1.019   7.149  0.6912 -1.0960 -0.5746
  160SAPE   H5Y17960   5.556   0.864   7.105  0.2487 -1.4128  1.8279
  160SAPE   C3617961   5.510   0.922   7.301 -0.1607 -0.1065 -0.7245
  160SAPE   H6X17962   5.577   0.852   7.355 -1.2378 -0.4889  0.1547
  160SAPE   H6Y17963   5.410   0.875   7.310 -0.8119  1.4063  0.3249
  160SAPE   C3717964   5.487   1.052   7.387 -0.5476  0.1337  0.0131
  160SAPE   H7X17965   5.395   1.102   7.348 -0.3714  0.7842  0.4215
  160SAPE   H7Y17966   5.572   1.120   7.368 -1.9698  1.5746 -1.5743
  160SAPE   C3817967   5.465   1.017   7.541 -0.5359  0.2786  0.0669
  160SAPE   H8X17968   5.552   0.959   7.578 -0.1752 -0.5825 -2.0098
  160SAPE   H8Y17969   5.385   0.943   7.563 -0.2006  0.3876  1.7488
  160SAPE   C3917970   5.427   1.144   7.615 -0.0064 -0.0228  0.2061
  160SAPE   H9X17971   5.318   1.152   7.593  0.5773  0.7894 -2.9599
  160SAPE   H9Y17972   5.475   1.229   7.562 -0.4917 -1.4651 -2.7905
  160SAPE  C31017973   5.476   1.162   7.763  0.9391  0.2737 -0.6809
  160SAPE  H10X17974   5.587   1.160   7.767  0.8937 -0.1605  2.8773
  160SAPE  H10Y17975   5.425   1.079   7.815 -0.3835  0.2527 -1.9221
  160SAPE  C31117976   5.429   1.285   7.834 -0.2596 -0.5881  0.2093
  160SAPE  H11X17977   5.320   1.293   7.854 -0.1490  0.2499  0.5088
  160SAPE  H11Y17978   5.462   1.371   7.772  2.9085 -2.2750 -0.6673
  160SAPE  C31217979   5.507   1.302   7.966 -0.5290 -0.2511  0.3256
  160SAPE  H12X17980   5.498   1.403   8.011  0.1667  0.7914 -1.7253
  160SAPE  H12Y17981   5.612   1.275   7.942 -0.7874 -1.0254  0.0232
  160SAPE  C31317982   5.467   1.215   8.090  0.7880 -0.5124  0.8683
  160SAPE  H13X17983   5.478   1.106   8.072 -0.3314 -0.2211 -2.0331
  160SAPE  H13Y17984   5.361   1.240   8.113 -0.0255 -1.5802 -1.4556
  160SAPE  C31417985   5.556   1.245   8.212 -0.0526  0.6413 -0.2654
  160SAPE  H14X17986   5.553   1.353   8.238 -0.5124  0.3451  0.9832
  160SAPE  H14Y17987   5.663   1.222   8.190 -0.2220 -0.7368  0.2346
  160SAPE  C31517988   5.509   1.167   8.338 -0.2492 -0.0460 -0.2031
  160SAPE  H15X17989   5.556   1.066   8.328  0.2762  0.2128 -0.3719
  160SAPE  H15Y17990   5.398   1.159   8.339 -0.2852  0.4583  0.1485
  160SAPE  C31617991   5.568   1.218   8.472  0.0290 -0.1454 -0.0984
  160SAPE  H16X17992   5.574   1.328   8.458  0.2598  0.1308  1.7980
  160SAPE  H16Y17993   5.667   1.174   8.495  0.2421  1.2417  1.9230
  160SAPE  C31717994   5.475   1.207   8.590  0.4825  0.0533  0.1340
  160SAPE  H17X17995   5.535   1.243   8.676 -1.0368 -0.0896  1.3055
  160SAPE  H17Y17996   5.454   1.100   8.614  2.5611 -0.5092 -0.3545
  160SAPE  C31817997   5.350   1.293   8.573 -0.5532  0.4835  0.3967
  160SAPE  H18X17998   5.299   1.292   8.672 -2.6660 -0.1232 -0.6278
  160SAPE  H18Y17999   5.279   1.246   8.501 -1.2774 -1.3861  2.2004
  160SAPE  H18Z18000   5.374   1.396   8.540 -2.5853  0.6335 -0.7437
  161SAPE     N18001   1.093   1.183   6.426 -0.0654  0.1849  0.1001
  161SAPE   HN118002   1.045   1.228   6.507 -3.3510 -0.3015 -1.4449
  161SAPE   HN218003   1.191   1.160   6.454 -0.2123 -0.5023  0.0473
  161SAPE   HN318004   1.084   1.247   6.344 -1.1381 -0.1292 -0.0360
  161SAPE   C1218005   1.023   1.046   6.410 -0.3795 -0.0470  0.2348
  161SAPE  H12A18006   1.014   1.017   6.517  0.9432  2.0396  0.9814
  161SAPE  H12B18007   1.084   0.979   6.347 -0.4365 -0.9564  1.1152
  161SAPE   C1118008   0.896   1.052   6.326  0.8215  0.2285 -0.0810
  161SAPE  H11A18009   0.848   0.953   6.311  3.6290 -1.0677 -1.1690
  161SAPE  H11B18010   0.915   1.094   6.225 -2.5854  1.7896 -0.2326
  161SAPE     P18011   0.669   1.191   6.324 -0.3254  0.1344  0.3203
  161SAPE   O1318012   0.641   1.107   6.203  0.0955  0.4309 -0.6079
  161SAPE   O1418013   0.565   1.183   6.429  0.3523  0.3588 -0.0582
  161SAPE   O1218014   0.805   1.146   6.392 -0.1084 -0.0527  0.0456
  161SAPE   O1118015   0.696   1.334   6.277  0.4173  0.4788 -0.2996
  161SAPE    C118016   0.706   1.450   6.361  0.5005 -0.0097  0.3540
  161SAPE    HA18017   0.715   1.540   6.295 -0.6502  1.5832  2.2705
  161SAPE    HB18018   0.610   1.470   6.412  0.5895  0.4151  0.3611
  161SAPE    C218019   0.820   1.446   6.469 -0.0760 -0.2725 -0.2224
  161SAPE    HS18020   0.916   1.412   6.424  1.1885  2.7000  0.0299
  161SAPE   O2118021   0.767   1.365   6.579  0.6341 -0.4743  0.5628
  161SAPE   C2118022   0.858   1.295   6.641  0.2101  0.2619 -0.1196
  161SAPE   O2218023   0.979   1.307   6.629 -0.3371  0.5700 -0.1301
  161SAPE   C2218024   0.784   1.198   6.735 -0.1165 -0.1469  0.8326
  161SAPE   H2R18025   0.737   1.256   6.817 -1.5489  1.0429 -0.7375
  161SAPE   H2S18026   0.714   1.147   6.665 -0.2875  2.5011 -1.0880
  161SAPE    C318027   0.843   1.591   6.519 -0.2310  0.6128  0.3301
  161SAPE    HX18028   0.764   1.619   6.592 -0.0282  0.1417  0.7401
  161SAPE    HY18029   0.848   1.665   6.436 -0.3607  1.0836  0.7334
  161SAPE   O3118030   0.969   1.594   6.587 -0.2761  0.0168  0.8314
  161SAPE   C3118031   0.967   1.625   6.723 -0.0958 -0.5306 -0.1871
  161SAPE   O3218032   0.867   1.636   6.788 -0.2133  0.4417  0.1882
  161SAPE   C3218033   1.104   1.643   6.786  0.0561  0.1938 -0.1184
  161SAPE   H2X18034   1.157   1.732   6.745  0.7707  0.2857  0.9694
  161SAPE   H2Y18035   1.173   1.559   6.760  1.5314  1.0111  0.9923
  161SAPE   C2318036   0.869   1.091   6.807 -0.0094  0.0993  0.3591
  161SAPE   H3R18037   0.933   1.033   6.738 -2.8357  0.1409 -2.5212
  161SAPE   H3S18038   0.789   1.014   6.819  0.2613 -0.8662 -2.9840
  161SAPE   C2418039   0.948   1.130   6.936 -0.5482  0.0355 -0.0666
  161SAPE   H4R18040   1.024   1.204   6.900  1.7733 -2.2053 -0.0508
  161SAPE   H4S18041   1.018   1.050   6.967 -2.1223 -1.5990 -0.6118
  161SAPE   C2518042   0.875   1.184   7.058 -0.3749 -0.5446 -0.5055
  161SAPE   H5R18043   0.844   1.290   7.055  0.9060 -0.1429  0.0294
  161SAPE   C2618044   0.843   1.112   7.170 -0.0652  0.1667  0.0979
  161SAPE   H6R18045   0.778   1.159   7.246 -0.5287 -0.0628 -0.1486
  161SAPE   C2718046   0.882   0.972   7.195 -0.7037  0.2306  0.0377
  161SAPE   H7R18047   0.945   0.940   7.109 -0.9303  0.7799 -0.3377
  161SAPE   H7S18048   0.789   0.912   7.196  0.7276 -2.2336  2.9095
  161SAPE   C2818049   0.964   0.952   7.325  0.3547  0.0910  1.0803
  161SAPE   H8R18050   1.072   0.963   7.310  0.0658 -0.4646 -1.8682
  161SAPE   C2918051   0.915   0.918   7.447 -0.1324  0.0727 -0.3645
  161SAPE   H9R18052   0.991   0.907   7.526 -0.2104 -1.4327 -0.4774
  161SAPE  C21018053   0.780   0.888   7.500  0.6905 -0.0968 -0.0310
  161SAPE  H10R18054   0.780   0.778   7.518 -0.1057 -0.0836  0.1040
  161SAPE  H10S18055   0.712   0.907   7.414  1.2210  0.5948 -0.3092
  161SAPE  C21118056   0.740   0.972   7.614 -0.2725  0.0644  0.1199
  161SAPE  H11R18057   0.772   1.077   7.606  1.9680 -0.6364 -0.9245
  161SAPE  C21218058   0.667   0.934   7.725 -1.6104  0.3843  0.2984
  161SAPE  H12R18059   0.658   1.012   7.802  0.3045  1.2961 -0.3282
  161SAPE  C21318060   0.611   0.805   7.769 -0.4607  0.7383  0.2137
  161SAPE  H13R18061   0.661   0.786   7.867  0.5539  3.2606  0.2430
  161SAPE  H13S18062   0.650   0.728   7.699  1.7141  1.7901  0.1956
  161SAPE  C21418063   0.462   0.804   7.777  0.6301 -1.0662 -0.1795
  161SAPE  H14R18064   0.423   0.890   7.720 -0.3031 -0.5851  1.1322
  161SAPE  C21518065   0.383   0.726   7.851 -0.5715  0.3928 -0.2038
  161SAPE  H15R18066   0.274   0.739   7.838 -0.7623  0.1389  1.0167
  161SAPE  C21618067   0.430   0.624   7.949  0.6130  0.9637  0.3549
  161SAPE  H16R18068   0.519   0.569   7.910 -0.1955 -0.9993  1.1228
  161SAPE  H16S18069   0.351   0.549   7.972  1.6836 -0.4229 -0.3475
  161SAPE  C21718070   0.463   0.702   8.078  0.0211  0.9577 -0.1563
  161SAPE  H17R18071   0.367   0.755   8.101  0.6392  2.3668 -0.6938
  161SAPE  H17S18072   0.536   0.785   8.066 -0.1054  1.0768 -0.1146
  161SAPE  C21818073   0.506   0.609   8.199  0.1453 -0.5186 -0.6797
  161SAPE  H18R18074   0.424   0.534   8.208 -0.3091 -0.0144 -0.5147
  161SAPE  H18S18075   0.495   0.671   8.290  0.5248 -1.3246 -0.0727
  161SAPE  C21918076   0.645   0.539   8.194  0.2249 -0.2013  0.4968
  161SAPE  H19R18077   0.720   0.598   8.137  1.4615  0.5294  2.7489
  161SAPE  H19S18078   0.623   0.449   8.132  2.5480 -1.4514  1.3583
  161SAPE  C22018079   0.697   0.495   8.327 -0.1063  0.5010 -0.2922
  161SAPE  H20R18080   0.725   0.582   8.390  0.5538 -0.7238  1.1676
  161SAPE  H20S18081   0.797   0.450   8.307 -0.4761 -0.4911  0.0014
  161SAPE  H20T18082   0.627   0.431   8.386 -0.4617  1.8910  0.8585
  161SAPE   C3318083   1.099   1.669   6.932 -0.2499 -0.5676  0.2965
  161SAPE   H3X18084   1.066   1.579   6.988  0.3913 -1.5955 -0.9271
  161SAPE   H3Y18085   1.043   1.762   6.956  1.0330 -0.0821  1.5730
  161SAPE   C3418086   1.243   1.691   6.984  0.1703 -0.2034  0.0609
  161SAPE   H4X18087   1.314   1.753   6.925 -1.0578  1.3029  0.1064
  161SAPE   H4Y18088   1.295   1.593   6.993 -0.0503 -0.2972  0.3538
  161SAPE   C3518089   1.237   1.747   7.123 -0.3070 -0.5803 -0.2492
  161SAPE   H5X18090   1.174   1.838   7.121 -0.4412 -0.6284  0.9675
  161SAPE   H5Y18091   1.334   1.791   7.153 -0.1304 -2.1001  1.6287
  161SAPE   C3618092   1.183   1.664   7.241  0.0593  0.2170  0.1648
  161SAPE   H6X18093   1.245   1.572   7.247  1.3642  0.9964 -0.6543
  161SAPE   H6Y18094   1.078   1.638   7.218 -0.6752  1.3035  2.0971
  161SAPE   C3718095   1.201   1.732   7.377 -0.8225 -0.0770 -0.1890
  161SAPE   H7X18096   1.170   1.838   7.370 -0.4804  0.1170  1.0309
  161SAPE   H7Y18097   1.309   1.743   7.400 -1.2581  1.7197  1.2202
  161SAPE   C3818098   1.130   1.659   7.489 -0.2751  0.3302 -0.2589
  161SAPE   H8X18099   1.168   1.554   7.481  2.6192  1.2659  0.0152
  161SAPE   H8Y18100   1.021   1.678   7.499 -0.6151 -1.3897 -0.3051
  161SAPE   C3918101   1.188   1.691   7.626 -0.3860  0.5066 -0.6361
  161SAPE   H9X18102   1.156   1.796   7.644  0.7484  0.8242 -0.3772
  161SAPE   H9Y18103   1.299   1.697   7.625 -0.3430 -0.2009 -0.6837
  161SAPE  C31018104   1.136   1.600   7.744 -0.7354 -0.9090  0.1667
  161SAPE  H10X18105   1.027   1.608   7.764 -0.3765  0.7813  1.8342
  161SAPE  H10Y18106   1.192   1.648   7.827 -1.5709  2.3552 -1.0092
  161SAPE  C31118107   1.185   1.453   7.735 -0.1339 -1.2400  0.8936
  161SAPE  H11X18108   1.281   1.449   7.679  0.5529 -0.8590  2.0132
  161SAPE  H11Y18109   1.106   1.412   7.669 -1.1061  3.0229 -0.9369
  161SAPE  C31218110   1.189   1.372   7.866 -0.1108 -0.1419 -0.1364
  161SAPE  H12X18111   1.172   1.264   7.843 -1.2061 -0.2878  1.2112
  161SAPE  H12Y18112   1.105   1.407   7.930 -1.0948  2.9229 -2.8139
  161SAPE  C31318113   1.324   1.404   7.936  0.6612  0.3792  0.3236
  161SAPE  H13X18114   1.327   1.515   7.940  1.6522  0.4964 -2.1922
  161SAPE  H13Y18115   1.412   1.373   7.876 -0.0351  0.3570 -0.7278
  161SAPE  C31418116   1.329   1.349   8.074 -0.2791 -0.7081 -0.5655
  161SAPE  H14X18117   1.347   1.239   8.076  0.6807 -0.5598  1.1663
  161SAPE  H14Y18118   1.231   1.369   8.122 -1.0333  0.3654 -2.4345
  161SAPE  C31518119   1.447   1.396   8.162  0.5806 -0.0812  0.0712
  161SAPE  H15X18120   1.446   1.506   8.172  1.5506 -0.1877  1.6363
  161SAPE  H15Y18121   1.546   1.383   8.112  1.4667  2.2833  1.0836
  161SAPE  C31618122   1.442   1.338   8.308  1.2127 -0.5034 -0.1230
  161SAPE  H16X18123   1.452   1.227   8.309 -1.0807 -0.8049  2.0398
  161SAPE  H16Y18124   1.342   1.357   8.353  1.0270  0.3480 -0.8722
  161SAPE  C31718125   1.542   1.391   8.402  0.0525 -0.6568 -0.4656
  161SAPE  H17X18126   1.641   1.388   8.353  1.0738 -2.2040  1.5204
  161SAPE  H17Y18127   1.553   1.321   8.488 -4.2158 -0.8049  0.1804
  161SAPE  C31818128   1.505   1.534   8.437  0.4428 -0.6700  0.0006
  161SAPE  H18X18129   1.492   1.596   8.346 -1.2962 -0.0140  0.6573
  161SAPE  H18Y18130   1.583   1.568   8.508  0.1133 -3.2017  1.7086
  161SAPE  H18Z18131   1.411   1.544   8.496  0.9327  1.9560  0.4558
  162SAPE     N18132   6.295   0.773   6.127 -0.1311 -0.4198 -0.7083
  162SAPE   HN118133   6.198   0.753   6.093 -0.8312 -1.3159  1.5922
  162SAPE   HN218134   6.286   0.857   6.187  0.4682 -0.6880 -0.2318
  162SAPE   HN318135   6.365   0.773   6.051 -0.5985 -2.7863 -1.2270
  162SAPE   C1218136   6.309   0.666   6.230  0.3332  0.1326 -0.5529
  162SAPE  H12A18137   6.415   0.676   6.260  1.1400  2.1171 -3.6330
  162SAPE  H12B18138   6.287   0.574   6.172  0.1249  0.8339 -1.6244
  162SAPE   C1118139   6.220   0.682   6.356 -0.6549 -0.1997 -0.6453
  162SAPE  H11A18140   6.267   0.635   6.445 -2.4918  0.3197  0.6563
  162SAPE  H11B18141   6.129   0.622   6.335 -1.2881  0.6898 -0.5217
  162SAPE     P18142   6.291   0.897   6.483  0.2450  0.2192 -0.4535
  162SAPE   O1318143   6.428   0.861   6.457  0.2214  0.5350 -0.6871
  162SAPE   O1418144   6.257   1.040   6.494 -0.3992  0.1256  0.3628
  162SAPE   O1218145   6.189   0.818   6.393 -0.1375 -0.5032  0.0156
  162SAPE   O1118146   6.251   0.825   6.617  0.1069  0.0273 -0.7382
  162SAPE    C118147   6.119   0.833   6.671 -0.5613  0.2868  0.3371
  162SAPE    HA18148   6.041   0.825   6.593 -2.5331 -0.2589  2.2551
  162SAPE    HB18149   6.101   0.747   6.740  0.3174 -1.3276 -1.3578
  162SAPE    C218150   6.090   0.960   6.752  0.8795  0.2110  0.1430
  162SAPE    HS18151   6.177   1.030   6.744 -1.5086  3.3376 -0.4246
  162SAPE   O2118152   6.069   0.921   6.891  0.0194 -0.1849 -0.0198
  162SAPE   C2118153   6.176   0.881   6.956  0.3133  0.2312  1.2479
  162SAPE   O2218154   6.290   0.889   6.921 -0.7696  0.0087  0.0008
  162SAPE   C2218155   6.132   0.821   7.088  0.9549 -0.0391 -0.0842
  162SAPE   H2R18156   6.045   0.873   7.134 -0.8724 -1.0311 -2.2397
  162SAPE   H2S18157   6.099   0.716   7.070  0.3867 -0.5466  3.1704
  162SAPE    C318158   5.964   1.027   6.697  0.1018 -0.6037  0.2192
  162SAPE    HX18159   5.882   0.952   6.709 -0.6924  0.2593  0.3680
  162SAPE    HY18160   5.960   1.040   6.587 -2.1872  0.6576  0.3885
  162SAPE   O3118161   5.933   1.146   6.776  0.1141 -0.4910  0.6636
  162SAPE   C3118162   5.994   1.252   6.752  0.4088  0.1361 -0.4105
  162SAPE   O3218163   6.084   1.273   6.676 -0.1989  0.8021  0.3085
  162SAPE   C3218164   5.943   1.355   6.849 -0.4223 -0.2386 -0.7922
  162SAPE   H2X18165   5.855   1.319   6.907 -0.3948 -0.7700 -1.0665
  162SAPE   H2Y18166   5.914   1.445   6.791  0.1890 -0.5570 -1.6091
  162SAPE   C2318167   6.247   0.812   7.195  0.2147  0.4567  0.3443
  162SAPE   H3R18168   6.289   0.915   7.197  1.6267 -0.0373 -1.4211
  162SAPE   H3S18169   6.332   0.751   7.155 -1.5589 -0.7525 -1.8106
  162SAPE   C2418170   6.202   0.773   7.333  0.0549  0.5014  0.0853
  162SAPE   H4R18171   6.125   0.841   7.375 -2.4917 -0.6374 -2.4335
  162SAPE   H4S18172   6.283   0.784   7.408 -0.5742  1.9144  0.5900
  162SAPE   C2518173   6.154   0.627   7.343 -0.0979 -0.3865  0.0936
  162SAPE   H5R18174   6.211   0.555   7.284 -0.7308  0.1683 -1.2257
  162SAPE   C2618175   6.055   0.590   7.421  0.6806 -0.3463 -0.6671
  162SAPE   H6R18176   6.029   0.483   7.414  0.9071 -0.6049  1.6175
  162SAPE   C2718177   5.964   0.677   7.505  0.7322  0.0334  0.2522
  162SAPE   H7R18178   5.892   0.724   7.434 -1.5219  1.3638  3.2302
  162SAPE   H7S18179   6.014   0.766   7.549 -2.3809  0.7720  2.6111
  162SAPE   C2818180   5.888   0.607   7.613 -0.6651  0.4208  0.5660
  162SAPE   H8R18181   5.876   0.498   7.598  1.2741  0.2218  0.1646
  162SAPE   C2918182   5.838   0.669   7.725 -0.2570 -0.3536 -0.3112
  162SAPE   H9R18183   5.781   0.616   7.802 -2.8542  1.2981 -0.9625
  162SAPE  C21018184   5.847   0.818   7.750  0.1285  0.4906 -0.5960
  162SAPE  H10R18185   5.867   0.883   7.662  0.4891 -0.1015 -0.9636
  162SAPE  H10S18186   5.941   0.832   7.808 -1.1420  0.4884  1.5410
  162SAPE  C21118187   5.734   0.870   7.835  0.6472 -0.3860  0.4400
  162SAPE  H11R18188   5.640   0.872   7.777  0.0447  0.6086  1.4097
  162SAPE  C21218189   5.729   0.905   7.969 -0.2186  0.2449 -0.2437
  162SAPE  H12R18190   5.635   0.953   8.000 -0.2338  1.9688 -2.6927
  162SAPE  C21318191   5.844   0.904   8.064  0.1609  0.3553 -0.3146
  162SAPE  H13R18192   5.897   1.000   8.046 -2.3076  1.3877 -2.7875
  162SAPE  H13S18193   5.922   0.831   8.035  1.1780  2.4455 -3.2875
  162SAPE  C21418194   5.793   0.893   8.209 -0.3370  0.3183  0.5864
  162SAPE  H14R18195   5.724   0.974   8.239  0.9047  1.2332  1.0379
  162SAPE  C21518196   5.822   0.800   8.299 -0.1238 -0.4810  0.3043
  162SAPE  H15R18197   5.779   0.819   8.399  0.2111  0.5364  0.2722
  162SAPE  C21618198   5.912   0.677   8.296 -0.1446 -0.0769  0.4697
  162SAPE  H16R18199   6.007   0.694   8.351  0.3682  1.1159 -0.7390
  162SAPE  H16S18200   5.934   0.652   8.190 -2.2534  0.8738 -0.2351
  162SAPE  C21718201   5.834   0.558   8.356 -0.1159 -0.3804 -0.6439
  162SAPE  H17R18202   5.749   0.524   8.293 -0.7590 -0.2804  0.1434
  162SAPE  H17S18203   5.806   0.596   8.457  2.5329  0.7489 -0.2586
  162SAPE  C21818204   5.930   0.443   8.390  0.1050  0.3363  0.6029
  162SAPE  H18R18205   5.997   0.471   8.475  0.6558  1.6691 -0.2277
  162SAPE  H18S18206   6.009   0.425   8.314  1.4233 -0.2260  2.0616
  162SAPE  C21918207   5.864   0.305   8.421  0.0229  0.2273 -0.2195
  162SAPE  H19R18208   5.796   0.265   8.342 -1.2565  0.9886  0.4692
  162SAPE  H19S18209   5.803   0.317   8.513  1.7306  0.0251  0.9997
  162SAPE  C22018210   5.972   0.195   8.460 -0.4192  0.0152  0.7769
  162SAPE  H20R18211   6.050   0.249   8.518  0.2623 -1.6135  1.4712
  162SAPE  H20S18212   6.023   0.154   8.370 -2.4808  0.5316 -0.6934
  162SAPE  H20T18213   5.933   0.117   8.529 -2.0746  1.6561  1.7817
  162SAPE   C3318214   6.063   1.402   6.940  0.1255 -0.3700  0.2811
  162SAPE   H3X18215   6.033   1.492   6.997  0.6358  0.5169 -0.7925
  162SAPE   H3Y18216   6.157   1.426   6.884  0.8727 -1.3627  1.0819
  162SAPE   C3418217   6.098   1.300   7.048  0.0200 -0.1390  0.7689
  162SAPE   H4X18218   6.181   1.353   7.101  2.7197 -2.3900 -0.9164
  162SAPE   H4Y18219   6.151   1.209   7.012  1.4262  1.0497 -0.2836
  162SAPE   C3518220   5.984   1.261   7.141  0.7872 -0.2619  0.1524
  162SAPE   H5X18221   5.909   1.188   7.104 -1.3306  1.0241  1.7028
  162SAPE   H5Y18222   5.930   1.356   7.160 -0.7451 -1.1796  0.6024
  162SAPE   C3618223   6.047   1.213   7.275 -0.1732 -0.7758  0.4642
  162SAPE   H6X18224   6.119   1.282   7.323 -0.2763 -0.4238  0.1249
  162SAPE   H6Y18225   6.114   1.124   7.268  1.4506  0.3583  0.8823
  162SAPE   C3718226   5.932   1.182   7.367  0.6409  0.2647 -0.6525
  162SAPE   H7X18227   5.877   1.097   7.323  0.8271 -0.0160 -0.3409
  162SAPE   H7Y18228   5.871   1.274   7.382 -2.0238 -0.8363 -3.6497
  162SAPE   C3818229   5.986   1.144   7.502  0.5793 -1.1365  0.1064
  162SAPE   H8X18230   6.065   1.215   7.534 -1.2071  0.6894  0.7444
  162SAPE   H8Y18231   6.030   1.043   7.507  1.1386 -0.8736  0.5481
  162SAPE   C3918232   5.876   1.168   7.615  0.4029 -0.2565  0.6890
  162SAPE   H9X18233   5.801   1.086   7.611 -0.8364  0.5242  4.4931
  162SAPE   H9Y18234   5.819   1.262   7.598 -2.5395 -1.8603  0.9980
  162SAPE  C31018235   5.920   1.173   7.764  0.2669  0.6421  0.0060
  162SAPE  H10X18236   5.981   1.086   7.796 -1.8924 -1.0177 -0.1743
  162SAPE  H10Y18237   5.835   1.204   7.828 -0.8799 -3.2152  0.6005
  162SAPE  C31118238   6.015   1.296   7.783  0.6193  0.6133  0.2803
  162SAPE  H11X18239   6.106   1.281   7.720 -0.3827 -1.2022 -0.8308
  162SAPE  H11Y18240   6.049   1.287   7.888  0.1285  1.4750  0.5222
  162SAPE  C31218241   5.967   1.436   7.761  0.4678  0.0213 -0.2398
  162SAPE  H12X18242   5.857   1.422   7.771  0.6710 -2.9922 -1.1434
  162SAPE  H12Y18243   5.994   1.484   7.664  0.0339  0.0736 -0.3365
  162SAPE  C31318244   5.996   1.542   7.876 -0.8229  0.8278 -0.0519
  162SAPE  H13X18245   6.106   1.558   7.876 -0.5977 -0.5266  1.4738
  162SAPE  H13Y18246   5.973   1.497   7.975  1.2396 -3.9744 -1.4585
  162SAPE  C31418247   5.932   1.680   7.859 -0.4948 -0.3218  0.2491
  162SAPE  H14X18248   5.929   1.709   7.752  0.3717 -1.0453  0.0174
  162SAPE  H14Y18249   6.000   1.748   7.914  1.2006 -0.9809 -0.9568
  162SAPE  C31518250   5.787   1.680   7.919  0.2237 -0.3017 -0.2062
  162SAPE  H15X18251   5.739   1.581   7.904  0.5958 -0.3720 -1.0006
  162SAPE  H15Y18252   5.715   1.756   7.883 -0.4986 -0.8421  0.0796
  162SAPE  C31618253   5.803   1.710   8.072  0.2928 -0.8687 -0.4922
  162SAPE  H16X18254   5.873   1.795   8.086 -0.6280 -0.4675  2.2501
  162SAPE  H16Y18255   5.855   1.628   8.126  0.3588  0.0886  0.9446
  162SAPE  C31718256   5.674   1.745   8.143  0.0573 -0.8266 -0.4413
  162SAPE  H17X18257   5.606   1.658   8.139 -1.3047  0.2357 -1.5842
  162SAPE  H17Y18258   5.620   1.823   8.086 -0.6391 -0.4969  0.6353
  162SAPE  C31818259   5.691   1.790   8.290 -0.4504 -0.0673 -1.2082
  162SAPE  H18X18260   5.722   1.706   8.356 -1.4943  0.3748 -0.1156
  162SAPE  H18Y18261   5.599   1.836   8.331 -0.1273  0.1910 -0.7615
  162SAPE  H18Z18262   5.776   1.862   8.291  1.3194 -2.0511  0.4523
  163SAPE     N18263   5.370   6.505   6.424 -0.1174 -0.3086 -0.9880
  163SAPE   HN118264   5.420   6.578   6.479 -0.2200 -0.0200 -1.2710
  163SAPE   HN218265   5.430   6.453   6.357  0.3515 -0.9734 -0.0762
  163SAPE   HN318266   5.305   6.556   6.361 -0.8303  1.7871  1.2614
  163SAPE   C1218267   5.290   6.404   6.511 -0.3150 -0.5674 -0.0052
  163SAPE  H12A18268   5.367   6.351   6.571  1.1358  1.6434  0.2314
  163SAPE  H12B18269   5.228   6.342   6.444 -1.5782 -2.1984  2.5277
  163SAPE   C1118270   5.195   6.470   6.613 -0.1128 -0.2797  0.7715
  163SAPE  H11A18271   5.237   6.544   6.684 -2.5686  2.7005 -0.6416
  163SAPE  H11B18272   5.156   6.394   6.685  0.8214  0.0139  1.6059
  163SAPE     P18273   5.009   6.672   6.598 -0.1290 -0.1560  0.3073
  163SAPE   O1318274   5.043   6.783   6.503 -0.1264  0.2358  0.4378
  163SAPE   O1418275   4.865   6.645   6.602  0.3430  0.5938 -0.7199
  163SAPE   O1218276   5.081   6.536   6.551  0.0047  0.7342  0.1365
  163SAPE   O1118277   5.069   6.700   6.737  0.1827 -0.1258 -0.3250
  163SAPE    C118278   5.169   6.791   6.772  0.4273  0.6081  0.2384
  163SAPE    HA18279   5.241   6.736   6.836 -1.8978 -1.5918  1.1671
  163SAPE    HB18280   5.228   6.825   6.684  1.0363  0.1245  0.4534
  163SAPE    C218281   5.118   6.915   6.852  0.1506 -0.0183  0.1669
  163SAPE    HS18282   5.218   6.953   6.880  2.1032 -3.3351 -1.6932
  163SAPE   O2118283   5.053   6.862   6.966  0.7233 -0.1336  0.0777
  163SAPE   C2118284   5.080   6.918   7.076 -0.3386 -0.1005 -0.9372
  163SAPE   O2218285   5.129   7.023   7.103  0.7822  0.4324 -0.5381
  163SAPE   C2218286   5.012   6.835   7.190  0.1045 -0.2125  0.4037
  163SAPE   H2R18287   4.923   6.894   7.221 -0.7137 -0.8421 -0.6881
  163SAPE   H2S18288   4.973   6.739   7.150 -2.1541 -0.0258  1.9775
  163SAPE    C318289   5.033   7.017   6.775  0.5527 -0.3907 -0.0589
  163SAPE    HX18290   4.944   6.958   6.742 -0.3117  1.0240 -0.3508
  163SAPE    HY18291   5.073   7.051   6.677 -0.2093  1.9381  0.3654
  163SAPE   O3118292   5.008   7.133   6.861  0.2248 -0.3297 -0.5480
  163SAPE   C3118293   4.885   7.142   6.904 -0.3473 -0.2143  0.0703
  163SAPE   O3218294   4.800   7.061   6.888  0.1062  0.4254 -0.0469
  163SAPE   C3218295   4.870   7.280   6.970  0.1933  0.5726  0.1835
  163SAPE   H2X18296   4.840   7.334   6.878  1.9197 -0.3070 -0.9534
  163SAPE   H2Y18297   4.967   7.322   7.004  0.6600  0.2393 -0.7247
  163SAPE   C2318298   5.099   6.813   7.315  0.1458  0.2400  0.9655
  163SAPE   H3R18299   5.137   6.907   7.360  0.2947  0.5563  0.1856
  163SAPE   H3S18300   5.184   6.751   7.280  0.9639  2.1639 -0.6556
  163SAPE   C2418301   5.026   6.726   7.427  0.3735  0.5385  1.1626
  163SAPE   H4R18302   5.106   6.699   7.500  0.2464 -2.1812  0.4066
  163SAPE   H4S18303   4.986   6.634   7.379  1.1966  1.6849 -1.9209
  163SAPE   C2518304   4.915   6.811   7.487 -0.8732 -0.2791 -0.0490
  163SAPE   H5R18305   4.833   6.843   7.420  1.1024 -2.2607 -3.7645
  163SAPE   C2618306   4.906   6.851   7.616 -0.1397  0.3930  0.1028
  163SAPE   H6R18307   4.821   6.911   7.651  0.9905  1.9670  0.2620
  163SAPE   C2718308   4.985   6.811   7.738 -0.4384  0.1193  0.0234
  163SAPE   H7R18309   5.058   6.729   7.717 -0.4120 -0.0239  0.6573
  163SAPE   H7S18310   4.912   6.768   7.809 -1.6960  2.2717  0.1038
  163SAPE   C2818311   5.068   6.926   7.789  0.5118  0.7657  0.2575
  163SAPE   H8R18312   5.170   6.938   7.751  1.1747 -0.8532  1.3830
  163SAPE   C2918313   5.037   7.012   7.889 -0.8443  0.3729  0.0569
  163SAPE   H9R18314   5.120   7.076   7.921 -0.4303 -0.2289  0.1878
  163SAPE  C21018315   4.912   7.015   7.977  0.4030  0.3744 -0.1027
  163SAPE  H10R18316   4.870   6.914   7.960  0.4580  0.6575 -2.1679
  163SAPE  H10S18317   4.832   7.080   7.935  0.5196  0.2182 -0.5682
  163SAPE  C21118318   4.942   7.057   8.118  0.3318  0.1342 -0.7598
  163SAPE  H11R18319   4.955   7.165   8.134  1.2727  0.3369 -2.5819
  163SAPE  C21218320   4.940   6.980   8.225 -0.0165  0.1361  0.1543
  163SAPE  H12R18321   4.941   7.027   8.325 -1.5503  1.0769 -0.2330
  163SAPE  C21318322   4.919   6.830   8.234  0.7736 -0.2083  0.5420
  163SAPE  H13R18323   4.946   6.771   8.144  1.1645 -0.7121  0.9763
  163SAPE  H13S18324   4.810   6.816   8.249  0.0845  1.9079 -1.8584
  163SAPE  C21418325   4.991   6.760   8.341  0.5639  0.6693  0.3816
  163SAPE  H14R18326   5.079   6.705   8.307  0.2480 -0.2681  1.0195
  163SAPE  C21518327   4.951   6.739   8.468  0.0432  0.6052  0.1302
  163SAPE  H15R18328   5.019   6.675   8.526  0.4054  1.5543  0.7673
  163SAPE  C21618329   4.822   6.800   8.537 -0.6954  0.3606  0.0227
  163SAPE  H16R18330   4.739   6.725   8.540 -0.3698 -0.0003  0.1921
  163SAPE  H16S18331   4.784   6.886   8.479  0.4037  1.2281  0.5491
  163SAPE  C21718332   4.852   6.851   8.682 -0.1629 -0.6354  0.7323
  163SAPE  H17R18333   4.896   6.763   8.733  0.2482 -1.7076 -1.3761
  163SAPE  H17S18334   4.753   6.871   8.728 -0.1815  0.2903  0.3225
  163SAPE  C21818335   4.937   6.973   8.689  0.1392 -1.1066  0.0683
  163SAPE  H18R18336   4.901   7.048   8.615  1.4048  0.3412  0.8442
  163SAPE  H18S18337   5.038   6.938   8.658 -0.0046 -1.1462 -0.3595
  163SAPE  C21918338   4.938   7.032   8.832 -0.3319 -1.0965  0.3304
  163SAPE  H19R18339   4.834   7.040   8.869 -0.5861 -0.9598 -0.4008
  163SAPE  H19S18340   4.990   7.130   8.826 -0.3144 -1.1598 -0.7056
  163SAPE  C22018341   5.014   6.944   8.935  0.3472  0.1496  0.8492
  163SAPE  H20R18342   4.960   6.849   8.954  2.4730 -1.7824 -1.8755
  163SAPE  H20S18343   5.032   7.002   9.028 -0.6065  1.2913  0.3592
  163SAPE  H20T18344   5.112   6.912   8.895  0.4000 -0.6764  1.6250
  163SAPE   C3318345   4.759   7.282   7.080  0.3278 -0.2924  0.9791
  163SAPE   H3X18346   4.669   7.227   7.045  0.3252 -0.2497  0.9171
  163SAPE   H3Y18347   4.736   7.390   7.092 -1.1174 -0.6011  1.2330
  163SAPE   C3418348   4.810   7.231   7.218  0.0176  0.0278 -0.3156
  163SAPE   H4X18349   4.886   7.302   7.256  1.3829  0.2831 -3.2049
  163SAPE   H4Y18350   4.852   7.129   7.209 -1.6116 -0.7897  0.8291
  163SAPE   C3518351   4.685   7.222   7.309  0.3292 -0.4059  0.3861
  163SAPE   H5X18352   4.616   7.151   7.260  0.5999 -0.2513 -0.2405
  163SAPE   H5Y18353   4.634   7.321   7.321  3.1487  1.1970  0.1025
  163SAPE   C3618354   4.724   7.165   7.445 -0.2950 -0.7167  0.0989
  163SAPE   H6X18355   4.806   7.089   7.442 -0.4624 -0.8733 -0.5312
  163SAPE   H6Y18356   4.636   7.112   7.488 -2.4480  2.0255 -0.6689
  163SAPE   C3718357   4.760   7.274   7.545 -0.4095 -1.1537  0.7108
  163SAPE   H7X18358   4.679   7.349   7.560 -0.3778 -0.7723 -0.9046
  163SAPE   H7Y18359   4.825   7.344   7.489  0.6457 -2.0543  0.7864
  163SAPE   C3818360   4.828   7.224   7.674 -0.3307 -0.6995  0.3866
  163SAPE   H8X18361   4.916   7.159   7.653  2.4355  1.5868  3.6189
  163SAPE   H8Y18362   4.772   7.151   7.737 -0.6684  0.3413  1.3253
  163SAPE   C3918363   4.870   7.350   7.758 -0.2500  0.2367  0.1175
  163SAPE   H9X18364   4.870   7.444   7.699  0.9248 -0.2091 -0.6382
  163SAPE   H9Y18365   4.977   7.331   7.780  0.0669 -0.0338 -1.5090
  163SAPE  C31018366   4.780   7.369   7.883  0.5881  0.4858  0.1081
  163SAPE  H10X18367   4.756   7.265   7.914  4.7246 -0.0744  2.2907
  163SAPE  H10Y18368   4.694   7.425   7.842 -0.1635  2.2335  3.6915
  163SAPE  C31118369   4.856   7.439   7.993  0.4295 -0.1616 -0.2212
  163SAPE  H11X18370   4.891   7.540   7.962 -0.4028  0.6931  1.4437
  163SAPE  H11Y18371   4.948   7.381   8.013 -0.4138 -1.2964  0.5157
  163SAPE  C31218372   4.772   7.446   8.129 -0.2019  0.1897  0.3318
  163SAPE  H12X18373   4.758   7.342   8.165  0.8458 -1.8775 -4.4460
  163SAPE  H12Y18374   4.673   7.492   8.109  1.1638  3.2918  0.0133
  163SAPE  C31318375   4.847   7.541   8.232 -0.8804  0.2813 -0.3799
  163SAPE  H13X18376   4.867   7.638   8.182 -1.3866  1.0418  0.8495
  163SAPE  H13Y18377   4.940   7.487   8.257 -0.6881 -0.0633 -1.7330
  163SAPE  C31418378   4.764   7.559   8.356  0.2470  0.4190 -0.7721
  163SAPE  H14X18379   4.716   7.464   8.388 -0.6473  0.8491 -0.8199
  163SAPE  H14Y18380   4.689   7.630   8.315 -0.6167 -1.8611 -3.4938
  163SAPE  C31518381   4.850   7.631   8.462  0.0389  0.3607  0.1818
  163SAPE  H15X18382   4.900   7.727   8.437 -0.1701  0.3033 -0.4609
  163SAPE  H15Y18383   4.936   7.562   8.474 -0.2776 -0.3491 -1.4073
  163SAPE  C31618384   4.770   7.647   8.593  0.6694 -0.3875 -0.0152
  163SAPE  H16X18385   4.722   7.551   8.622 -2.1331  1.2880  1.2200
  163SAPE  H16Y18386   4.690   7.723   8.583  1.2679  0.1223 -0.9977
  163SAPE  C31718387   4.854   7.687   8.722 -0.4614  0.6663  1.1756
  163SAPE  H17X18388   4.802   7.764   8.783 -1.8492  1.4478 -0.8494
  163SAPE  H17Y18389   4.945   7.736   8.681 -0.6899  2.0157  2.2224
  163SAPE  C31818390   4.897   7.559   8.786 -0.7703  0.6184 -1.1094
  163SAPE  H18X18391   4.839   7.524   8.874  1.7296 -0.8185  0.0980
  163SAPE  H18Y18392   5.003   7.574   8.818 -1.5926  2.5326  1.0188
  163SAPE  H18Z18393   4.880   7.474   8.716  0.7189  0.2397 -1.0476
  164SAPE     N18394   0.227   4.939   6.210 -0.4411  0.7611  0.5431
  164SAPE   HN118395   0.269   5.033   6.201  1.8938  0.0411  2.7358
  164SAPE   HN218396   0.142   4.953   6.269 -1.2749 -0.2508 -0.3794
  164SAPE   HN318397   0.286   4.871   6.262  1.8602  1.1941 -1.3247
  164SAPE   C1218398   0.183   4.884   6.076 -0.3219 -0.7381  0.6740
  164SAPE  H12A18399   0.263   4.897   6.000 -1.2575  0.7854 -0.0912
  164SAPE  H12B18400   0.097   4.944   6.040  0.0276 -0.0205  1.0206
  164SAPE   C1118401   0.138   4.739   6.083  0.1253  0.4918  1.1223
  164SAPE  H11A18402   0.093   4.717   5.985  0.7268  1.5924  0.5808
  164SAPE  H11B18403   0.062   4.722   6.163 -0.2822  1.2773  0.9047
  164SAPE     P18404   0.335   4.582   6.000 -0.0906 -0.0822  0.0889
  164SAPE   O1318405   0.284   4.446   5.959 -0.4649 -0.2304 -0.5416
  164SAPE   O1418406   0.364   4.684   5.890  0.0348 -0.3891 -0.3472
  164SAPE   O1218407   0.243   4.651   6.113  0.4093 -0.1667 -0.0988
  164SAPE   O1118408   0.470   4.576   6.074 -0.4493 -0.1818 -0.3434
  164SAPE    C118409   0.468   4.484   6.186 -0.1548 -0.1322  0.1183
  164SAPE    HA18410   0.403   4.395   6.171  2.2890 -1.8119 -1.1307
  164SAPE    HB18411   0.571   4.446   6.203  0.6117  0.7034 -2.2588
  164SAPE    C218412   0.426   4.549   6.325  0.1960 -0.3815  0.3943
  164SAPE    HS18413   0.324   4.590   6.314  0.3273 -0.2189 -0.3311
  164SAPE   O2118414   0.531   4.638   6.371  0.0697  0.8527 -0.2410
  164SAPE   C2118415   0.482   4.766   6.402 -0.9707  0.1203 -0.2275
  164SAPE   O2218416   0.361   4.786   6.396  0.4949 -0.8433  0.6274
  164SAPE   C2218417   0.586   4.847   6.463 -0.0241  0.2810  0.2938
  164SAPE   H2R18418   0.667   4.783   6.503  0.4738 -0.6574 -2.0349
  164SAPE   H2S18419   0.623   4.917   6.385 -0.1733 -1.1427 -1.0963
  164SAPE    C318420   0.396   4.429   6.424  0.6534  0.3548  0.9842
  164SAPE    HX18421   0.480   4.357   6.414  2.1800  2.3546 -2.7328
  164SAPE    HY18422   0.301   4.382   6.390  1.4604 -1.0333  0.6000
  164SAPE   O3118423   0.385   4.464   6.562 -0.1421 -0.1868  0.3141
  164SAPE   C3118424   0.275   4.520   6.604  0.2467 -0.5262 -0.5972
  164SAPE   O3218425   0.179   4.563   6.540  0.0718 -0.1201  0.3516
  164SAPE   C3218426   0.281   4.510   6.758 -0.0680  0.2679  0.6094
  164SAPE   H2X18427   0.384   4.536   6.793  1.4345 -1.1551 -2.3993
  164SAPE   H2Y18428   0.267   4.405   6.791 -1.7930 -0.0275 -0.9002
  164SAPE   C2318429   0.536   4.906   6.600  0.0666  0.0533  1.1066
  164SAPE   H3R18430   0.444   4.967   6.590 -0.1674 -0.0174  2.6290
  164SAPE   H3S18431   0.611   4.980   6.634  0.2106  0.0860  0.7171
  164SAPE   C2418432   0.523   4.809   6.719  0.3473 -0.2203  0.4240
  164SAPE   H4R18433   0.466   4.728   6.670 -0.5627  1.6746 -1.8221
  164SAPE   H4S18434   0.473   4.853   6.808 -0.2253 -1.0465  0.5228
  164SAPE   C2518435   0.658   4.755   6.768 -0.7014 -1.2449 -0.0379
  164SAPE   H5R18436   0.694   4.660   6.724  2.6299 -0.4147  0.6122
  164SAPE   C2618437   0.727   4.812   6.871 -0.8464 -0.2714  0.6103
  164SAPE   H6R18438   0.814   4.761   6.914 -1.0968 -0.5728  0.7689
  164SAPE   C2718439   0.679   4.937   6.945  0.5919  0.8551  0.2134
  164SAPE   H7R18440   0.585   4.922   7.003 -0.6923  3.8882 -0.8495
  164SAPE   H7S18441   0.650   5.014   6.871  1.7340  0.7429 -0.3703
  164SAPE   C2818442   0.780   4.991   7.042 -0.4649  0.4252 -0.3162
  164SAPE   H8R18443   0.855   5.052   6.988 -0.1465 -1.5459 -2.2498
  164SAPE   C2918444   0.797   4.960   7.175  0.6752 -0.3245  0.0051
  164SAPE   H9R18445   0.883   5.008   7.224  1.2554  0.3709 -1.6292
  164SAPE  C21018446   0.713   4.857   7.250  0.4387 -0.3990 -0.1469
  164SAPE  H10R18447   0.626   4.816   7.195 -0.7548 -1.5784  2.4322
  164SAPE  H10S18448   0.665   4.911   7.335  0.3550 -0.6825 -0.0147
  164SAPE  C21118449   0.801   4.742   7.303 -0.4023  0.0972  1.1119
  164SAPE  H11R18450   0.832   4.667   7.228  0.5437  1.2396  0.3255
  164SAPE  C21218451   0.833   4.718   7.432  0.1154 -0.3364 -0.6918
  164SAPE  H12R18452   0.901   4.634   7.456 -2.8134 -2.5587  0.3833
  164SAPE  C21318453   0.791   4.812   7.550 -0.9842  0.2354 -0.7736
  164SAPE  H13R18454   0.783   4.757   7.647 -2.0363  0.8387 -0.5028
  164SAPE  H13S18455   0.687   4.843   7.525 -0.2053  2.5613 -1.3634
  164SAPE  C21418456   0.874   4.936   7.581  0.6598 -0.0534  0.4180
  164SAPE  H14R18457   0.816   5.028   7.598 -0.0694 -0.5520  0.6504
  164SAPE  C21518458   1.010   4.952   7.594  0.7728 -0.0588  0.3687
  164SAPE  H15R18459   1.041   5.057   7.608  0.3003  0.6402 -3.0426
  164SAPE  C21618460   1.117   4.851   7.581 -0.2369 -0.5384 -0.2413
  164SAPE  H16R18461   1.070   4.751   7.570 -1.0868 -0.1699 -0.0758
  164SAPE  H16S18462   1.174   4.854   7.677 -1.3162  1.7846  0.4106
  164SAPE  C21718463   1.209   4.892   7.463  0.2124 -0.1618  0.7135
  164SAPE  H17R18464   1.296   4.825   7.483  1.1117  0.6434 -0.3238
  164SAPE  H17S18465   1.248   4.996   7.462 -0.7955  0.2276 -0.7538
  164SAPE  C21818466   1.142   4.864   7.323  0.1985 -0.1291  0.9421
  164SAPE  H18R18467   1.052   4.928   7.307  1.0700  0.5061 -2.2811
  164SAPE  H18S18468   1.105   4.759   7.315 -1.4258  0.4702 -0.1386
  164SAPE  C21918469   1.233   4.896   7.197  0.0439  0.2413  0.0850
  164SAPE  H19R18470   1.327   4.836   7.200  2.4056  3.7013  0.1021
  164SAPE  H19S18471   1.245   5.006   7.191 -1.5406  0.4645  0.5412
  164SAPE  C22018472   1.158   4.856   7.067 -0.0027  0.1845  0.6629
  164SAPE  H20R18473   1.062   4.912   7.058  0.1886  0.4511  0.2160
  164SAPE  H20S18474   1.137   4.747   7.073  0.2744  0.0217 -0.9077
  164SAPE  H20T18475   1.224   4.873   6.979 -0.3166  0.3833  0.4604
  164SAPE   C3318476   0.180   4.605   6.826  0.0657 -0.3130 -0.2932
  164SAPE   H3X18477   0.075   4.567   6.817 -0.9653  1.4655  2.7845
  164SAPE   H3Y18478   0.159   4.700   6.771 -0.0537 -0.4761 -0.5322
  164SAPE   C3418479   0.198   4.633   6.973  0.0233 -0.0301 -0.4413
  164SAPE   H4X18480   0.217   4.536   7.024  0.6661  0.1425 -0.3381
  164SAPE   H4Y18481   0.104   4.676   7.014  0.0355  0.4021 -0.8577
  164SAPE   C3518482   0.313   4.736   7.005  0.2047 -0.9421  0.6215
  164SAPE   H5X18483   0.289   4.821   6.938  1.9672 -0.0425  1.0876
  164SAPE   H5Y18484   0.412   4.706   6.964 -0.6152 -0.8494 -1.5533
  164SAPE   C3618485   0.315   4.807   7.140 -0.3297 -0.0102 -0.2350
  164SAPE   H6X18486   0.223   4.868   7.156 -0.3016 -0.6251  2.7915
  164SAPE   H6Y18487   0.397   4.882   7.140  0.0562 -0.4109 -1.2083
  164SAPE   C3718488   0.323   4.712   7.256 -0.0161  0.1978  0.4420
  164SAPE   H7X18489   0.412   4.648   7.238 -0.2784  0.4111 -1.9715
  164SAPE   H7Y18490   0.232   4.648   7.265  0.3781 -0.2956  1.0213
  164SAPE   C3818491   0.337   4.776   7.393 -0.6790  0.0227 -0.3310
  164SAPE   H8X18492   0.246   4.835   7.413 -0.2145  0.2860  1.1626
  164SAPE   H8Y18493   0.419   4.851   7.391 -0.1234 -0.5591  0.0209
  164SAPE   C3918494   0.354   4.678   7.498  0.0641  0.4993 -0.3913
  164SAPE   H9X18495   0.460   4.643   7.507 -0.2063 -0.2729 -0.1426
  164SAPE   H9Y18496   0.284   4.592   7.491  1.4283 -0.7075  0.2324
  164SAPE  C31018497   0.307   4.718   7.639 -0.2519  0.1186  0.0661
  164SAPE  H10X18498   0.310   4.631   7.707  1.5236  0.9367  1.1060
  164SAPE  H10Y18499   0.197   4.735   7.638 -0.7451 -2.3748  1.9971
  164SAPE  C31118500   0.383   4.847   7.690 -0.3905 -0.3503  0.4325
  164SAPE  H11X18501   0.312   4.930   7.671 -0.2768 -0.3280  0.0931
  164SAPE  H11Y18502   0.478   4.857   7.632 -1.0979  0.8325 -0.5778
  164SAPE  C31218503   0.436   4.840   7.831 -0.4716  1.1500  0.4517
  164SAPE  H12X18504   0.516   4.913   7.853  1.4253 -0.5766 -0.3923
  164SAPE  H12Y18505   0.478   4.738   7.842 -1.8035  0.5923  0.6340
  164SAPE  C31318506   0.330   4.863   7.935  0.1834  0.1043  0.1860
  164SAPE  H13X18507   0.239   4.815   7.895 -0.7361  1.0236  1.1177
  164SAPE  H13Y18508   0.308   4.971   7.945 -1.4233 -0.3962  3.6183
  164SAPE  C31418509   0.363   4.800   8.073  0.1745 -0.7366 -0.5681
  164SAPE  H14X18510   0.466   4.837   8.091 -0.4307  0.8613 -0.2504
  164SAPE  H14Y18511   0.362   4.689   8.066  1.3796 -0.7934 -0.0495
  164SAPE  C31518512   0.270   4.833   8.188  0.4142 -0.1104 -0.2816
  164SAPE  H15X18513   0.176   4.773   8.189 -0.8449  1.7709 -0.0230
  164SAPE  H15Y18514   0.234   4.938   8.190  0.5754 -0.0613  1.3639
  164SAPE  C31618515   0.335   4.813   8.320  0.4695  0.2535 -0.0854
  164SAPE  H16X18516   0.421   4.883   8.316  0.6837  0.1529  1.6938
  164SAPE  H16Y18517   0.379   4.713   8.338 -0.7056 -0.1327  0.7612
  164SAPE  C31718518   0.252   4.854   8.444  0.2193 -0.3378 -0.0704
  164SAPE  H17X18519   0.181   4.936   8.420  0.7740  0.7682  1.8381
  164SAPE  H17Y18520   0.322   4.908   8.511 -0.5297 -0.7869  1.1143
  164SAPE  C31818521   0.170   4.745   8.519 -0.1847 -0.1136  0.2196
  164SAPE  H18X18522   0.234   4.680   8.582 -0.0428 -1.0844 -0.8849
  164SAPE  H18Y18523   0.113   4.678   8.451  1.8522 -1.9829  0.2331
  164SAPE  H18Z18524   0.093   4.782   8.590 -0.1150  0.0529  0.2106
  165SAPE     N18525   0.873   0.013   6.171  0.4102  0.5570 -0.2359
  165SAPE   HN118526   0.968   0.046   6.142 -0.1513  1.5942 -0.9399
  165SAPE   HN218527   0.854  -0.061   6.100 -0.4735 -0.2300  0.7877
  165SAPE   HN318528   0.809   0.093   6.155 -0.5427 -0.5961 -2.8091
  165SAPE   C1218529   0.857  -0.037   6.319  0.0694  0.2354 -0.0992
  165SAPE  H12A18530   0.883  -0.145   6.325  0.7405  0.4614  1.7169
  165SAPE  H12B18531   0.750  -0.036   6.347 -0.3483  0.8115 -1.6111
  165SAPE   C1118532   0.939   0.045   6.410 -0.2592  0.1800  0.3360
  165SAPE  H11A18533   0.932  -0.003   6.510  0.2145  0.2294  0.3965
  165SAPE  H11B18534   0.900   0.149   6.408 -0.9507 -0.0759  0.2038
  165SAPE     P18535   1.179   0.136   6.387 -0.4683 -0.3325 -0.0357
  165SAPE   O1318536   1.300   0.078   6.321  1.2891 -0.6563  0.6166
  165SAPE   O1418537   1.123   0.261   6.343  0.6529 -0.1461 -0.0967
  165SAPE   O1218538   1.070   0.027   6.366 -0.1842 -0.1261  0.2168
  165SAPE   O1118539   1.192   0.139   6.542 -0.2007  0.4940  0.4948
  165SAPE    C118540   1.228   0.020   6.605  0.3104 -0.0813 -0.2517
  165SAPE    HA18541   1.176  -0.068   6.562  1.0810 -1.3376  1.3041
  165SAPE    HB18542   1.339   0.019   6.612  0.4158 -0.4321 -1.7720
  165SAPE    C218543   1.172   0.035   6.760  0.0576 -0.1040  0.7269
  165SAPE    HS18544   1.242  -0.030   6.816 -0.2883 -1.1056  0.0163
  165SAPE   O2118545   1.038  -0.024   6.762  0.2020 -0.2679 -0.0045
  165SAPE   C2118546   1.031  -0.160   6.763  0.3720  0.2799 -0.4437
  165SAPE   O2218547   1.125  -0.234   6.757 -0.7207 -0.0024 -0.4296
  165SAPE   C2218548   0.884  -0.209   6.769 -0.0172  0.0660 -0.3102
  165SAPE   H2R18549   0.821  -0.168   6.687 -0.2038 -1.3293 -0.8795
  165SAPE   H2S18550   0.889  -0.317   6.746  2.0819 -0.1242  0.7827
  165SAPE    C318551   1.163   0.177   6.806  0.4657  0.3656  0.4644
  165SAPE    HX18552   1.079   0.231   6.758 -0.5716  0.8309  2.6465
  165SAPE    HY18553   1.258   0.228   6.781  2.7547 -1.9736  3.5998
  165SAPE   O3118554   1.141   0.179   6.949  0.4802  0.4871 -0.2872
  165SAPE   C3118555   1.022   0.212   6.993 -1.2547 -0.4645  0.1669
  165SAPE   O3218556   0.932   0.239   6.916  0.0926  0.2884  0.0999
  165SAPE   C3218557   1.009   0.196   7.144 -0.4970 -0.1909 -0.4770
  165SAPE   H2X18558   0.934   0.267   7.185 -0.5375 -0.9752  0.8731
  165SAPE   H2Y18559   1.105   0.229   7.191 -1.6609  2.9184 -0.0674
  165SAPE   C2318560   0.821  -0.183   6.905  0.4822  0.7101  0.1964
  165SAPE   H3R18561   0.710  -0.190   6.905  0.5391 -0.5686  0.3721
  165SAPE   H3S18562   0.841  -0.075   6.921  2.8854  0.2705  0.5549
  165SAPE   C2418563   0.883  -0.268   7.014  0.2538 -0.5116 -0.2300
  165SAPE   H4R18564   0.858  -0.215   7.108 -1.3308  1.1319 -1.5118
  165SAPE   H4S18565   0.993  -0.260   7.004  0.4464 -0.4380  1.7010
  165SAPE   C2518566   0.832  -0.412   7.008 -0.3559  0.5126 -0.0219
  165SAPE   H5R18567   0.868  -0.458   6.915  1.9021  3.3384 -0.6801
  165SAPE   C2618568   0.772  -0.486   7.109  0.5195  0.1727  0.2924
  165SAPE   H6R18569   0.732  -0.584   7.081  0.4546  0.3605 -0.3026
  165SAPE   C2718570   0.733  -0.432   7.242  0.0383  0.3845 -0.0716
  165SAPE   H7R18571   0.635  -0.381   7.237  0.0490  0.4996  0.7608
  165SAPE   H7S18572   0.806  -0.353   7.270 -0.3010  0.7300 -0.1570
  165SAPE   C2818573   0.740  -0.544   7.351 -0.3634  0.2759 -0.0033
  165SAPE   H8R18574   0.664  -0.623   7.340 -0.2345  0.3206 -1.3852
  165SAPE   C2918575   0.831  -0.564   7.445  0.5497 -0.0264 -0.4974
  165SAPE   H9R18576   0.810  -0.645   7.517  1.3169  0.7361  0.6145
  165SAPE  C21018577   0.956  -0.492   7.474  0.0049 -0.1942 -0.2071
  165SAPE  H10R18578   1.011  -0.469   7.380 -0.7943 -0.1038 -0.6674
  165SAPE  H10S18579   1.017  -0.566   7.530  0.4155  1.1577  1.1832
  165SAPE  C21118580   0.932  -0.367   7.560  0.2229  0.0881 -0.0315
  165SAPE  H11R18581   0.953  -0.273   7.507  1.7089  0.5384  1.2785
  165SAPE  C21218582   0.925  -0.355   7.688  0.4755  0.4273 -0.1391
  165SAPE  H12R18583   0.931  -0.258   7.739  1.9470  0.3834 -0.1987
  165SAPE  C21318584   0.948  -0.467   7.784  1.0568 -0.1099  0.5029
  165SAPE  H13R18585   0.973  -0.432   7.886  0.6884 -1.8739  1.2298
  165SAPE  H13S18586   1.031  -0.535   7.755 -0.3627 -1.9968  0.6822
  165SAPE  C21418587   0.824  -0.553   7.791 -0.6267 -0.0405  0.3610
  165SAPE  H14R18588   0.749  -0.529   7.714  0.0984  1.2310  0.0298
  165SAPE  C21518589   0.805  -0.651   7.884  0.5679 -0.8585 -0.1858
  165SAPE  H15R18590   0.715  -0.714   7.890 -0.6678  0.8567  0.0575
  165SAPE  C21618591   0.910  -0.694   7.985  0.2222 -0.1441  0.0613
  165SAPE  H16R18592   1.002  -0.645   7.947 -0.6178  1.7223  0.2965
  165SAPE  H16S18593   0.923  -0.804   7.983 -0.2660 -0.2638  1.7668
  165SAPE  C21718594   0.859  -0.646   8.125 -0.5123 -0.2028  0.5690
  165SAPE  H17R18595   0.760  -0.690   8.147 -1.5884  1.8535  0.0779
  165SAPE  H17S18596   0.860  -0.537   8.146 -0.1747 -0.1941  0.5244
  165SAPE  C21818597   0.935  -0.711   8.234  0.1378 -0.0021  0.5606
  165SAPE  H18R18598   1.040  -0.673   8.235  0.0986  0.1296 -0.0212
  165SAPE  H18S18599   0.941  -0.821   8.219  1.2817  0.2540 -1.0965
  165SAPE  C21918600   0.887  -0.673   8.374  0.1550 -0.1605 -0.3476
  165SAPE  H19R18601   0.777  -0.667   8.378  0.1916  0.0475  0.5409
  165SAPE  H19S18602   0.928  -0.570   8.384  0.1330 -0.2888  1.3484
  165SAPE  C22018603   0.946  -0.761   8.484 -0.6822  0.0297  0.2099
  165SAPE  H20R18604   1.055  -0.767   8.463 -0.7440 -2.9008  0.2666
  165SAPE  H20S18605   0.901  -0.863   8.482  0.8971 -0.7206 -2.5646
  165SAPE  H20T18606   0.933  -0.720   8.587 -0.7607 -1.4820  0.8257
  165SAPE   C3318607   0.970   0.054   7.173  0.1391  0.4172 -0.6752
  165SAPE   H3X18608   1.049  -0.013   7.132 -2.0452 -1.5862 -1.9150
  165SAPE   H3Y18609   0.891   0.021   7.102 -0.1538 -0.8479  0.1849
  165SAPE   C3418610   0.939   0.019   7.316  0.0739 -0.7594 -0.0622
  165SAPE   H4X18611   0.928  -0.091   7.332 -1.9088 -0.6435 -0.3397
  165SAPE   H4Y18612   0.838   0.055   7.343 -0.2909 -0.3361 -1.9042
  165SAPE   C3518613   1.045   0.067   7.416 -0.0713  0.6496 -0.1110
  165SAPE   H5X18614   1.043   0.178   7.419  1.4766  0.7726 -1.9605
  165SAPE   H5Y18615   1.145   0.047   7.372 -0.1793  0.4216 -0.2556
  165SAPE   C3618616   1.047  -0.007   7.552 -0.4571 -0.4321  0.0168
  165SAPE   H6X18617   1.095  -0.106   7.538  0.3253 -0.0116 -0.2923
  165SAPE   H6Y18618   0.945  -0.038   7.585 -0.7811  0.7588  0.1736
  165SAPE   C3718619   1.114   0.079   7.653  0.0878  0.1799 -0.7835
  165SAPE   H7X18620   1.049   0.170   7.661 -2.1599 -1.4201  0.3375
  165SAPE   H7Y18621   1.204   0.104   7.594  0.8543 -1.0739 -0.1857
  165SAPE   C3818622   1.132   0.032   7.804  0.0720  0.2014  0.2091
  165SAPE   H8X18623   1.202   0.100   7.859  2.0893 -1.6180  0.0278
  165SAPE   H8Y18624   1.186  -0.065   7.801 -1.6498 -0.7756 -0.1369
  165SAPE   C3918625   1.002   0.004   7.876 -0.2348 -0.1896  0.4439
  165SAPE   H9X18626   0.974  -0.093   7.829 -0.9365  0.2961 -0.1648
  165SAPE   H9Y18627   0.929   0.087   7.865  2.7963  2.5258 -0.8336
  165SAPE  C31018628   1.018  -0.017   8.025 -0.6888 -0.1449 -0.9397
  165SAPE  H10X18629   1.090   0.055   8.071  0.4666 -1.3056 -0.8564
  165SAPE  H10Y18630   1.062  -0.119   8.035 -0.8606 -0.1741 -0.4481
  165SAPE  C31118631   0.882  -0.010   8.096 -0.1612 -0.1505 -1.0976
  165SAPE  H11X18632   0.812  -0.068   8.032  0.2593 -1.0321 -0.7668
  165SAPE  H11Y18633   0.847   0.096   8.093  1.2100  0.3122 -1.6798
  165SAPE  C31218634   0.896  -0.071   8.232 -0.3942 -0.9327  0.3046
  165SAPE  H12X18635   0.958  -0.163   8.230  1.4650  0.2759 -1.2508
  165SAPE  H12Y18636   0.803  -0.112   8.277  0.2480 -2.5470  0.2262
  165SAPE  C31318637   0.959   0.024   8.335  0.4419  0.0935  1.1250
  165SAPE  H13X18638   0.897   0.116   8.337  0.6646  0.4007 -1.9857
  165SAPE  H13Y18639   1.065   0.036   8.305  0.0262 -1.5349 -1.2347
  165SAPE  C31418640   0.963  -0.031   8.479  0.9185  0.2496 -1.1230
  165SAPE  H14X18641   1.008  -0.132   8.472 -0.1287 -0.3617  0.4623
  165SAPE  H14Y18642   0.858  -0.031   8.516  2.3251 -2.1205  3.7354
  165SAPE  C31518643   1.046   0.056   8.574  0.0775  0.3398  0.1857
  165SAPE  H15X18644   1.141   0.075   8.520  0.3124 -0.3533  0.3437
  165SAPE  H15Y18645   1.058   0.005   8.671 -2.5250  1.0857  0.9823
  165SAPE  C31618646   0.991   0.199   8.606  0.2191 -0.0464  0.3861
  165SAPE  H16X18647   0.887   0.186   8.643  0.6126 -1.4214  1.0682
  165SAPE  H16Y18648   0.987   0.260   8.513  1.6691 -0.5657 -0.0420
  165SAPE  C31718649   1.072   0.268   8.717  0.2787 -0.6212  1.0128
  165SAPE  H17X18650   1.175   0.306   8.695 -0.3395 -0.1185 -1.2507
  165SAPE  H17Y18651   1.099   0.196   8.797 -1.7203 -1.6381  0.8332
  165SAPE  C31818652   1.005   0.393   8.777  0.2170  0.0536  0.3259
  165SAPE  H18X18653   0.990   0.483   8.714 -1.9139  1.0269  2.0666
  165SAPE  H18Y18654   1.061   0.427   8.867 -0.0974  0.5433  0.3427
  165SAPE  H18Z18655   0.900   0.369   8.805 -0.9964  1.2855 -2.7093
  166SAPE     N18656   5.720   2.726   5.941  0.1552  0.0594 -0.3071
  166SAPE   HN118657   5.795   2.681   5.997 -0.9832 -1.7218 -0.1636
  166SAPE   HN218658   5.677   2.800   6.000  0.2932 -0.7077  0.7605
  166SAPE   HN318659   5.646   2.656   5.919  2.0145 -1.6278 -1.5547
  166SAPE   C1218660   5.781   2.797   5.825  0.1672  0.8133 -0.7639
  166SAPE  H12A18661   5.726   2.892   5.808 -0.8399 -0.1037 -3.1008
  166SAPE  H12B18662   5.764   2.733   5.735  0.2967  0.3170 -0.4401
  166SAPE   C1118663   5.933   2.843   5.850  0.2748  0.7479 -0.0041
  166SAPE  H11A18664   5.967   2.882   5.752  0.0092 -0.8371 -0.7586
  166SAPE  H11B18665   5.993   2.753   5.876 -1.1152 -1.3057 -3.2922
  166SAPE     P18666   6.071   3.032   5.969 -0.0022  0.2169  0.7096
  166SAPE   O1318667   6.188   2.960   5.914 -0.5988  0.3346 -0.7519
  166SAPE   O1418668   6.024   3.164   5.907  0.2453  0.4013  0.1371
  166SAPE   O1218669   5.936   2.943   5.960  0.2704 -0.1230  0.4255
  166SAPE   O1118670   6.101   3.052   6.115 -0.2680 -0.1465 -0.0200
  166SAPE    C118671   6.068   2.959   6.217  0.2099 -1.0008  0.0751
  166SAPE    HA18672   5.959   2.940   6.211 -0.5176  2.5972 -0.8252
  166SAPE    HB18673   6.124   2.864   6.205 -0.5224 -1.4104 -0.1731
  166SAPE    C218674   6.092   3.030   6.349  0.1640 -0.3126 -0.0245
  166SAPE    HS18675   6.026   3.119   6.350 -0.4353 -0.7475 -0.3660
  166SAPE   O2118676   6.234   3.060   6.356 -0.4782 -0.2925  0.7656
  166SAPE   C2118677   6.258   3.184   6.402  0.3072 -0.0198 -0.2948
  166SAPE   O2218678   6.175   3.272   6.424 -0.3275  0.1999  0.3190
  166SAPE   C2218679   6.405   3.189   6.429 -0.3147  0.4294 -0.0142
  166SAPE   H2R18680   6.457   3.181   6.331 -0.9172 -0.4732 -0.2761
  166SAPE   H2S18681   6.432   3.287   6.472  1.4487  0.0252 -0.1249
  166SAPE    C318682   6.046   2.947   6.470  0.3818 -0.0814 -0.9651
  166SAPE    HX18683   6.116   2.860   6.472  1.6627  0.9220  0.4057
  166SAPE    HY18684   5.947   2.902   6.448 -0.6133  0.3571  2.0791
  166SAPE   O3118685   6.046   3.013   6.596  0.5787  0.0115  0.2721
  166SAPE   C3118686   5.962   3.099   6.632  0.1509  0.2952 -0.2432
  166SAPE   O3218687   5.867   3.136   6.561  0.0303  0.6427 -0.1749
  166SAPE   C3218688   5.985   3.141   6.778  0.6608 -1.0105  0.3058
  166SAPE   H2X18689   6.083   3.106   6.817  0.7287 -1.1459  0.0120
  166SAPE   H2Y18690   5.909   3.090   6.841 -1.0374  2.6964  1.5557
  166SAPE   C2318691   6.454   3.078   6.526 -0.3443  0.3904 -0.6548
  166SAPE   H3R18692   6.562   3.064   6.504  0.4038 -2.6932  3.5395
  166SAPE   H3S18693   6.400   2.985   6.496 -0.2627 -0.4805  1.6576
  166SAPE   C2418694   6.448   3.111   6.680 -0.1299 -0.1334  0.1010
  166SAPE   H4R18695   6.339   3.107   6.702 -0.5081  0.4067 -1.5427
  166SAPE   H4S18696   6.472   3.219   6.689  1.2681 -0.1438 -2.5546
  166SAPE   C2518697   6.534   3.030   6.760 -0.6606  0.2239 -1.0051
  166SAPE   H5R18698   6.641   3.047   6.745 -0.1829 -0.5298  1.1824
  166SAPE   C2618699   6.497   2.945   6.855 -0.1743  0.0836  0.0545
  166SAPE   H6R18700   6.576   2.886   6.904  0.4170 -0.8664 -1.9238
  166SAPE   C2718701   6.359   2.917   6.909 -0.1299 -0.2301  0.6597
  166SAPE   H7R18702   6.363   2.816   6.955 -0.4228 -1.0343 -0.9949
  166SAPE   H7S18703   6.277   2.927   6.835  1.2308  0.1800 -0.8389
  166SAPE   C2818704   6.333   3.009   7.020  0.8428 -0.3061  0.7222
  166SAPE   H8R18705   6.292   3.106   6.986  1.4362 -0.4587 -0.4716
  166SAPE   C2918706   6.345   2.989   7.149 -0.9097 -0.2558 -0.7656
  166SAPE   H9R18707   6.315   3.069   7.218 -2.8791 -1.5562 -0.0253
  166SAPE  C21018708   6.404   2.860   7.200  0.3697  0.0245 -0.3636
  166SAPE  H10R18709   6.493   2.825   7.144  0.7868 -0.6613  0.6919
  166SAPE  H10S18710   6.323   2.788   7.176 -0.2954  1.1729 -1.7003
  166SAPE  C21118711   6.444   2.862   7.348  0.0829  0.7507  0.2795
  166SAPE  H11R18712   6.549   2.883   7.373 -0.0491  0.6187  0.9597
  166SAPE  C21218713   6.358   2.845   7.455 -1.1997  0.0867 -0.3124
  166SAPE  H12R18714   6.404   2.855   7.554  0.9375  1.1179 -1.3387
  166SAPE  C21318715   6.216   2.819   7.461 -0.2777  0.2095 -0.3944
  166SAPE  H13R18716   6.162   2.864   7.376 -1.0759  0.1700  0.0827
  166SAPE  H13S18717   6.180   2.877   7.549  1.4185 -0.0865  0.5468
  166SAPE  C21418718   6.188   2.671   7.449 -0.5266 -0.5080  0.2471
  166SAPE  H14R18719   6.208   2.618   7.355  0.4557 -0.1875  0.2688
  166SAPE  C21518720   6.128   2.598   7.546 -0.8408  1.0399  0.3983
  166SAPE  H15R18721   6.127   2.488   7.548  2.6410  0.8332  3.9594
  166SAPE  C21618722   6.089   2.643   7.685 -0.5074  0.2748  0.6440
  166SAPE  H16R18723   5.983   2.676   7.673  0.1226  1.4462 -2.8844
  166SAPE  H16S18724   6.143   2.737   7.708 -1.2426  1.2199 -1.2298
  166SAPE  C21718725   6.098   2.543   7.795 -0.1196 -0.7785  0.4050
  166SAPE  H17R18726   6.202   2.503   7.789  0.2825  0.0307  1.6524
  166SAPE  H17S18727   6.030   2.456   7.781  0.0224 -0.8136 -0.0560
  166SAPE  C21818728   6.081   2.588   7.941 -0.0348  0.8378  0.1733
  166SAPE  H18R18729   5.975   2.594   7.974 -0.4044  2.4618 -1.1773
  166SAPE  H18S18730   6.143   2.677   7.966  1.5049 -0.1227 -0.0815
  166SAPE  C21918731   6.148   2.485   8.042 -0.5310 -0.3518  0.6764
  166SAPE  H19R18732   6.256   2.471   8.018 -0.7460 -0.4494 -0.2914
  166SAPE  H19S18733   6.097   2.389   8.019 -2.8126  0.9323 -0.0136
  166SAPE  C22018734   6.120   2.519   8.184 -0.0978 -0.3691  0.0834
  166SAPE  H20R18735   6.167   2.445   8.253 -0.2778  0.6160  1.2935
  166SAPE  H20S18736   6.011   2.511   8.201 -0.8572  1.3847 -3.1850
  166SAPE  H20T18737   6.158   2.620   8.212 -0.1461 -0.2665 -0.2095
  166SAPE   C3318738   5.982   3.301   6.809 -0.1613 -0.1342 -0.0999
  166SAPE   H3X18739   5.916   3.350   6.734 -1.4708 -1.7119 -0.0415
  166SAPE   H3Y18740   6.081   3.350   6.806 -0.5308  0.8372  1.7312
  166SAPE   C3418741   5.924   3.334   6.948 -0.2075  0.5359  0.9422
  166SAPE   H4X18742   5.825   3.284   6.948 -0.5287  1.1165 -0.5009
  166SAPE   H4Y18743   5.898   3.441   6.963  1.0682  1.4267 -2.3587
  166SAPE   C3518744   6.000   3.286   7.073 -0.0697 -0.4884  0.4263
  166SAPE   H5X18745   6.099   3.335   7.076 -0.3541  0.5369 -3.1110
  166SAPE   H5Y18746   6.011   3.176   7.080  1.9570 -0.3777 -0.3136
  166SAPE   C3618747   5.908   3.318   7.198  0.3782 -0.6460  0.2409
  166SAPE   H6X18748   5.815   3.260   7.183 -0.5992  0.4186  1.7890
  166SAPE   H6Y18749   5.888   3.428   7.201  0.3372 -0.6518  0.1830
  166SAPE   C3718750   5.970   3.274   7.335 -0.8723  0.2515  0.5642
  166SAPE   H7X18751   6.071   3.319   7.324 -0.8624  0.4284  1.3686
  166SAPE   H7Y18752   5.996   3.166   7.336  0.6750  0.3348 -4.1226
  166SAPE   C3818753   5.885   3.327   7.458  0.3081  0.6084  0.3875
  166SAPE   H8X18754   5.802   3.256   7.477  1.9971 -2.2072 -1.8875
  166SAPE   H8Y18755   5.846   3.429   7.438 -0.1138  0.8241  2.1843
  166SAPE   C3918756   5.971   3.337   7.586 -0.4782 -0.1407  0.2586
  166SAPE   H9X18757   6.065   3.394   7.574 -0.8992  0.3194 -1.0227
  166SAPE   H9Y18758   6.011   3.235   7.607 -1.3635 -0.4610  0.4578
  166SAPE  C31018759   5.890   3.391   7.703  0.4031  0.1777 -0.5155
  166SAPE  H10X18760   5.800   3.325   7.702  0.8793 -0.4747 -0.6468
  166SAPE  H10Y18761   5.862   3.495   7.675  1.5430  0.6472  0.0682
  166SAPE  C31118762   5.961   3.404   7.837 -0.2440  0.1017 -0.6271
  166SAPE  H11X18763   6.002   3.310   7.880 -1.1377  0.7480  1.8089
  166SAPE  H11Y18764   5.883   3.440   7.907  0.7713 -0.3914  0.7972
  166SAPE  C31218765   6.067   3.513   7.824  0.4763  0.4662 -0.0098
  166SAPE  H12X18766   6.014   3.601   7.782  1.6167  0.3407 -1.8297
  166SAPE  H12Y18767   6.143   3.469   7.756 -1.4447 -2.5593 -0.4171
  166SAPE  C31318768   6.133   3.545   7.955 -0.1563 -0.0479 -0.4618
  166SAPE  H13X18769   6.135   3.454   8.019 -0.1838  1.0037  1.0796
  166SAPE  H13Y18770   6.079   3.616   8.021  0.2523 -0.0402 -0.1362
  166SAPE  C31418771   6.274   3.598   7.948 -0.3934 -0.1698  0.6801
  166SAPE  H14X18772   6.266   3.697   7.898  3.4798 -0.7884 -1.5753
  166SAPE  H14Y18773   6.341   3.535   7.886 -0.9937 -0.3533  0.2053
  166SAPE  C31518774   6.336   3.627   8.086 -0.5432  0.3353 -0.2417
  166SAPE  H15X18775   6.356   3.533   8.141  0.5267  0.0090 -1.1423
  166SAPE  H15Y18776   6.263   3.671   8.158  1.1798  0.7405  1.3476
  166SAPE  C31618777   6.458   3.718   8.086  0.2068 -0.4819 -0.3634
  166SAPE  H16X18778   6.441   3.808   8.024 -1.2439 -0.9311 -0.6603
  166SAPE  H16Y18779   6.547   3.661   8.052 -0.4805 -1.9082  0.1705
  166SAPE  C31718780   6.489   3.782   8.228 -0.2788 -0.3784  0.1717
  166SAPE  H17X18781   6.406   3.853   8.244 -2.1969 -2.2785 -0.7812
  166SAPE  H17Y18782   6.583   3.838   8.210 -0.9843 -0.0278 -2.9461
  166SAPE  C31818783   6.505   3.698   8.355 -0.1536 -0.3181 -0.2172
  166SAPE  H18X18784   6.540   3.764   8.436 -1.1015 -0.2557  0.1565
  166SAPE  H18Y18785   6.582   3.620   8.338  0.6119  0.3350  0.2297
  166SAPE  H18Z18786   6.410   3.646   8.379 -0.3328  1.0342  2.2796
  167SAPE     N18787   1.032   2.924   6.095 -0.5814 -0.5196 -0.2229
  167SAPE   HN118788   1.126   2.923   6.052  0.2111 -2.3640  1.3974
  167SAPE   HN218789   1.020   3.022   6.129 -2.4660 -0.7571 -0.0546
  167SAPE   HN318790   1.037   2.882   6.190 -0.1696 -1.4262 -0.6406
  167SAPE   C1218791   0.924   2.874   6.005 -0.8536 -0.3503 -0.4217
  167SAPE  H12A18792   0.887   2.776   6.042 -0.4481 -0.1322  0.5875
  167SAPE  H12B18793   0.960   2.878   5.900 -2.3249  2.1222 -0.9139
  167SAPE   C1118794   0.816   2.983   6.008 -0.4154 -0.3440 -1.0199
  167SAPE  H11A18795   0.731   2.942   5.951 -2.5660  0.6679  1.2999
  167SAPE  H11B18796   0.839   3.082   5.962 -3.1062 -0.3824 -2.6231
  167SAPE     P18797   0.687   3.121   6.183  0.2718  0.3624 -0.5889
  167SAPE   O1318798   0.767   3.238   6.162  0.3784 -0.1731  0.5782
  167SAPE   O1418799   0.553   3.114   6.118  0.0230 -0.4259 -0.4132
  167SAPE   O1218800   0.766   2.990   6.145 -0.2606  0.6439  0.0537
  167SAPE   O1118801   0.659   3.104   6.341 -0.0129  0.1806 -0.8448
  167SAPE    C118802   0.769   3.105   6.435 -0.5464  0.6752  0.4707
  167SAPE    HA18803   0.862   3.069   6.385  1.0172  1.6657  2.5036
  167SAPE    HB18804   0.785   3.211   6.464  0.9247  0.5812  0.1192
  167SAPE    C218805   0.751   3.002   6.554  0.0548 -0.0806 -0.0344
  167SAPE    HS18806   0.710   2.906   6.516 -1.5911 -0.0717  1.6081
  167SAPE   O2118807   0.658   3.056   6.648  0.0529 -0.1396  0.2037
  167SAPE   C2118808   0.596   2.963   6.722 -0.1293 -0.1041  0.2287
  167SAPE   O2218809   0.604   2.846   6.719 -0.2990  0.9299  0.5548
  167SAPE   C2218810   0.503   3.040   6.814 -0.2791 -0.3916  0.3678
  167SAPE   H2R18811   0.441   3.094   6.739  1.2600  0.1248 -0.5823
  167SAPE   H2S18812   0.442   2.962   6.864 -2.2312  0.5407 -0.4964
  167SAPE    C318813   0.904   2.996   6.606  0.2299 -0.0098 -0.1041
  167SAPE    HX18814   0.921   3.100   6.641 -1.5857 -0.2150  1.5568
  167SAPE    HY18815   0.976   2.979   6.523  0.3728  0.0019  0.0165
  167SAPE   O3118816   0.923   2.920   6.722 -0.2826  0.1115  0.0285
  167SAPE   C3118817   0.905   2.789   6.697 -0.5705 -0.0751 -0.4368
  167SAPE   O3218818   0.903   2.738   6.586  0.3621 -0.1270 -0.5390
  167SAPE   C3218819   0.882   2.720   6.833 -0.4564  0.1790  0.3238
  167SAPE   H2X18820   0.773   2.701   6.841 -0.1723 -1.3056  1.1025
  167SAPE   H2Y18821   0.927   2.784   6.911  0.2328  1.6001 -1.1846
  167SAPE   C2318822   0.573   3.135   6.912 -0.1531 -0.3676 -0.6078
  167SAPE   H3R18823   0.491   3.196   6.957 -0.1887  1.1953 -2.6495
  167SAPE   H3S18824   0.643   3.200   6.855  0.3406 -0.7352 -0.4268
  167SAPE   C2418825   0.654   3.065   7.022  0.7358 -0.7339 -0.2753
  167SAPE   H4R18826   0.700   3.141   7.089 -0.7904  0.7518 -0.8621
  167SAPE   H4S18827   0.737   3.002   6.982  1.0752 -0.5572  0.1370
  167SAPE   C2518828   0.564   2.971   7.103  0.4986 -0.4638 -0.4019
  167SAPE   H5R18829   0.569   2.863   7.082  0.8619 -0.2569 -1.4374
  167SAPE   C2618830   0.474   3.007   7.198  0.1057 -0.2564 -0.8044
  167SAPE   H6R18831   0.409   2.932   7.245 -0.4861  0.3830 -0.5875
  167SAPE   C2718832   0.445   3.147   7.249 -0.2885  0.0051  0.4467
  167SAPE   H7R18833   0.337   3.166   7.265 -0.6158  0.6839 -2.2263
  167SAPE   H7S18834   0.472   3.223   7.173  4.5895  0.4157  2.2302
  167SAPE   C2818835   0.523   3.182   7.377  0.2539 -0.2626  0.4889
  167SAPE   H8R18836   0.619   3.129   7.389  0.4964  0.0432 -0.0287
  167SAPE   C2918837   0.506   3.284   7.454  0.2593 -0.4068 -0.2122
  167SAPE   H9R18838   0.572   3.300   7.541  0.5871  0.9035 -0.6733
  167SAPE  C21018839   0.399   3.391   7.441  0.1773 -0.9214 -0.6490
  167SAPE  H10R18840   0.374   3.400   7.333  2.6429 -0.4609 -1.2345
  167SAPE  H10S18841   0.442   3.487   7.475  0.7940 -1.2485 -0.4832
  167SAPE  C21118842   0.271   3.354   7.505 -0.5578  0.7431  0.2517
  167SAPE  H11R18843   0.266   3.248   7.534 -0.5704  1.0217  1.3014
  167SAPE  C21218844   0.161   3.427   7.519  0.9327  0.5750  0.2915
  167SAPE  H12R18845   0.069   3.384   7.562 -0.1953 -0.0200 -2.4790
  167SAPE  C21318846   0.136   3.565   7.477 -0.0899  0.2093 -0.2016
  167SAPE  H13R18847   0.222   3.632   7.498  0.1058 -0.4318  1.1328
  167SAPE  H13S18848   0.043   3.603   7.525  0.1692  1.0681 -0.3616
  167SAPE  C21418849   0.129   3.573   7.326 -0.5020 -0.5916 -0.8224
  167SAPE  H14R18850   0.212   3.521   7.275  0.4647  0.0589  0.0499
  167SAPE  C21518851   0.043   3.637   7.248 -0.1425  0.2201  0.4964
  167SAPE  H15R18852   0.051   3.609   7.141 -0.2493  0.1592  0.5042
  167SAPE  C21618853  -0.070   3.720   7.301 -0.3678  0.1376  0.4196
  167SAPE  H16R18854  -0.042   3.746   7.405 -0.8357 -0.0236  0.5888
  167SAPE  H16S18855  -0.164   3.662   7.309 -1.4972  1.8519  0.0644
  167SAPE  C21718856  -0.090   3.846   7.215  0.7880 -0.2080  0.3036
  167SAPE  H17R18857  -0.006   3.919   7.214  1.3524 -0.5810 -4.8796
  167SAPE  H17S18858  -0.179   3.900   7.253 -1.3141 -2.7895 -0.5599
  167SAPE  C21818859  -0.120   3.819   7.069  0.4850  0.5726 -0.0459
  167SAPE  H18R18860  -0.203   3.745   7.059 -0.6242  1.8471 -0.6793
  167SAPE  H18S18861  -0.034   3.784   7.009 -2.3386 -1.1989 -3.4103
  167SAPE  C21918862  -0.173   3.944   6.998  0.0397  0.1616  0.1697
  167SAPE  H19R18863  -0.099   4.024   7.016  1.1543 -0.5406 -1.1641
  167SAPE  H19S18864  -0.268   3.977   7.046 -0.3214  0.1469 -0.5184
  167SAPE  C22018865  -0.192   3.922   6.852  0.5691  0.2262  0.2683
  167SAPE  H20R18866  -0.279   3.858   6.829  1.8233 -1.3298 -0.3523
  167SAPE  H20S18867  -0.101   3.876   6.807 -1.2666 -1.1043 -2.2959
  167SAPE  H20T18868  -0.201   4.019   6.799 -0.8384  1.2648  2.2874
  167SAPE   C3318869   0.953   2.589   6.837 -0.0617  0.2519 -0.1140
  167SAPE   H3X18870   1.048   2.583   6.781 -0.1736 -0.1625 -0.2625
  167SAPE   H3Y18871   0.888   2.511   6.791  0.3465  0.2373 -0.6718
  167SAPE   C3418872   0.981   2.536   6.983 -1.0311 -1.3708 -0.0564
  167SAPE   H4X18873   1.056   2.608   7.023 -0.9381 -1.0219 -0.8366
  167SAPE   H4Y18874   1.037   2.441   6.978 -3.2554 -2.8601  1.2511
  167SAPE   C3518875   0.860   2.544   7.070  0.3268  0.2610 -0.4036
  167SAPE   H5X18876   0.785   2.474   7.027  0.4950 -1.0636  1.3511
  167SAPE   H5Y18877   0.807   2.641   7.077 -0.3566 -0.0729 -0.7532
  167SAPE   C3618878   0.888   2.503   7.211  1.2972  0.6272 -0.5736
  167SAPE   H6X18879   0.964   2.421   7.209  0.7913  0.1436 -0.0981
  167SAPE   H6Y18880   0.788   2.481   7.252 -0.7384  2.0018 -4.3293
  167SAPE   C3718881   0.933   2.618   7.301 -0.5827 -0.2164  0.1815
  167SAPE   H7X18882   0.854   2.697   7.299 -0.1250  0.3403  2.2530
  167SAPE   H7Y18883   1.024   2.659   7.253 -0.7532 -2.4349 -2.2747
  167SAPE   C3818884   0.960   2.580   7.439  0.1614  0.5546  0.5242
  167SAPE   H8X18885   1.032   2.495   7.442 -0.6527 -0.1477  0.6015
  167SAPE   H8Y18886   0.869   2.540   7.488  1.2327  0.5352  2.6245
  167SAPE   C3918887   1.010   2.688   7.537 -0.7146  0.5204  0.0469
  167SAPE   H9X18888   0.926   2.761   7.533 -1.4554 -0.3136 -0.3187
  167SAPE   H9Y18889   1.106   2.727   7.498  0.6417 -3.1057 -0.6639
  167SAPE  C31018890   1.033   2.649   7.690 -0.2934 -0.2817  0.5999
  167SAPE  H10X18891   1.081   2.738   7.735  0.6383 -0.2436 -0.4194
  167SAPE  H10Y18892   1.107   2.566   7.690  0.8439  0.6667 -1.2794
  167SAPE  C31118893   0.893   2.601   7.747 -0.0626 -0.0068  0.3480
  167SAPE  H11X18894   0.884   2.493   7.724  2.4700  0.0007 -1.0517
  167SAPE  H11Y18895   0.814   2.660   7.695  1.2635  0.4459 -1.2566
  167SAPE  C31218896   0.868   2.626   7.894 -0.5271  0.5038 -0.5730
  167SAPE  H12X18897   0.897   2.723   7.940  1.2286 -1.4331  2.7454
  167SAPE  H12Y18898   0.935   2.557   7.949  0.0805  2.1185  0.8213
  167SAPE  C31318899   0.730   2.599   7.944 -0.2539 -0.2565  0.0663
  167SAPE  H13X18900   0.667   2.674   7.892  0.7434  0.3213 -0.3369
  167SAPE  H13Y18901   0.737   2.624   8.052  0.6878  0.2378 -0.0966
  167SAPE  C31418902   0.678   2.451   7.938  0.4186 -0.2486 -1.1479
  167SAPE  H14X18903   0.753   2.382   7.984  0.4304 -0.3086 -1.2567
  167SAPE  H14Y18904   0.652   2.416   7.837 -0.7648  0.0766 -0.9647
  167SAPE  C31518905   0.544   2.447   8.021  0.2814 -0.2957 -0.3736
  167SAPE  H15X18906   0.511   2.341   8.026  1.6228 -0.6865  2.1845
  167SAPE  H15Y18907   0.469   2.520   7.984  0.1250  1.0585  2.3363
  167SAPE  C31618908   0.567   2.485   8.175 -0.1167 -0.6324 -0.1637
  167SAPE  H16X18909   0.565   2.595   8.190 -1.4645 -0.6774  0.1064
  167SAPE  H16Y18910   0.673   2.463   8.201  0.0593  1.2233  0.8462
  167SAPE  C31718911   0.478   2.415   8.271  0.2086 -0.3918  0.3628
  167SAPE  H17X18912   0.496   2.305   8.265  1.4375 -0.3691  2.4337
  167SAPE  H17Y18913   0.369   2.430   8.257  0.0908  0.3745  1.8284
  167SAPE  C31818914   0.503   2.465   8.411 -0.3275  0.5444  0.3142
  167SAPE  H18X18915   0.608   2.439   8.437  0.4489  2.2089 -0.9846
  167SAPE  H18Y18916   0.440   2.398   8.474 -0.7696  0.4346 -0.2393
  167SAPE  H18Z18917   0.484   2.573   8.427  1.0143  0.5877  1.9784
  168SAPE     N18918   2.719   4.622   6.057 -0.3235 -0.4957  0.0803
  168SAPE   HN118919   2.778   4.568   5.990 -0.5527  0.6334 -1.0608
  168SAPE   HN218920   2.644   4.554   6.077  0.3380 -2.0127 -2.1904
  168SAPE   HN318921   2.679   4.706   6.011  0.9797  0.7321  1.0829
  168SAPE   C1218922   2.809   4.643   6.167  0.0914  0.2220 -0.3029
  168SAPE  H12A18923   2.751   4.682   6.254  1.4354  0.7282  0.3979
  168SAPE  H12B18924   2.872   4.731   6.142 -2.3507  1.7152 -1.6040
  168SAPE   C1118925   2.880   4.506   6.200  0.1456  0.2065 -0.0949
  168SAPE  H11A18926   2.909   4.512   6.307 -0.2474  0.9480 -0.0210
  168SAPE  H11B18927   2.968   4.484   6.136  0.4189  0.1565  0.2961
  168SAPE     P18928   2.779   4.276   6.262  0.2683 -0.2036 -0.2342
  168SAPE   O1318929   2.690   4.174   6.200  0.3811  0.6846  0.1078
  168SAPE   O1418930   2.923   4.242   6.294  0.3088 -0.0811 -0.1083
  168SAPE   O1218931   2.788   4.401   6.174  0.4978 -0.4895 -0.4037
  168SAPE   O1118932   2.705   4.335   6.396  0.0612  0.2963  0.5176
  168SAPE    C118933   2.564   4.314   6.416 -0.2924  0.0102 -0.0279
  168SAPE    HA18934   2.528   4.390   6.488 -1.8836 -1.4048  0.7423
  168SAPE    HB18935   2.504   4.332   6.324 -0.2888  1.6118  0.2595
  168SAPE    C218936   2.528   4.167   6.470 -0.0394  0.1585  0.3024
  168SAPE    HS18937   2.537   4.105   6.378  1.0987  1.2954 -0.3859
  168SAPE   O2118938   2.391   4.152   6.521 -0.8672  0.5645 -0.1239
  168SAPE   C2118939   2.299   4.180   6.436 -0.0799  0.2537  0.3305
  168SAPE   O2218940   2.316   4.177   6.313 -0.1919  0.4615 -0.1541
  168SAPE   C2218941   2.163   4.213   6.500  0.4426  0.7769 -0.7591
  168SAPE   H2R18942   2.088   4.141   6.460  1.1399 -0.9025  0.8179
  168SAPE   H2S18943   2.176   4.187   6.607 -1.7456 -1.6034 -0.9499
  168SAPE    C318944   2.629   4.121   6.580 -0.3609  0.2208 -0.2122
  168SAPE    HX18945   2.732   4.134   6.542 -0.2252  1.5039  0.5402
  168SAPE    HY18946   2.615   4.011   6.591  2.7587 -0.0990  2.1069
  168SAPE   O3118947   2.614   4.194   6.709 -0.1445  0.4204 -0.4727
  168SAPE   C3118948   2.540   4.140   6.809 -0.5253  0.1935 -0.1289
  168SAPE   O3218949   2.482   4.031   6.803  0.5140  0.2579  0.1627
  168SAPE   C3218950   2.557   4.228   6.930  0.2269 -0.0195 -0.3331
  168SAPE   H2X18951   2.475   4.304   6.928 -0.6805 -0.9376  0.7043
  168SAPE   H2Y18952   2.652   4.283   6.916 -0.4777  1.3601  0.1165
  168SAPE   C2318953   2.116   4.351   6.484 -0.1185  0.5450  0.6250
  168SAPE   H3R18954   2.005   4.354   6.484 -0.1559  0.9143 -1.5988
  168SAPE   H3S18955   2.142   4.396   6.386 -3.2384 -0.0473 -0.6055
  168SAPE   C2418956   2.157   4.434   6.607  0.0772  0.7993  0.7433
  168SAPE   H4R18957   2.263   4.417   6.633 -0.1323  1.8792  2.4090
  168SAPE   H4S18958   2.102   4.401   6.698  0.1286 -0.0516  0.4749
  168SAPE   C2518959   2.125   4.582   6.580  0.2201  0.2282  0.2546
  168SAPE   H5R18960   2.197   4.624   6.509  1.1720 -2.9207 -0.8265
  168SAPE   C2618961   2.030   4.651   6.643  0.4098  0.4241  0.0305
  168SAPE   H6R18962   2.039   4.760   6.634  2.2574  0.2546 -0.5426
  168SAPE   C2718963   1.937   4.597   6.751 -0.1302 -0.0165 -0.0134
  168SAPE   H7R18964   1.906   4.685   6.813 -2.9102  0.2484 -1.6416
  168SAPE   H7S18965   1.998   4.532   6.818 -0.5075 -0.3865 -0.0296
  168SAPE   C2818966   1.814   4.519   6.697 -0.0560 -0.7439  0.3659
  168SAPE   H8R18967   1.821   4.491   6.591 -1.9010  0.1370 -0.0393
  168SAPE   C2918968   1.710   4.485   6.771  0.4753  0.3768  0.6974
  168SAPE   H9R18969   1.640   4.413   6.727  0.3333  1.2006 -0.4799
  168SAPE  C21018970   1.672   4.530   6.905  0.3424 -0.0921 -0.1359
  168SAPE  H10R18971   1.755   4.576   6.962  0.6551 -1.0749  0.2195
  168SAPE  H10S18972   1.647   4.440   6.966  0.2169 -0.5196 -0.8054
  168SAPE  C21118973   1.553   4.618   6.912 -0.5877 -0.3128 -1.1171
  168SAPE  H11R18974   1.517   4.658   6.816 -0.1230 -0.1952 -1.2445
  168SAPE  C21218975   1.508   4.670   7.026  0.3588  0.1065 -0.7038
  168SAPE  H12R18976   1.421   4.736   7.024 -0.9073 -1.5051 -2.2298
  168SAPE  C21318977   1.566   4.642   7.157 -0.4556  0.1977  0.1470
  168SAPE  H13R18978   1.619   4.544   7.161 -0.6790  0.1053  1.8865
  168SAPE  H13S18979   1.484   4.639   7.232 -1.6034 -0.7859 -1.1098
  168SAPE  C21418980   1.660   4.753   7.199  0.1415  0.1923  0.1089
  168SAPE  H14R18981   1.675   4.827   7.118  0.5712  1.9281  1.7114
  168SAPE  C21518982   1.720   4.771   7.320 -0.1675 -0.1318 -1.1838
  168SAPE  H15R18983   1.794   4.852   7.328  0.2980 -0.4727 -1.8956
  168SAPE  C21618984   1.709   4.684   7.441 -0.2080 -0.2803 -0.8723
  168SAPE  H16R18985   1.810   4.641   7.458 -0.5713 -0.4253  1.2036
  168SAPE  H16S18986   1.634   4.603   7.426  1.0918 -1.8159  0.4505
  168SAPE  C21718987   1.667   4.757   7.572 -0.2612  0.5456 -0.7723
  168SAPE  H17R18988   1.563   4.787   7.546 -1.2925 -3.0094 -1.2355
  168SAPE  H17S18989   1.739   4.838   7.595  2.8464 -2.5158  1.1200
  168SAPE  C21818990   1.667   4.655   7.697 -0.4101 -0.3168 -0.3443
  168SAPE  H18R18991   1.768   4.608   7.703  0.6087  1.6252 -1.3079
  168SAPE  H18S18992   1.596   4.571   7.681 -1.0155 -0.0962  1.1005
  168SAPE  C21918993   1.635   4.714   7.830  0.0048  0.8410  0.0668
  168SAPE  H19R18994   1.542   4.776   7.826  0.6845  1.8504 -0.6955
  168SAPE  H19S18995   1.723   4.778   7.852  1.0222 -0.6639  0.5424
  168SAPE  C22018996   1.613   4.615   7.943  0.2650 -0.4607  0.1519
  168SAPE  H20R18997   1.520   4.554   7.932  0.8853 -1.6603  1.2304
  168SAPE  H20S18998   1.602   4.671   8.039 -2.1005  0.9423 -0.8418
  168SAPE  H20T18999   1.700   4.547   7.952  0.9206  0.2765 -0.4453
  168SAPE   C3319000   2.575   4.156   7.068  0.0737  0.5484  0.2864
  168SAPE   H3X19001   2.660   4.086   7.080 -0.4489 -0.3580 -1.0873
  168SAPE   H3Y19002   2.483   4.098   7.090 -0.6705  1.6359  0.1270
  168SAPE   C3419003   2.591   4.248   7.192 -0.0388 -0.3385  0.5660
  168SAPE   H4X19004   2.503   4.315   7.205 -0.4863 -0.1913 -2.3589
  168SAPE   H4Y19005   2.675   4.314   7.163 -0.2052  0.7958  2.5026
  168SAPE   C3519006   2.603   4.164   7.324 -0.2019  0.0040 -0.0802
  168SAPE   H5X19007   2.698   4.109   7.313 -0.9445 -2.0610  2.6157
  168SAPE   H5Y19008   2.517   4.093   7.326  0.0415 -0.3305 -1.1837
  168SAPE   C3619009   2.603   4.233   7.458  0.8920 -0.3180  0.2809
  168SAPE   H6X19010   2.521   4.303   7.482 -0.8608 -2.6138  1.4361
  168SAPE   H6Y19011   2.694   4.296   7.460 -0.3048  1.4655  0.4602
  168SAPE   C3719012   2.607   4.130   7.575 -0.6195  0.1117  0.0757
  168SAPE   H7X19013   2.704   4.077   7.565  0.9981  2.9215 -0.2042
  168SAPE   H7Y19014   2.529   4.052   7.560 -0.3707 -0.6486  2.3566
  168SAPE   C3819015   2.603   4.189   7.714 -0.7036 -0.0806 -0.1629
  168SAPE   H8X19016   2.506   4.242   7.717  0.4029  2.0321  1.1942
  168SAPE   H8Y19017   2.685   4.265   7.723 -0.1105 -0.6602 -0.5769
  168SAPE   C3919018   2.632   4.080   7.825  0.1703  1.0754 -0.1950
  168SAPE   H9X19019   2.741   4.062   7.836  0.9672  3.9821 -2.3209
  168SAPE   H9Y19020   2.591   3.983   7.788  0.9247  0.7167 -0.1142
  168SAPE  C31019021   2.567   4.112   7.958 -0.3291  0.0546  0.1630
  168SAPE  H10X19022   2.460   4.123   7.932  0.3228  1.2703 -2.3156
  168SAPE  H10Y19023   2.613   4.202   8.005 -0.0664 -1.1255  2.2362
  168SAPE  C31119024   2.580   3.992   8.056 -0.4497 -0.1030  0.6556
  168SAPE  H11X19025   2.575   3.897   7.998 -0.4905 -0.5973  1.4504
  168SAPE  H11Y19026   2.482   3.996   8.108  0.2688 -1.4403  2.1841
  168SAPE  C31219027   2.701   3.997   8.148  0.1279  0.6202 -0.4963
  168SAPE  H12X19028   2.694   4.093   8.204 -1.6776 -0.0335  0.4844
  168SAPE  H12Y19029   2.800   3.991   8.098  1.5543  0.9936  2.0844
  168SAPE  C31319030   2.695   3.878   8.243 -0.2785  0.2514  0.3672
  168SAPE  H13X19031   2.704   3.782   8.187 -0.0946  0.1862  0.5068
  168SAPE  H13Y19032   2.595   3.892   8.288 -0.5097 -2.2083  0.7643
  168SAPE  C31419033   2.802   3.876   8.351  0.2322 -0.5315  0.3686
  168SAPE  H14X19034   2.752   3.845   8.445  0.8694  2.4390  1.7920
  168SAPE  H14Y19035   2.829   3.983   8.360  0.5039 -0.4130 -1.4769
  168SAPE  C31519036   2.916   3.785   8.311 -0.7782  0.1028 -0.3553
  168SAPE  H15X19037   2.972   3.821   8.222 -2.7591  1.3675 -1.1639
  168SAPE  H15Y19038   2.870   3.688   8.286 -0.8468  0.3705 -1.3025
  168SAPE  C31619039   3.016   3.766   8.422  0.1997 -0.0975 -0.3525
  168SAPE  H16X19040   2.947   3.761   8.509 -0.7851  0.7508 -1.0553
  168SAPE  H16Y19041   3.081   3.856   8.428 -0.5082  0.4029 -0.0690
  168SAPE  C31719042   3.108   3.648   8.416 -0.4498 -1.1020 -0.2767
  168SAPE  H17X19043   3.054   3.553   8.397 -0.7980 -0.6502 -1.7009
  168SAPE  H17Y19044   3.157   3.641   8.515 -1.9481 -3.4244  0.3873
  168SAPE  C31819045   3.203   3.661   8.301  0.0571  0.4758 -0.1144
  168SAPE  H18X19046   3.263   3.573   8.272  0.8224  0.7098  0.7196
  168SAPE  H18Y19047   3.274   3.744   8.321 -1.1597  1.5705 -0.2279
  168SAPE  H18Z19048   3.144   3.696   8.214  1.6294  0.7892 -1.0823
  169SAPE     N19049   2.199   0.030   6.074  1.2088  0.3131 -0.4370
  169SAPE   HN119050   2.219  -0.050   6.010 -1.4636 -0.8167  0.0322
  169SAPE   HN219051   2.100   0.056   6.087  1.2953  0.5569 -0.2533
  169SAPE   HN319052   2.252   0.112   6.038  2.7573 -0.9828 -1.2409
  169SAPE   C1219053   2.268  -0.001   6.206 -0.5154 -1.0518  0.2169
  169SAPE  H12A19054   2.247   0.091   6.265 -0.1752  0.6650 -2.2195
  169SAPE  H12B19055   2.378  -0.001   6.193 -0.4174 -0.7959  0.9937
  169SAPE   C1119056   2.215  -0.132   6.269  0.0663 -0.1350 -0.1104
  169SAPE  H11A19057   2.106  -0.123   6.288 -0.1473  0.6118 -1.5144
  169SAPE  H11B19058   2.261  -0.141   6.370 -0.1824  0.1510  0.0288
  169SAPE     P19059   2.375  -0.319   6.174  0.2676  0.0138 -0.3946
  169SAPE   O1319060   2.382  -0.394   6.045 -0.2515 -0.0647  0.2061
  169SAPE   O1419061   2.486  -0.229   6.198  0.0628  0.2518 -0.3876
  169SAPE   O1219062   2.239  -0.237   6.174  0.2126  0.7398 -0.0942
  169SAPE   O1119063   2.366  -0.417   6.295  0.6074 -0.0119 -0.1146
  169SAPE    C119064   2.256  -0.497   6.347  0.1352 -0.1044 -0.1388
  169SAPE    HA19065   2.170  -0.487   6.278 -0.3337  2.2126  0.7035
  169SAPE    HB19066   2.285  -0.603   6.364  0.6659 -0.1475 -1.2431
  169SAPE    C219067   2.221  -0.439   6.489 -0.8533 -1.0050 -0.0654
  169SAPE    HS19068   2.183  -0.338   6.465 -0.0898 -0.3363  1.4133
  169SAPE   O2119069   2.336  -0.431   6.581  0.1798  0.0081 -0.6603
  169SAPE   C2119070   2.344  -0.317   6.655 -0.0608 -0.1633 -0.1987
  169SAPE   O2219071   2.269  -0.220   6.634 -0.2808  0.4588  0.0605
  169SAPE   C2219072   2.452  -0.328   6.770  0.1177  0.0121  0.3420
  169SAPE   H2R19073   2.544  -0.354   6.713 -0.1196 -3.4374  1.3510
  169SAPE   H2S19074   2.457  -0.232   6.826 -1.4533  0.4296 -0.1780
  169SAPE    C319075   2.094  -0.517   6.545  0.2062  0.1878 -0.7089
  169SAPE    HX19076   2.120  -0.625   6.543 -0.2078  0.0236  1.2118
  169SAPE    HY19077   2.008  -0.504   6.475  0.0302 -1.1222 -0.7728
  169SAPE   O3119078   2.060  -0.473   6.674 -0.9198  0.3720 -0.2772
  169SAPE   C3119079   1.982  -0.363   6.679 -0.5657  0.6860  0.1387
  169SAPE   O3219080   1.943  -0.300   6.582 -0.3182 -0.2143 -0.0934
  169SAPE   C3219081   1.945  -0.335   6.827 -0.8564 -0.4834 -0.2236
  169SAPE   H2X19082   1.956  -0.432   6.879  2.0295  1.1823  2.6623
  169SAPE   H2Y19083   1.842  -0.294   6.829 -1.1147 -0.9589 -2.1691
  169SAPE   C2319084   2.429  -0.430   6.883 -0.5676  0.5095 -0.2611
  169SAPE   H3R19085   2.405  -0.527   6.836  1.0237  0.9019 -1.9762
  169SAPE   H3S19086   2.337  -0.402   6.940 -0.9114  3.5574 -2.0883
  169SAPE   C2419087   2.552  -0.448   6.974 -1.1281 -0.4485  0.1478
  169SAPE   H4R19088   2.570  -0.347   7.017 -0.6888 -0.2812 -0.4126
  169SAPE   H4S19089   2.639  -0.481   6.913 -1.2668  1.6685 -1.3355
  169SAPE   C2519090   2.527  -0.546   7.085  0.6790 -0.1113 -0.5193
  169SAPE   H5R19091   2.532  -0.653   7.059  2.1827 -0.3519  0.6188
  169SAPE   C2619092   2.501  -0.522   7.210  0.6127 -0.4349  0.7326
  169SAPE   H6R19093   2.497  -0.609   7.277 -0.7120 -0.3365  0.8111
  169SAPE   C2719094   2.487  -0.387   7.286 -0.0636 -0.5698 -0.4394
  169SAPE   H7R19095   2.493  -0.300   7.216 -1.1520 -0.8370 -0.8749
  169SAPE   H7S19096   2.566  -0.376   7.363  0.9457  1.2187 -1.6312
  169SAPE   C2819097   2.351  -0.373   7.356  0.2951 -0.3258 -0.7191
  169SAPE   H8R19098   2.263  -0.389   7.293 -1.8565 -0.0367  2.0440
  169SAPE   C2919099   2.324  -0.354   7.487 -0.3336 -0.1554  0.2745
  169SAPE   H9R19100   2.218  -0.350   7.517 -0.5591 -0.3311 -0.4684
  169SAPE  C21019101   2.419  -0.338   7.598  0.0216 -0.1992 -0.1686
  169SAPE  H10R19102   2.431  -0.232   7.630 -1.6541  0.4661 -1.5723
  169SAPE  H10S19103   2.519  -0.369   7.562  0.5142 -0.6569  1.5068
  169SAPE  C21119104   2.378  -0.425   7.719 -0.0943 -0.9799 -0.6232
  169SAPE  H11R19105   2.403  -0.531   7.707  1.8299 -0.6731  0.2132
  169SAPE  C21219106   2.323  -0.380   7.842  0.1632  0.1848  0.3314
  169SAPE  H12R19107   2.309  -0.454   7.922 -0.6702  1.1575  1.0975
  169SAPE  C21319108   2.282  -0.233   7.864 -0.3237 -0.3484  0.2780
  169SAPE  H13R19109   2.183  -0.231   7.915 -0.1308  1.0553  0.6554
  169SAPE  H13S19110   2.255  -0.185   7.768 -1.3018  0.5376  0.9718
  169SAPE  C21419111   2.397  -0.154   7.929  0.0280 -0.1231  0.0126
  169SAPE  H14R19112   2.482  -0.145   7.860 -1.4749  2.0612 -1.7026
  169SAPE  C21519113   2.401  -0.088   8.046 -0.4363  0.8665 -0.2046
  169SAPE  H15R19114   2.488  -0.027   8.074 -0.5354  1.4484 -1.1209
  169SAPE  C21619115   2.288  -0.087   8.143  0.0760  0.4990  0.3141
  169SAPE  H16R19116   2.188  -0.083   8.093  0.9715  0.2762 -1.6034
  169SAPE  H16S19117   2.301   0.009   8.196  2.1310  0.2721  0.2736
  169SAPE  C21719118   2.289  -0.201   8.243 -0.2737 -0.5579 -0.5241
  169SAPE  H17R19119   2.301  -0.298   8.190  1.1476 -1.6301  1.6031
  169SAPE  H17S19120   2.202  -0.206   8.313  0.7006 -2.4572  0.6505
  169SAPE  C21819121   2.400  -0.183   8.345 -0.3013  0.5021  0.1302
  169SAPE  H18R19122   2.392  -0.084   8.396  3.0657  0.7407  0.4516
  169SAPE  H18S19123   2.494  -0.163   8.291  0.4471  0.2105  1.2794
  169SAPE  C21919124   2.401  -0.293   8.450  0.2297  0.1164  0.6199
  169SAPE  H19R19125   2.420  -0.390   8.401  0.0271  0.5707 -0.3803
  169SAPE  H19S19126   2.297  -0.290   8.488 -0.8642 -0.9362 -2.1066
  169SAPE  C22019127   2.514  -0.270   8.557  0.2104 -0.1311  0.3160
  169SAPE  H20R19128   2.506  -0.174   8.613 -0.6759 -0.1598  0.2588
  169SAPE  H20S19129   2.612  -0.270   8.505 -0.5735  2.2177 -1.3147
  169SAPE  H20T19130   2.515  -0.359   8.624 -0.1829 -1.6549 -1.6134
  169SAPE   C3319131   2.034  -0.225   6.881  0.4338  0.3527 -0.0013
  169SAPE   H3X19132   2.027  -0.131   6.823 -1.6299  0.1398 -0.1743
  169SAPE   H3Y19133   2.134  -0.273   6.890  0.2594 -0.2790 -1.2033
  169SAPE   C3419134   1.996  -0.194   7.020  0.2799  0.0805 -0.2355
  169SAPE   H4X19135   1.911  -0.122   7.016  0.5001  0.3305 -0.4283
  169SAPE   H4Y19136   2.084  -0.143   7.066  0.1630  0.9991 -0.9886
  169SAPE   C3519137   1.967  -0.311   7.112  0.2273 -0.1334 -0.0998
  169SAPE   H5X19138   2.046  -0.389   7.108 -0.3499 -0.9004  2.1859
  169SAPE   H5Y19139   1.861  -0.344   7.099 -0.1417  1.0222 -0.1194
  169SAPE   C3619140   1.975  -0.260   7.259 -0.0213 -0.5050 -0.3509
  169SAPE   H6X19141   1.891  -0.190   7.273 -1.3659 -2.4425  2.0184
  169SAPE   H6Y19142   2.069  -0.204   7.278 -0.2265 -1.0050  2.5383
  169SAPE   C3719143   1.963  -0.373   7.365 -0.2716 -0.1445 -1.0968
  169SAPE   H7X19144   2.041  -0.451   7.351  0.5670  0.5700 -0.4905
  169SAPE   H7Y19145   1.873  -0.428   7.330  1.6344 -2.2129 -3.0543
  169SAPE   C3819146   1.953  -0.317   7.499 -0.4007 -0.4028  0.3835
  169SAPE   H8X19147   1.859  -0.259   7.504 -0.8026 -0.7523 -1.9791
  169SAPE   H8Y19148   2.034  -0.247   7.526 -1.1175  0.7811 -0.4524
  169SAPE   C3919149   1.945  -0.438   7.594  0.7009 -0.2708 -0.9845
  169SAPE   H9X19150   2.039  -0.497   7.592  0.0379 -1.3561 -1.3965
  169SAPE   H9Y19151   1.858  -0.505   7.574  0.2734 -0.8456  2.1797
  169SAPE  C31019152   1.933  -0.389   7.738 -0.5175  0.0315 -0.8898
  169SAPE  H10X19153   1.834  -0.341   7.754 -0.4149 -0.5771  2.1759
  169SAPE  H10Y19154   2.012  -0.315   7.761 -1.2242  0.5192  0.0467
  169SAPE  C31119155   1.938  -0.503   7.836 -0.9384 -0.8768 -0.3553
  169SAPE  H11X19156   2.040  -0.548   7.840 -0.4746  0.0968 -0.9813
  169SAPE  H11Y19157   1.891  -0.589   7.784  0.5504 -0.9990 -1.5746
  169SAPE  C31219158   1.888  -0.478   7.977  1.0336 -0.2864  0.6409
  169SAPE  H12X19159   1.793  -0.420   7.976  1.1600 -0.0566  1.4741
  169SAPE  H12Y19160   1.956  -0.414   8.037  0.8304 -0.3113  0.8984
  169SAPE  C31319161   1.851  -0.609   8.050 -0.2417  0.0730  0.2830
  169SAPE  H13X19162   1.940  -0.672   8.071 -0.5361 -0.1929  0.7623
  169SAPE  H13Y19163   1.776  -0.652   7.980 -0.2440 -0.6637  0.7253
  169SAPE  C31419164   1.792  -0.582   8.184  0.6222  0.0605 -0.3366
  169SAPE  H14X19165   1.687  -0.555   8.162  0.7017  0.2752 -0.4483
  169SAPE  H14Y19166   1.851  -0.505   8.238  0.7232  2.4206 -3.5223
  169SAPE  C31519167   1.792  -0.710   8.265 -0.0053 -0.3204 -0.2179
  169SAPE  H15X19168   1.886  -0.769   8.279 -0.0743 -0.8410 -1.8025
  169SAPE  H15Y19169   1.732  -0.779   8.202 -0.9294 -0.5182  0.8424
  169SAPE  C31619170   1.718  -0.707   8.399  0.4340  0.5580  0.2680
  169SAPE  H16X19171   1.644  -0.629   8.372  0.9072  1.2466  0.9330
  169SAPE  H16Y19172   1.798  -0.665   8.464  0.0382 -1.6540  2.3388
  169SAPE  C31719173   1.661  -0.847   8.442  0.6379  0.3506 -0.3183
  169SAPE  H17X19174   1.748  -0.916   8.446  0.2311 -0.2332 -1.1308
  169SAPE  H17Y19175   1.579  -0.884   8.377 -0.0313  0.9073  0.1930
  169SAPE  C31819176   1.612  -0.848   8.591 -0.4698 -0.2941 -0.9068
  169SAPE  H18X19177   1.550  -0.761   8.620 -0.3206 -0.4989  0.0714
  169SAPE  H18Y19178   1.699  -0.844   8.660 -1.2809 -1.7836  0.2558
  169SAPE  H18Z19179   1.555  -0.942   8.606  0.5554 -0.4824  2.8183
  170SAPE     N19180   1.312   4.547   6.133 -0.0934  0.5019  0.3972
  170SAPE   HN119181   1.266   4.480   6.068  1.2847  1.5547 -1.7530
  170SAPE   HN219182   1.324   4.636   6.082 -0.0229  0.4961  0.4027
  170SAPE   HN319183   1.409   4.509   6.128 -0.2325  0.3042 -3.5481
  170SAPE   C1219184   1.248   4.555   6.260 -0.1412  0.3144 -0.1373
  170SAPE  H12A19185   1.155   4.614   6.245 -0.6227 -0.2231  0.6480
  170SAPE  H12B19186   1.308   4.605   6.338 -0.7772  1.3616 -0.3057
  170SAPE   C1119187   1.193   4.407   6.298  0.8662  0.0520 -0.8132
  170SAPE  H11A19188   1.161   4.412   6.405  1.5428 -0.1050 -0.6012
  170SAPE  H11B19189   1.278   4.336   6.301 -0.3662 -1.4499  0.4263
  170SAPE     P19190   1.100   4.272   6.099 -0.0966  0.2566  0.1846
  170SAPE   O1319191   0.969   4.211   6.062  0.3629  0.3372 -0.1552
  170SAPE   O1419192   1.180   4.346   6.002 -0.2716  0.2388 -0.1468
  170SAPE   O1219193   1.076   4.363   6.221 -0.7890 -0.5187  0.0862
  170SAPE   O1119194   1.187   4.157   6.166  0.1893 -0.1149 -0.4464
  170SAPE    C119195   1.147   4.039   6.240  0.5150  0.1328  0.2908
  170SAPE    HA19196   1.037   4.036   6.247  0.5030 -0.2830 -0.0470
  170SAPE    HB19197   1.165   3.943   6.186 -2.7792 -1.1637  1.2548
  170SAPE    C219198   1.202   4.033   6.381  0.1061  0.1552 -0.6968
  170SAPE    HS19199   1.189   3.932   6.426 -1.3455  0.3898 -0.5341
  170SAPE   O2119200   1.139   4.140   6.462 -0.0905 -0.2052 -0.8081
  170SAPE   C2119201   1.016   4.108   6.505 -0.6600  0.6240  0.7011
  170SAPE   O2219202   0.959   4.001   6.483 -0.1640  0.2746 -0.6371
  170SAPE   C2219203   0.947   4.226   6.586  0.1019  0.4998  0.4438
  170SAPE   H2R19204   0.999   4.254   6.681 -1.6421 -1.0709  1.9257
  170SAPE   H2S19205   0.949   4.308   6.511  0.0763 -0.0486 -0.1594
  170SAPE    C319206   1.354   4.052   6.384  0.5099  0.1657 -1.2928
  170SAPE    HX19207   1.385   4.145   6.333 -0.6959  0.4404 -1.5506
  170SAPE    HY19208   1.400   3.966   6.331  0.1023 -1.1748  0.4225
  170SAPE   O3119209   1.408   4.040   6.519 -0.7872  0.3795 -0.1989
  170SAPE   C3119210   1.406   4.147   6.599 -0.3773 -0.4758  0.3092
  170SAPE   O3219211   1.388   4.262   6.562  0.2984  0.1731 -0.4049
  170SAPE   C3219212   1.415   4.094   6.739 -0.5179  0.8530 -0.8865
  170SAPE   H2X19213   1.432   3.984   6.744 -0.7476  0.8065 -1.1558
  170SAPE   H2Y19214   1.320   4.120   6.790 -0.0680 -1.5400  1.4086
  170SAPE   C2319215   0.800   4.200   6.622 -0.1476  0.0412 -1.1415
  170SAPE   H3R19216   0.788   4.095   6.657 -3.5341  0.5128 -0.4950
  170SAPE   H3S19217   0.732   4.216   6.535 -1.1507  1.9634 -0.0668
  170SAPE   C2419218   0.754   4.301   6.732 -0.5857  0.5904  0.3482
  170SAPE   H4R19219   0.779   4.399   6.687 -2.6034 -0.6949 -4.1803
  170SAPE   H4S19220   0.822   4.289   6.819 -0.3440 -1.3218 -0.0541
  170SAPE   C2519221   0.608   4.295   6.766  0.4926  0.3033  0.2241
  170SAPE   H5R19222   0.545   4.305   6.676  2.2942  0.8767 -1.0229
  170SAPE   C2619223   0.563   4.285   6.896  0.5850  0.6000 -0.0652
  170SAPE   H6R19224   0.454   4.285   6.912  0.4526  1.6579 -0.8814
  170SAPE   C2719225   0.644   4.272   7.021 -0.4772 -0.2003  1.1664
  170SAPE   H7R19226   0.745   4.237   6.989 -1.8210 -2.3417 -1.2204
  170SAPE   H7S19227   0.610   4.189   7.086 -0.4716 -1.1777 -0.0193
  170SAPE   C2819228   0.667   4.402   7.096  0.2218  0.0822  0.1446
  170SAPE   H8R19229   0.654   4.493   7.036  0.7565 -0.3153 -0.5710
  170SAPE   C2919230   0.665   4.417   7.227  0.1781  0.1162 -0.2071
  170SAPE   H9R19231   0.656   4.517   7.272  1.0445 -0.1934  0.7008
  170SAPE  C21019232   0.647   4.313   7.333 -0.0480  0.0741  0.1727
  170SAPE  H10R19233   0.738   4.307   7.395  1.8445  0.8361 -2.3632
  170SAPE  H10S19234   0.645   4.211   7.289  1.0252 -0.5068  1.4026
  170SAPE  C21119235   0.525   4.342   7.415  0.0633 -0.2486  0.4679
  170SAPE  H11R19236   0.434   4.322   7.357 -0.9337  1.2908  1.4114
  170SAPE  C21219237   0.513   4.393   7.538  0.7399  0.8955 -0.5320
  170SAPE  H12R19238   0.412   4.403   7.581  0.4192 -0.2836 -0.9910
  170SAPE  C21319239   0.633   4.408   7.629 -0.1238 -0.9896  0.1943
  170SAPE  H13R19240   0.637   4.509   7.677  2.7420  0.6735 -3.0984
  170SAPE  H13S19241   0.725   4.410   7.567 -1.1185  1.5484 -1.3547
  170SAPE  C21419242   0.634   4.285   7.720 -0.0752  0.1134 -0.7647
  170SAPE  H14R19243   0.662   4.189   7.672  2.2073  0.2074  0.2828
  170SAPE  C21519244   0.609   4.282   7.853 -0.7873 -0.0976  0.4413
  170SAPE  H15R19245   0.622   4.187   7.907  0.1509  0.8285  1.9235
  170SAPE  C21619246   0.573   4.395   7.949 -0.0211 -0.3220  0.0328
  170SAPE  H16R19247   0.463   4.386   7.963 -0.1885 -0.7138 -1.3786
  170SAPE  H16S19248   0.603   4.492   7.904  0.6706 -0.3771  0.3627
  170SAPE  C21719249   0.646   4.376   8.089  0.5992 -0.4875 -0.5166
  170SAPE  H17R19250   0.615   4.453   8.162  0.1097  0.4440 -1.6829
  170SAPE  H17S19251   0.757   4.377   8.080  0.8356  0.2223  1.8736
  170SAPE  C21819252   0.602   4.247   8.169 -0.5659  0.2414  0.0084
  170SAPE  H18R19253   0.676   4.259   8.251 -0.8956 -0.3364  0.3942
  170SAPE  H18S19254   0.635   4.161   8.108 -0.8846 -0.5960  0.9851
  170SAPE  C21919255   0.453   4.241   8.216  0.2539  0.1545 -0.6140
  170SAPE  H19R19256   0.373   4.237   8.139 -0.4410  0.3682  0.0761
  170SAPE  H19S19257   0.439   4.331   8.281  0.6802 -1.1082  1.3220
  170SAPE  C22019258   0.432   4.117   8.298 -0.3461  0.7197  0.3003
  170SAPE  H20R19259   0.434   4.030   8.229  0.1688  0.5454  0.5306
  170SAPE  H20S19260   0.338   4.123   8.356  0.4195 -0.0811  1.6714
  170SAPE  H20T19261   0.511   4.112   8.376 -0.4339 -2.1967  0.3115
  170SAPE   C3319262   1.512   4.160   6.834 -0.6598 -0.1452  0.1296
  170SAPE   H3X19263   1.525   4.270   6.824 -3.9686  0.5379  1.9546
  170SAPE   H3Y19264   1.607   4.107   6.810 -0.9996  0.7354 -3.8523
  170SAPE   C3419265   1.470   4.137   6.978  0.3965 -0.6414 -0.2808
  170SAPE   H4X19266   1.478   4.027   6.992 -3.3771 -0.9559  0.5402
  170SAPE   H4Y19267   1.367   4.174   6.996  0.9330  1.1306 -0.6476
  170SAPE   C3519268   1.566   4.181   7.093  0.5474 -0.2593  0.4301
  170SAPE   H5X19269   1.562   4.289   7.117  0.2103 -0.8955  3.7636
  170SAPE   H5Y19270   1.668   4.144   7.070  0.7586  0.3988  0.2826
  170SAPE   C3619271   1.528   4.130   7.238 -0.3060 -0.0433  0.0091
  170SAPE   H6X19272   1.557   4.023   7.249  1.1732  0.4640  1.5141
  170SAPE   H6Y19273   1.417   4.134   7.242 -0.4630 -3.1129  2.4967
  170SAPE   C3719274   1.595   4.200   7.356  0.5096  0.6761 -0.1035
  170SAPE   H7X19275   1.626   4.306   7.347  2.4125  0.2792  1.1700
  170SAPE   H7Y19276   1.686   4.139   7.375 -0.5058 -0.4874  1.2516
  170SAPE   C3819277   1.520   4.186   7.492 -0.4671 -0.0564  0.2768
  170SAPE   H8X19278   1.500   4.079   7.516 -2.5225 -0.1256 -1.5060
  170SAPE   H8Y19279   1.428   4.247   7.496  0.9734  2.2573  0.3176
  170SAPE   C3919280   1.608   4.239   7.604  1.0378 -0.8645  0.5677
  170SAPE   H9X19281   1.663   4.323   7.557 -3.0444  2.2605  0.8860
  170SAPE   H9Y19282   1.688   4.170   7.641  1.5621 -0.8446 -0.4953
  170SAPE  C31019283   1.520   4.286   7.732 -0.1751  0.1871 -0.9637
  170SAPE  H10X19284   1.431   4.331   7.683 -0.3201  0.2835 -0.6116
  170SAPE  H10Y19285   1.566   4.369   7.790  0.1628 -1.2486  0.9098
  170SAPE  C31119286   1.479   4.161   7.807  0.0921 -0.6276  0.0225
  170SAPE  H11X19287   1.572   4.112   7.842  0.1734 -0.3203  0.2398
  170SAPE  H11Y19288   1.431   4.087   7.739 -1.1896  1.1522 -1.0920
  170SAPE  C31219289   1.400   4.177   7.941 -0.2634 -1.1690 -0.1150
  170SAPE  H12X19290   1.304   4.230   7.928 -1.5410 -3.7100 -2.0202
  170SAPE  H12Y19291   1.480   4.239   7.987 -1.1907 -0.0337  0.0015
  170SAPE  C31319292   1.371   4.050   8.025 -0.2046 -0.5667 -0.0108
  170SAPE  H13X19293   1.454   3.976   8.014 -0.8200 -1.0397 -1.8312
  170SAPE  H13Y19294   1.283   3.995   7.987  0.7891 -1.2999 -1.3577
  170SAPE  C31419295   1.345   4.089   8.169  0.2607 -0.0270 -0.5683
  170SAPE  H14X19296   1.294   4.188   8.170 -1.6957 -0.9922  0.5849
  170SAPE  H14Y19297   1.438   4.100   8.230 -0.2995 -0.9103  0.4700
  170SAPE  C31519298   1.249   3.995   8.241 -0.3687 -0.6205  0.2131
  170SAPE  H15X19299   1.304   3.899   8.235  3.0918  1.1722  0.5406
  170SAPE  H15Y19300   1.160   3.983   8.176 -0.8886 -0.3312  0.8577
  170SAPE  C31619301   1.217   4.040   8.383  0.5170  0.3238  0.3688
  170SAPE  H16X19302   1.314   4.072   8.427  1.5347 -1.6457 -0.3292
  170SAPE  H16Y19303   1.202   3.955   8.452  0.9618  0.1597  0.2659
  170SAPE  C31719304   1.115   4.150   8.406  0.2331  0.3751 -0.1212
  170SAPE  H17X19305   1.141   4.239   8.345  1.3206  0.9792  1.1738
  170SAPE  H17Y19306   1.118   4.192   8.509 -0.3378  1.5504 -0.5633
  170SAPE  C31819307   0.966   4.107   8.392  0.3337  0.2992 -0.4611
  170SAPE  H18X19308   0.898   4.189   8.425 -1.6590 -1.3157 -0.3997
  170SAPE  H18Y19309   0.949   4.022   8.461  0.3269 -0.5831 -1.5300
  170SAPE  H18Z19310   0.939   4.072   8.291 -0.5007  0.3913 -0.2740
  171SAPE     N19311   3.510   3.687   6.269 -0.4240  0.1574 -0.0227
  171SAPE   HN119312   3.559   3.684   6.361 -1.6792 -1.5303  0.6400
  171SAPE   HN219313   3.512   3.782   6.227  0.9928 -1.2275 -3.4649
  171SAPE   HN319314   3.410   3.659   6.280  0.1817 -1.8956  0.8894
  171SAPE   C1219315   3.582   3.585   6.187 -0.5061  0.8017  0.3477
  171SAPE  H12A19316   3.545   3.578   6.083  0.7802 -0.4025 -0.0725
  171SAPE  H12B19317   3.571   3.483   6.230  0.3362  0.4304 -0.2860
  171SAPE   C1119318   3.732   3.606   6.165 -0.8840  0.1422 -0.5972
  171SAPE  H11A19319   3.766   3.708   6.135 -1.2634  0.7137  0.8393
  171SAPE  H11B19320   3.765   3.538   6.083 -2.4288  1.4945 -2.4528
  171SAPE     P19321   3.859   3.655   6.398 -0.1173 -0.0520  0.2593
  171SAPE   O1319322   3.993   3.704   6.357 -0.0651  0.0612 -0.2202
  171SAPE   O1419323   3.766   3.767   6.432  0.5348  0.2287 -0.4182
  171SAPE   O1219324   3.801   3.566   6.281  0.0049 -0.6849 -0.2200
  171SAPE   O1119325   3.875   3.554   6.516  0.2130 -0.5863  0.0668
  171SAPE    C119326   3.979   3.557   6.615 -0.1482  0.1338 -0.0420
  171SAPE    HA19327   4.005   3.664   6.635  0.6445  0.0251 -0.4525
  171SAPE    HB19328   3.943   3.518   6.713 -0.1565  1.2301  0.4145
  171SAPE    C219329   4.103   3.473   6.572  0.3182 -0.7421 -0.1697
  171SAPE    HS19330   4.149   3.508   6.477  2.6938  2.0940  1.8020
  171SAPE   O2119331   4.060   3.336   6.574 -0.6325 -0.2519  0.0366
  171SAPE   C2119332   4.097   3.258   6.467  0.4655  0.1998  0.4054
  171SAPE   O2219333   4.158   3.305   6.372 -0.1164  0.4490  0.2393
  171SAPE   C2219334   4.049   3.121   6.495 -0.0148  0.2250  0.3302
  171SAPE   H2R19335   3.975   3.126   6.577 -1.4522  0.1893 -0.9192
  171SAPE   H2S19336   3.987   3.082   6.412  0.1634  2.0224 -0.7109
  171SAPE    C319337   4.222   3.497   6.677  0.8014 -0.4237  0.6163
  171SAPE    HX19338   4.187   3.455   6.773  3.2554 -0.3656  1.6099
  171SAPE    HY19339   4.243   3.606   6.675  1.6469 -0.5760  0.4222
  171SAPE   O3119340   4.339   3.422   6.650  0.9528 -0.3849 -0.4955
  171SAPE   C3119341   4.422   3.465   6.567 -0.2771 -0.2635  0.2469
  171SAPE   O3219342   4.397   3.546   6.478 -0.1883 -0.6765  0.0518
  171SAPE   C3219343   4.553   3.387   6.587 -0.1365  0.5321  0.1455
  171SAPE   H2X19344   4.543   3.285   6.543 -1.0187 -0.6299  2.8543
  171SAPE   H2Y19345   4.566   3.371   6.696  0.3195 -0.2762 -0.0165
  171SAPE   C2319346   4.155   3.018   6.529 -0.4146  0.4141 -0.0226
  171SAPE   H3R19347   4.236   3.013   6.453 -0.3048  2.3006 -0.0866
  171SAPE   H3S19348   4.100   2.924   6.551 -1.6375  1.3520  1.1471
  171SAPE   C2419349   4.207   3.066   6.671  0.1991  0.6650  0.1304
  171SAPE   H4R19350   4.113   3.086   6.727  0.6813  0.8020  0.8914
  171SAPE   H4S19351   4.262   3.162   6.666  0.0672  0.7673  0.6032
  171SAPE   C2519352   4.284   2.967   6.745  0.2463  0.5856 -0.5523
  171SAPE   H5R19353   4.281   2.864   6.706 -0.8308  0.1470  0.6190
  171SAPE   C2619354   4.372   2.989   6.842 -0.1214 -0.2413 -0.2245
  171SAPE   H6R19355   4.431   2.905   6.883 -0.1059 -1.1457 -2.0368
  171SAPE   C2719356   4.409   3.124   6.901  0.2918 -0.0931 -0.5325
  171SAPE   H7R19357   4.380   3.121   7.008 -1.0150  1.3017 -0.8139
  171SAPE   H7S19358   4.355   3.207   6.852 -1.5811  0.0698  1.6408
  171SAPE   C2819359   4.558   3.138   6.872  0.6890 -0.6294 -0.0126
  171SAPE   H8R19360   4.598   3.085   6.784 -1.4016 -1.5714 -0.4569
  171SAPE   C2919361   4.638   3.218   6.952 -0.1308  0.1461  0.3490
  171SAPE   H9R19362   4.745   3.212   6.927 -0.5448 -0.6220 -1.4026
  171SAPE  C21019363   4.603   3.301   7.079 -0.0696  0.5544 -0.3968
  171SAPE  H10R19364   4.691   3.302   7.148 -0.2910  0.4187 -0.1105
  171SAPE  H10S19365   4.514   3.259   7.131 -0.0269  2.5514  1.4481
  171SAPE  C21119366   4.567   3.444   7.039 -1.0075 -0.4882  0.5573
  171SAPE  H11R19367   4.654   3.502   7.005 -1.1177 -1.9576 -2.5837
  171SAPE  C21219368   4.448   3.504   7.036 -0.3746 -0.4094 -0.5764
  171SAPE  H12R19369   4.437   3.606   6.996  0.6271 -0.8413 -2.0494
  171SAPE  C21319370   4.322   3.441   7.082 -0.4020  1.0126  0.8641
  171SAPE  H13R19371   4.330   3.342   7.132 -1.0997 -1.1818 -2.9949
  171SAPE  H13S19372   4.249   3.420   7.001  0.2826 -3.0381  1.0914
  171SAPE  C21419373   4.256   3.535   7.180  0.2706 -0.1306 -0.0552
  171SAPE  H14R19374   4.168   3.594   7.149  0.7646  1.8025  2.0088
  171SAPE  C21519375   4.283   3.558   7.310 -0.2219  0.4047  0.4509
  171SAPE  H15R19376   4.227   3.620   7.382 -1.1473 -2.1245  2.0503
  171SAPE  C21619377   4.400   3.497   7.384 -0.4597 -0.7695 -0.8012
  171SAPE  H16R19378   4.488   3.564   7.381 -1.2129  0.2161 -1.3861
  171SAPE  H16S19379   4.441   3.412   7.325  2.3784  0.7677 -1.2470
  171SAPE  C21719380   4.354   3.480   7.530  0.0058 -0.0071  0.4434
  171SAPE  H17R19381   4.304   3.381   7.541  0.6442 -0.4396 -0.4150
  171SAPE  H17S19382   4.283   3.559   7.563 -1.6247 -0.8838 -0.7889
  171SAPE  C21819383   4.472   3.487   7.628 -0.7532  0.4250  0.8437
  171SAPE  H18R19384   4.532   3.577   7.603 -0.1119 -0.2034  0.0904
  171SAPE  H18S19385   4.533   3.395   7.619  0.7493  1.4736 -0.1566
  171SAPE  C21919386   4.436   3.509   7.778 -0.2972  0.1853  0.0655
  171SAPE  H19R19387   4.387   3.608   7.785 -0.4786  0.2223 -1.3740
  171SAPE  H19S19388   4.533   3.519   7.832  0.1548 -2.3468 -0.1612
  171SAPE  C22019389   4.334   3.415   7.849 -0.1121  0.2580  1.4583
  171SAPE  H20R19390   4.308   3.463   7.946  0.7227 -0.1446  1.8990
  171SAPE  H20S19391   4.384   3.318   7.868 -1.7689 -0.5510  1.8750
  171SAPE  H20T19392   4.239   3.399   7.794  0.9651  3.0835 -1.5171
  171SAPE   C3319393   4.679   3.462   6.533 -0.7489  0.1691 -0.3194
  171SAPE   H3X19394   4.645   3.512   6.440  0.1162  0.8044 -0.2981
  171SAPE   H3Y19395   4.755   3.384   6.511  0.1469  0.8999  0.1611
  171SAPE   C3419396   4.752   3.563   6.622  0.8475  0.7955  0.5161
  171SAPE   H4X19397   4.860   3.563   6.598  1.4787  1.6869  3.0972
  171SAPE   H4Y19398   4.729   3.535   6.727  1.3846  1.7963  0.9119
  171SAPE   C3519399   4.693   3.704   6.611  0.1581 -0.2114 -0.3382
  171SAPE   H5X19400   4.582   3.709   6.599  0.2072  0.3834 -0.6025
  171SAPE   H5Y19401   4.722   3.749   6.514  0.7109 -0.3488 -0.2390
  171SAPE   C3619402   4.729   3.806   6.726 -0.2136 -0.0818 -0.0800
  171SAPE   H6X19403   4.699   3.906   6.689  0.5458 -0.5358 -2.0817
  171SAPE   H6Y19404   4.838   3.801   6.747  0.1669  2.3121 -1.1256
  171SAPE   C3719405   4.665   3.773   6.856  0.2268  0.4665 -0.1666
  171SAPE   H7X19406   4.717   3.680   6.888 -1.2103 -0.2182  0.2559
  171SAPE   H7Y19407   4.556   3.754   6.852 -0.1583  2.0029  1.6434
  171SAPE   C3819408   4.677   3.875   6.980 -0.3727  0.5537  0.2423
  171SAPE   H8X19409   4.596   3.950   6.967 -0.0619  1.0978  1.3324
  171SAPE   H8Y19410   4.773   3.930   6.969  0.3875 -0.8079 -0.1420
  171SAPE   C3919411   4.650   3.815   7.121 -0.3888 -0.0445  0.2032
  171SAPE   H9X19412   4.695   3.714   7.128 -0.8419 -0.1768  1.3291
  171SAPE   H9Y19413   4.541   3.798   7.133 -0.1479 -0.7987  1.4810
  171SAPE  C31019414   4.712   3.896   7.234  0.3127 -0.1157  0.7621
  171SAPE  H10X19415   4.640   3.980   7.244  0.4600  0.4261 -1.8929
  171SAPE  H10Y19416   4.807   3.944   7.204 -0.0311  0.3606  0.4173
  171SAPE  C31119417   4.734   3.819   7.361  0.0464 -0.6309 -0.0908
  171SAPE  H11X19418   4.814   3.743   7.350  0.9243  0.3514 -0.6587
  171SAPE  H11Y19419   4.637   3.772   7.390 -0.7624  1.4897  0.8756
  171SAPE  C31219420   4.785   3.903   7.480  0.1259 -0.3583  0.5633
  171SAPE  H12X19421   4.713   3.982   7.511  2.4958  1.9106  0.7073
  171SAPE  H12Y19422   4.882   3.954   7.459 -0.8970  1.1973 -0.6274
  171SAPE  C31319423   4.798   3.823   7.602 -0.2551 -0.1075  0.4305
  171SAPE  H13X19424   4.902   3.785   7.617 -0.2784  0.0989  1.1235
  171SAPE  H13Y19425   4.745   3.726   7.592 -1.3904  0.5074  0.3290
  171SAPE  C31419426   4.756   3.895   7.728 -0.4754 -0.2081  0.4066
  171SAPE  H14X19427   4.646   3.908   7.732 -0.3153  1.1456  0.8062
  171SAPE  H14Y19428   4.808   3.993   7.723  0.5240 -0.7145  0.5647
  171SAPE  C31519429   4.795   3.823   7.867  0.0937 -0.1047 -0.2988
  171SAPE  H15X19430   4.905   3.815   7.880  0.1177 -0.0600 -0.4809
  171SAPE  H15Y19431   4.763   3.717   7.857 -0.3162  0.0560 -0.6960
  171SAPE  C31619432   4.746   3.910   7.986  0.0085 -0.4419  0.1571
  171SAPE  H16X19433   4.635   3.910   7.987  0.0043 -0.2981  1.1465
  171SAPE  H16Y19434   4.774   4.015   7.961  3.0855 -1.2804 -0.3940
  171SAPE  C31719435   4.793   3.867   8.130 -0.0844  0.0592  0.3372
  171SAPE  H17X19436   4.904   3.862   8.127 -0.1353 -0.9226 -1.7368
  171SAPE  H17Y19437   4.751   3.770   8.161  2.6273 -0.2361  3.5808
  171SAPE  C31819438   4.746   3.955   8.247 -0.5328  0.6108  0.3527
  171SAPE  H18X19439   4.647   4.004   8.237  0.2324  1.7390 -2.5485
  171SAPE  H18Y19440   4.813   4.041   8.270  0.7509 -0.2714 -0.0118
  171SAPE  H18Z19441   4.744   3.899   8.343 -2.7504  2.2254  1.3599
  172SAPE     N19442   3.186   2.891   6.199  0.3862 -0.1720  0.3806
  172SAPE   HN119443   3.279   2.878   6.154 -0.5595 -0.7182 -1.5315
  172SAPE   HN219444   3.203   2.903   6.301  1.2154 -1.3400  0.4015
  172SAPE   HN319445   3.121   2.810   6.190  0.7438 -0.4712  0.4418
  172SAPE   C1219446   3.100   3.004   6.146  0.4786 -0.2177 -0.7993
  172SAPE  H12A19447   3.085   2.990   6.036  0.7959 -1.7932 -0.6595
  172SAPE  H12B19448   3.163   3.094   6.163  0.8939 -0.7964  0.7726
  172SAPE   C1119449   2.965   3.020   6.222  0.6589  0.2840  0.4065
  172SAPE  H11A19450   2.912   3.114   6.196 -2.4718 -1.0117  1.5583
  172SAPE  H11B19451   2.977   3.034   6.331  1.6587  0.6800  0.2589
  172SAPE     P19452   2.871   2.780   6.283  0.1300 -0.5611 -0.2262
  172SAPE   O1319453   2.742   2.722   6.251 -0.0407  0.5334  0.4144
  172SAPE   O1419454   3.000   2.711   6.257  0.1387  0.4179 -0.5536
  172SAPE   O1219455   2.873   2.914   6.201  0.2613  0.2358 -0.2395
  172SAPE   O1119456   2.871   2.821   6.432 -0.7092  0.1885 -0.5028
  172SAPE    C119457   2.760   2.882   6.496 -0.3864 -0.2199 -0.3906
  172SAPE    HA19458   2.731   2.984   6.465 -3.0659 -0.9456 -0.5418
  172SAPE    HB19459   2.669   2.817   6.486  0.1152 -1.0817  0.4264
  172SAPE    C219460   2.786   2.885   6.658 -1.0354  0.0870 -0.3193
  172SAPE    HS19461   2.712   2.954   6.704 -1.8508 -0.4142 -0.8542
  172SAPE   O2119462   2.919   2.924   6.674  0.8617  0.4279  0.1839
  172SAPE   C2119463   2.952   3.056   6.665 -0.0489 -0.2576 -0.2973
  172SAPE   O2219464   2.884   3.144   6.623  0.6811  0.0264  0.2303
  172SAPE   C2219465   3.085   3.077   6.723 -0.3694  0.1656  0.3043
  172SAPE   H2R19466   3.111   2.988   6.783  1.3830  0.0968 -0.4955
  172SAPE   H2S19467   3.158   3.086   6.639 -1.8954 -1.2767 -1.2501
  172SAPE    C319468   2.768   2.745   6.725 -1.0945  0.7066  0.1180
  172SAPE    HX19469   2.811   2.755   6.827  0.4613  0.9197 -0.5321
  172SAPE    HY19470   2.824   2.676   6.659 -2.4085 -0.9514  0.6629
  172SAPE   O3119471   2.639   2.690   6.710  0.3315  0.5291  0.4485
  172SAPE   C3119472   2.562   2.701   6.822  0.2287  0.6098 -0.3397
  172SAPE   O3219473   2.590   2.772   6.915  0.5436 -0.3687  0.3943
  172SAPE   C3219474   2.426   2.634   6.798 -0.1977  0.2578 -1.0522
  172SAPE   H2X19475   2.442   2.529   6.768  1.9859 -0.1000  1.0694
  172SAPE   H2Y19476   2.367   2.679   6.715 -0.3961 -0.3112 -1.2233
  172SAPE   C2319477   3.087   3.208   6.823  0.0584  0.2466  0.8033
  172SAPE   H3R19478   3.029   3.187   6.915 -0.5185 -0.2619  0.3263
  172SAPE   H3S19479   3.048   3.288   6.755 -0.7626  1.6319  2.8141
  172SAPE   C2419480   3.236   3.239   6.856  0.2745 -1.0922 -0.1590
  172SAPE   H4R19481   3.232   3.333   6.914 -0.7029 -0.5653 -1.0489
  172SAPE   H4S19482   3.289   3.266   6.762  1.1368 -1.5910  0.1749
  172SAPE   C2519483   3.307   3.132   6.932  0.1126  0.1696 -0.0616
  172SAPE   H5R19484   3.329   3.035   6.886 -0.3271 -0.3293  0.7557
  172SAPE   C2619485   3.338   3.144   7.064  0.3609 -0.1751  0.5555
  172SAPE   H6R19486   3.381   3.061   7.123  1.0316 -0.8654 -0.8677
  172SAPE   C2719487   3.304   3.268   7.141  0.1884  0.1685  0.6339
  172SAPE   H7R19488   3.195   3.259   7.157 -0.3699  0.1373 -2.5233
  172SAPE   H7S19489   3.328   3.364   7.090 -0.2967  1.8229  3.3766
  172SAPE   C2819490   3.387   3.276   7.263  0.1501  0.2434 -0.4526
  172SAPE   H8R19491   3.483   3.328   7.264  1.1623 -1.5262  0.6927
  172SAPE   C2919492   3.356   3.216   7.379  0.1622  0.1875 -0.5185
  172SAPE   H9R19493   3.414   3.214   7.472 -2.3815  0.0320  1.1691
  172SAPE  C21019494   3.233   3.122   7.403 -1.4379  0.4085 -0.0931
  172SAPE  H10R19495   3.242   3.056   7.492 -1.2504 -0.0984 -0.4867
  172SAPE  H10S19496   3.227   3.045   7.324 -0.6716 -0.7616  0.9513
  172SAPE  C21119497   3.101   3.192   7.406 -0.2941  0.0343  0.1449
  172SAPE  H11R19498   3.043   3.186   7.312 -0.9349  0.6818  0.4897
  172SAPE  C21219499   3.058   3.266   7.504 -0.3314 -0.4898 -0.1258
  172SAPE  H12R19500   2.965   3.323   7.492  0.8850  1.4518 -0.8403
  172SAPE  C21319501   3.141   3.281   7.625 -0.3334 -0.5594  0.4189
  172SAPE  H13R19502   3.139   3.387   7.659 -1.6398 -0.4180 -0.0099
  172SAPE  H13S19503   3.250   3.270   7.612  0.0595  2.3906  0.6164
  172SAPE  C21419504   3.094   3.190   7.741  1.2755 -0.2228 -0.4725
  172SAPE  H14R19505   3.038   3.101   7.709  0.9308 -0.6084  1.1009
  172SAPE  C21519506   3.098   3.211   7.877 -0.4091 -0.0123 -0.0984
  172SAPE  H15R19507   3.062   3.135   7.948  0.5238 -1.3910 -1.0446
  172SAPE  C21619508   3.166   3.337   7.938  0.4523  0.8592  0.7771
  172SAPE  H16R19509   3.219   3.391   7.857  3.5845 -1.4863  1.0795
  172SAPE  H16S19510   3.243   3.302   8.009 -0.4514 -0.5040  1.1236
  172SAPE  C21719511   3.068   3.440   7.997  0.9897 -0.1259 -0.1661
  172SAPE  H17R19512   3.001   3.471   7.914  2.1198 -0.2810 -1.1631
  172SAPE  H17S19513   3.118   3.534   8.029 -1.7245  1.0032  1.0226
  172SAPE  C21819514   2.992   3.388   8.115 -0.2216  0.4683 -0.0711
  172SAPE  H18R19515   3.050   3.400   8.209  1.8725  0.1452 -1.2536
  172SAPE  H18S19516   2.981   3.278   8.127 -0.9889  0.6656  1.1196
  172SAPE  C21919517   2.847   3.433   8.112 -0.2911 -0.5941  0.6618
  172SAPE  H19R19518   2.799   3.390   8.021  0.6473  0.3849 -0.3209
  172SAPE  H19S19519   2.854   3.544   8.110  0.9310 -0.6573  0.7856
  172SAPE  C22019520   2.774   3.392   8.237  0.0189 -0.4552  0.2415
  172SAPE  H20R19521   2.830   3.406   8.332  0.1360 -0.4516  0.1728
  172SAPE  H20S19522   2.753   3.283   8.232 -1.5749 -0.1940  0.9395
  172SAPE  H20T19523   2.683   3.455   8.236 -0.4593 -1.0091 -3.0183
  172SAPE   C3319524   2.334   2.634   6.924 -0.3942  0.2256  0.5944
  172SAPE   H3X19525   2.239   2.591   6.885 -0.2101  0.3986 -0.0501
  172SAPE   H3Y19526   2.321   2.736   6.965  0.6948  0.3017  0.7715
  172SAPE   C3419527   2.382   2.544   7.036  0.7724  0.3027  0.9579
  172SAPE   H4X19528   2.488   2.572   7.055  0.5876  1.6502  0.1744
  172SAPE   H4Y19529   2.364   2.438   7.011 -1.1112  1.0266 -1.0402
  172SAPE   C3519530   2.302   2.567   7.163 -0.3187 -0.1559 -0.2975
  172SAPE   H5X19531   2.202   2.522   7.148 -1.3809  1.6723  0.9781
  172SAPE   H5Y19532   2.294   2.676   7.187 -1.2576 -0.2799 -0.0164
  172SAPE   C3619533   2.374   2.493   7.276 -0.4697  0.5121 -0.0604
  172SAPE   H6X19534   2.483   2.514   7.263 -0.7711  2.4080  0.1192
  172SAPE   H6Y19535   2.361   2.384   7.261  0.4993  0.2699  0.7481
  172SAPE   C3719536   2.320   2.535   7.418 -0.2310 -0.2791  0.5040
  172SAPE   H7X19537   2.331   2.643   7.444  0.1418 -0.5131  1.3571
  172SAPE   H7Y19538   2.379   2.478   7.493  1.7554  1.5616  0.4463
  172SAPE   C3819539   2.176   2.504   7.445 -0.3543 -0.1119  0.0457
  172SAPE   H8X19540   2.157   2.395   7.456 -0.6375  0.0609  1.4425
  172SAPE   H8Y19541   2.108   2.541   7.365 -0.6161 -2.5197 -0.9565
  172SAPE   C3919542   2.127   2.571   7.580 -0.9121 -0.6475 -0.9236
  172SAPE   H9X19543   2.017   2.562   7.588 -0.6781 -1.5186  3.3564
  172SAPE   H9Y19544   2.157   2.678   7.575  0.8853 -1.1170 -1.2651
  172SAPE  C31019545   2.182   2.498   7.696  0.0415 -0.6372 -0.3930
  172SAPE  H10X19546   2.291   2.516   7.709 -0.4619  0.7808  3.0521
  172SAPE  H10Y19547   2.172   2.389   7.680 -0.4452 -0.7552  0.6402
  172SAPE  C31119548   2.114   2.531   7.835 -0.2318  0.0515  0.5364
  172SAPE  H11X19549   2.005   2.513   7.822 -0.0796  0.7526 -2.3492
  172SAPE  H11Y19550   2.136   2.637   7.857  2.2658 -0.4047  0.4997
  172SAPE  C31219551   2.170   2.448   7.947 -0.5308 -0.5325 -0.4285
  172SAPE  H12X19552   2.281   2.457   7.951 -0.6428  0.5610  1.3842
  172SAPE  H12Y19553   2.144   2.342   7.926  0.7522 -1.1536  0.9282
  172SAPE  C31319554   2.099   2.469   8.083 -0.1502 -0.0308 -0.4558
  172SAPE  H13X19555   1.990   2.472   8.060 -0.4293 -1.2990  0.5750
  172SAPE  H13Y19556   2.128   2.567   8.126  1.5031 -0.9537  0.6595
  172SAPE  C31419557   2.129   2.361   8.196 -0.8214 -0.8578 -0.5157
  172SAPE  H14X19558   2.237   2.378   8.217 -1.0202  0.6926 -0.6260
  172SAPE  H14Y19559   2.104   2.262   8.153 -1.0154 -0.4832 -1.2907
  172SAPE  C31519560   2.061   2.391   8.329  0.1009 -0.6052  0.5217
  172SAPE  H15X19561   1.953   2.377   8.304  0.8039 -2.5582 -1.7902
  172SAPE  H15Y19562   2.074   2.498   8.355  0.1480 -0.9720  2.0934
  172SAPE  C31619563   2.108   2.295   8.442  0.1807  0.8469  0.1159
  172SAPE  H16X19564   2.095   2.187   8.422 -0.0891  0.6051  1.4825
  172SAPE  H16Y19565   2.042   2.312   8.530  0.1557 -0.8659  0.4699
  172SAPE  C31719566   2.249   2.333   8.496 -0.4965  0.3311  0.3480
  172SAPE  H17X19567   2.235   2.434   8.539  2.3632  0.8970  0.1752
  172SAPE  H17Y19568   2.328   2.336   8.417  2.6549  0.1253  3.2694
  172SAPE  C31819569   2.312   2.246   8.602  0.0465 -0.1366  0.2191
  172SAPE  H18X19570   2.413   2.283   8.630  0.5025 -0.4522 -0.9338
  172SAPE  H18Y19571   2.318   2.145   8.557 -1.9580 -0.9361  1.5957
  172SAPE  H18Z19572   2.238   2.249   8.685  0.1301  0.0797  0.2876
  173SOPE     N19573   3.904   6.524  10.869 -0.5586 -0.1837  0.1206
  173SOPE   HN119574   3.806   6.557  10.854 -0.3908 -0.2703 -1.2993
  173SOPE   HN219575   3.974   6.599  10.855 -1.6020  1.6934  3.5726
  173SOPE   HN319576   3.914   6.447  10.801 -0.9345  0.8381 -1.1376
  173SOPE   C1219577   3.917   6.479  11.013 -0.2140 -0.3741 -0.2799
  173SOPE  H12A19578   3.851   6.392  11.032 -0.0581 -0.6058 -0.7724
  173SOPE  H12B19579   3.889   6.566  11.077 -0.7124 -0.3526 -0.5219
  173SOPE   C1119580   4.059   6.444  11.059  0.5665 -0.2381  0.7544
  173SOPE  H11A19581   4.063   6.418  11.167  1.0252  0.4810  0.9151
  173SOPE  H11B19582   4.128   6.526  11.032  0.6457 -0.9629 -1.4327
  173SOPE     P19583   4.241   6.264  11.014 -0.0895 -0.2811  0.0242
  173SOPE   O1319584   4.235   6.203  11.149 -0.0581  0.1687  0.0936
  173SOPE   O1419585   4.341   6.368  10.988  0.0891 -0.2866 -0.2408
  173SOPE   O1219586   4.090   6.324  10.985 -0.1292  0.2443 -0.6836
  173SOPE   O1119587   4.260   6.159  10.894 -0.0881  0.1352  0.2821
  173SOPE    C119588   4.305   6.180  10.763 -0.4472  0.2852  0.0688
  173SOPE    HA19589   4.356   6.085  10.734 -0.9969 -1.0348  3.0131
  173SOPE    HB19590   4.385   6.257  10.756 -0.4222  0.2457 -0.0923
  173SOPE    C219591   4.196   6.226  10.669  0.6228  0.1417  0.6696
  173SOPE    HS19592   4.167   6.322  10.716  2.6563  0.8026  0.6780
  173SOPE   O2119593   4.093   6.133  10.666 -0.3571  0.0307  1.1099
  173SOPE   C2119594   3.975   6.186  10.677  0.1870  0.2087  0.0930
  173SOPE   O2219595   3.940   6.304  10.688 -0.8455  0.1794  0.3789
  173SOPE   C2219596   3.877   6.071  10.679  0.6834  0.1168  0.5978
  173SOPE   H2R19597   3.892   6.013  10.772  0.9736  1.2319  1.2605
  173SOPE   H2S19598   3.908   6.026  10.582 -0.3749 -0.0577  0.3352
  173SOPE    C319599   4.256   6.256  10.521 -0.2142 -0.2100 -0.3252
  173SOPE    HX19600   4.301   6.164  10.479 -0.6690 -1.9180  2.6712
  173SOPE    HY19601   4.333   6.332  10.548 -0.0171 -0.5279  0.0011
  173SOPE   O3119602   4.149   6.301  10.436 -0.1162  0.1314 -0.8287
  173SOPE   C3119603   4.187   6.369  10.330 -0.2714  0.4581  0.4086
  173SOPE   O3219604   4.296   6.357  10.272  0.3872 -0.1540 -0.9950
  173SOPE   C3219605   4.072   6.457  10.283 -0.0765  0.0574 -1.1463
  173SOPE   H2X19606   4.113   6.506  10.193  1.9825  0.9895  0.2296
  173SOPE   H2Y19607   4.064   6.536  10.361 -0.2829  1.0213 -2.1135
  173SOPE   C2319608   3.729   6.120  10.679  0.7261  0.2365 -0.3168
  173SOPE   H3R19609   3.725   6.194  10.762  1.0938  0.7655 -0.7646
  173SOPE   H3S19610   3.664   6.035  10.711 -0.5884  2.0967  2.3307
  173SOPE   C2419611   3.666   6.196  10.562 -0.3008  0.0815 -0.9825
  173SOPE   H4R19612   3.557   6.198  10.588  0.2466  4.4428  2.1635
  173SOPE   H4S19613   3.686   6.302  10.539 -1.6707  0.3328 -1.1020
  173SOPE   C2519614   3.687   6.111  10.434  0.9977 -0.2022  0.3967
  173SOPE   H5R19615   3.791   6.097  10.397  0.0535  0.8893 -3.0257
  173SOPE   H5S19616   3.648   6.008  10.447 -1.6280  0.4853 -1.3978
  173SOPE   C2619617   3.608   6.181  10.317 -0.0039 -0.3536 -0.7857
  173SOPE   H6R19618   3.508   6.204  10.359  0.6396  0.6402  0.2617
  173SOPE   H6S19619   3.653   6.281  10.295 -0.3569 -0.2931 -1.2436
  173SOPE   C2719620   3.601   6.105  10.188 -0.5094  0.3163  0.3728
  173SOPE   H7R19621   3.702   6.096  10.142 -0.9181  0.1527 -0.5343
  173SOPE   H7S19622   3.581   5.998  10.210 -0.7530 -0.5308 -3.2264
  173SOPE   C2819623   3.507   6.157  10.077 -1.2000 -0.2439  1.0523
  173SOPE   H8R19624   3.512   6.268  10.078  0.8428 -0.2904  0.7547
  173SOPE   H8S19625   3.542   6.133   9.974 -2.9631 -1.2188  0.6345
  173SOPE   C2919626   3.374   6.097  10.100  0.6502  0.0582 -0.0237
  173SOPE   H9119627   3.374   5.988  10.110 -0.5717  0.0425  0.0279
  173SOPE  C21019628   3.260   6.162  10.068 -0.1294 -0.0174  0.2234
  173SOPE  H10119629   3.172   6.098  10.081  0.5550 -0.9854  0.1878
  173SOPE  C21119630   3.240   6.301  10.021  0.3872  0.4511 -0.0776
  173SOPE  H11R19631   3.320   6.368  10.056  1.2273 -1.0240  0.9443
  173SOPE  H11S19632   3.152   6.339  10.077  0.0700 -1.3216  0.6981
  173SOPE  C21219633   3.227   6.308   9.870  0.6349  0.0121 -0.1094
  173SOPE  H12R19634   3.198   6.412   9.842  0.2752 -0.5245 -1.8270
  173SOPE  H12S19635   3.133   6.254   9.845  1.0059 -0.5337 -0.3247
  173SOPE  C21319636   3.340   6.258   9.784 -0.2837  0.5239  0.0490
  173SOPE  H13R19637   3.339   6.147   9.793  1.4586  0.6590  3.1682
  173SOPE  H13S19638   3.444   6.286   9.811 -0.6702  1.4341  0.6129
  173SOPE  C21419639   3.314   6.297   9.637 -0.3981  0.5371  0.0523
  173SOPE  H14R19640   3.267   6.397   9.627 -1.4729  0.0067 -0.3909
  173SOPE  H14S19641   3.228   6.242   9.593 -0.3056  1.1807 -0.9613
  173SOPE  C21519642   3.422   6.259   9.545 -0.7602 -0.2426  0.7470
  173SOPE  H15R19643   3.415   6.152   9.518 -0.1454 -0.4329  1.3079
  173SOPE  H15S19644   3.524   6.274   9.588 -0.0766 -0.1434 -0.8330
  173SOPE  C21619645   3.427   6.362   9.433 -0.2342 -0.1810  0.8961
  173SOPE  H16R19646   3.459   6.457   9.481  1.3253 -0.5709  0.7031
  173SOPE  H16S19647   3.326   6.374   9.389  1.0049  1.5185 -1.8195
  173SOPE  C21719648   3.527   6.339   9.315 -0.3469  0.1562  0.2973
  173SOPE  H17R19649   3.527   6.233   9.280  3.1419  0.0958  0.1098
  173SOPE  H17S19650   3.628   6.352   9.360  0.3462 -0.6926 -0.9534
  173SOPE  C21819651   3.492   6.432   9.193 -0.1587  0.0544  0.0002
  173SOPE  H18R19652   3.502   6.538   9.223 -0.5649  0.7412 -2.1410
  173SOPE  H18S19653   3.385   6.423   9.163  0.8998 -1.4855 -4.0132
  173SOPE  H18T19654   3.564   6.406   9.113  0.2897 -0.5537  0.5942
  173SOPE   C3319655   3.932   6.388  10.261  0.3679  0.0965  0.7723
  173SOPE   H3X19656   3.849   6.461  10.255 -0.5254 -0.9230  0.3337
  173SOPE   H3Y19657   3.922   6.318  10.346 -0.1493  0.5536  1.0941
  173SOPE   C3419658   3.923   6.314  10.127 -0.3817  0.2400 -0.2417
  173SOPE   H4X19659   3.824   6.264  10.120  0.6103 -1.8310 -0.4496
  173SOPE   H4Y19660   3.992   6.228  10.144  0.0770  0.9232  1.6021
  173SOPE   C3519661   3.949   6.408  10.009 -0.1814  0.8049  0.4606
  173SOPE   H5X19662   4.056   6.415   9.979  0.1505 -1.3645  0.9602
  173SOPE   H5Y19663   3.911   6.508  10.037 -3.4624  0.0482 -0.8763
  173SOPE   C3619664   3.868   6.363   9.889  0.0957  0.9714  0.4781
  173SOPE   H6X19665   3.762   6.348   9.918  0.1893  1.1288  0.9134
  173SOPE   H6Y19666   3.912   6.265   9.860  0.6623  0.9199  1.4627
  173SOPE   C3719667   3.909   6.451   9.769 -0.0354  0.6597  0.2677
  173SOPE   H7X19668   4.020   6.456   9.768  0.0196 -0.2417  0.7086
  173SOPE   H7Y19669   3.853   6.546   9.778 -1.1327  0.0396  0.1333
  173SOPE   C3819670   3.859   6.393   9.638 -0.0110  0.1119  0.4375
  173SOPE   H8X19671   3.749   6.382   9.642 -0.0004  0.2100  1.2353
  173SOPE   H8Y19672   3.914   6.296   9.631  1.2004  0.6585  1.8867
  173SOPE   C3919673   3.880   6.479   9.521  0.1343  0.0583 -0.3001
  173SOPE   H9X19674   3.872   6.585   9.552 -0.6090 -0.5489  1.7193
  173SOPE   H9Y19675   3.810   6.466   9.436 -0.1372 -0.4240 -0.0067
  173SOPE  C31019676   4.027   6.467   9.461  1.0809 -0.0436  0.5474
  173SOPE  H10X19677   4.022   6.365   9.415  0.3690 -0.1241  0.7949
  173SOPE  H10Y19678   4.099   6.467   9.545  0.9138  0.2330  0.6908
  173SOPE  C31119679   4.061   6.579   9.361  0.3167 -0.5259  0.7354
  173SOPE  H11X19680   4.162   6.558   9.320 -0.5379 -1.3116 -1.0922
  173SOPE  H11Y19681   4.066   6.680   9.407  0.2456  0.4484 -1.2514
  173SOPE  C31219682   3.974   6.591   9.232 -0.4619 -0.3513  1.0497
  173SOPE  H12X19683   3.880   6.648   9.247 -0.0060  0.8392 -0.4234
  173SOPE  H12Y19684   3.957   6.493   9.183  2.0461  0.8640 -2.6939
  173SOPE  C31319685   4.040   6.667   9.111  0.2193  0.7892 -0.2536
  173SOPE  H13X19686   3.955   6.669   9.039 -1.0640  2.6657  1.2027
  173SOPE  H13Y19687   4.117   6.606   9.061  1.8096  1.4267  1.3255
  173SOPE  C31419688   4.086   6.799   9.152 -0.3368  0.1615  0.0759
  173SOPE  H14X19689   4.171   6.790   9.223 -0.4397 -0.9463  0.0830
  173SOPE  H14Y19690   4.007   6.857   9.204 -0.2662  0.2214  0.1155
  173SOPE  C31519691   4.137   6.889   9.044  0.5589  0.0364 -0.1333
  173SOPE  H15X19692   4.158   6.987   9.091  0.9875 -0.7838  1.4584
  173SOPE  H15Y19693   4.059   6.900   8.966 -1.6628 -2.7830  1.4832
  173SOPE  C31619694   4.268   6.846   8.988  0.0856  0.1137 -0.7258
  173SOPE  H16X19695   4.245   6.783   8.900  0.7270  2.2446 -2.4860
  173SOPE  H16Y19696   4.319   6.786   9.067 -1.1047  0.0959  0.0663
  173SOPE  C31719697   4.362   6.958   8.938  1.0129  0.0601 -0.4186
  173SOPE  H17X19698   4.453   6.909   8.898  1.2814  0.7637 -0.6980
  173SOPE  H17Y19699   4.396   7.026   9.019  1.5378  0.0985 -0.6651
  173SOPE  C31819700   4.299   7.047   8.828 -0.4068  0.5835  0.0065
  173SOPE  H18X19701   4.373   7.112   8.777  0.9987 -2.2309 -1.8170
  173SOPE  H18Y19702   4.206   7.099   8.858 -1.2829 -0.9772  0.0914
  173SOPE  H18Z19703   4.281   6.975   8.745  2.4241  2.6880 -2.6580
  174SOPE     N19704   1.809   4.885  10.796 -0.0632 -0.0781 -0.4988
  174SOPE   HN119705   1.867   4.971  10.798 -3.8370  2.6638  0.8562
  174SOPE   HN219706   1.745   4.897  10.716  0.0678 -0.6395 -0.6976
  174SOPE   HN319707   1.752   4.865  10.881  0.0344 -2.5961 -0.9425
  174SOPE   C1219708   1.887   4.757  10.757  0.2990  0.1412 -0.2024
  174SOPE  H12A19709   1.810   4.685  10.723  0.2097 -0.7226  1.6510
  174SOPE  H12B19710   1.943   4.722  10.847 -1.5449  0.9952  1.3433
  174SOPE   C1119711   1.996   4.782  10.650  0.4792  0.0162 -0.3465
  174SOPE  H11A19712   1.955   4.845  10.568 -0.1670 -0.1333 -0.1493
  174SOPE  H11B19713   2.027   4.681  10.616  0.4265 -0.3422  0.6546
  174SOPE     P19714   2.258   4.818  10.646 -0.2321  0.0558 -0.3676
  174SOPE   O1319715   2.310   4.683  10.674 -0.1709  0.2863  0.3334
  174SOPE   O1419716   2.350   4.936  10.671 -0.0177 -0.0294 -0.2386
  174SOPE   O1219717   2.113   4.840  10.709  0.0253  0.1501  0.0253
  174SOPE   O1119718   2.237   4.820  10.492 -0.0096 -0.2787 -0.2633
  174SOPE    C119719   2.201   4.943  10.423  0.3136 -0.5253  0.7597
  174SOPE    HA19720   2.289   5.010  10.422  0.7444 -1.0947  0.1433
  174SOPE    HB19721   2.114   4.999  10.464  1.2925  0.9785  0.8730
  174SOPE    C219722   2.172   4.913  10.272 -0.7677 -0.7134  0.2478
  174SOPE    HS19723   2.181   5.002  10.206 -1.0575 -0.0793  1.0628
  174SOPE   O2119724   2.047   4.851  10.253  0.1567 -0.1293 -0.1636
  174SOPE   C2119725   1.946   4.944  10.260  0.2744 -0.4219  0.1397
  174SOPE   O2219726   1.963   5.060  10.288  0.1358 -0.0274 -0.1003
  174SOPE   C2219727   1.818   4.882  10.203  0.1443  0.3560  0.7699
  174SOPE   H2R19728   1.741   4.889  10.282 -0.6866 -2.0040  0.2395
  174SOPE   H2S19729   1.828   4.773  10.184  0.2293  0.6662 -1.1833
  174SOPE    C319730   2.293   4.836  10.223  0.0322  0.8466  0.8240
  174SOPE    HX19731   2.289   4.738  10.274  0.0233 -0.7746 -2.1055
  174SOPE    HY19732   2.384   4.888  10.260  0.7265 -1.1125  1.9972
  174SOPE   O3119733   2.301   4.815  10.076  0.2686 -0.2498  0.3831
  174SOPE   C3119734   2.412   4.815  10.024  0.4612  0.6571  0.5651
  174SOPE   O3219735   2.522   4.845  10.073  0.8775  0.0755 -0.1400
  174SOPE   C3219736   2.414   4.753   9.888  0.5552 -0.1607  0.3932
  174SOPE   H2X19737   2.449   4.648   9.898 -2.6365 -1.5284 -1.1107
  174SOPE   H2Y19738   2.483   4.814   9.826  0.8786  0.2786  1.1780
  174SOPE   C2319739   1.775   4.959  10.081 -0.1009  0.5880  0.0763
  174SOPE   H3R19740   1.747   5.059  10.118  0.1148 -0.2475  2.7120
  174SOPE   H3S19741   1.682   4.925  10.030  1.1133 -0.2816 -1.6627
  174SOPE   C2419742   1.869   4.958   9.961  0.0716  0.2962  0.7270
  174SOPE   H4R19743   1.963   5.001  10.001  0.1449 -1.1710  2.2662
  174SOPE   H4S19744   1.903   4.858   9.926 -0.7043 -0.4325  1.9906
  174SOPE   C2519745   1.813   5.038   9.844  0.6959 -0.4373  0.0589
  174SOPE   H5R19746   1.762   4.964   9.778  0.9433 -1.7623  1.3053
  174SOPE   H5S19747   1.740   5.115   9.876 -0.9150 -2.2544  0.9535
  174SOPE   C2619748   1.923   5.092   9.760  0.1992  0.5583 -0.0593
  174SOPE   H6R19749   1.875   5.173   9.701  0.8600  0.1561 -1.1772
  174SOPE   H6S19750   2.010   5.134   9.816 -0.5500  1.1888  0.6533
  174SOPE   C2719751   1.963   4.987   9.655 -0.1321 -0.4896  0.4263
  174SOPE   H7R19752   1.988   4.893   9.708  1.6295 -0.0580  0.4155
  174SOPE   H7S19753   1.873   4.960   9.595  1.4452 -2.2231 -1.3279
  174SOPE   C2819754   2.089   5.012   9.569 -0.7976 -0.1661 -0.5578
  174SOPE   H8R19755   2.178   5.000   9.635 -0.5309 -0.4423 -0.9566
  174SOPE   H8S19756   2.098   4.919   9.507 -1.8740 -0.4034 -0.3786
  174SOPE   C2919757   2.095   5.130   9.479  0.3094 -1.2210  0.8108
  174SOPE   H9119758   2.172   5.204   9.504 -0.0715 -0.0626 -1.1465
  174SOPE  C21019759   2.032   5.143   9.358 -0.6478 -0.0264  0.0634
  174SOPE  H10119760   2.045   5.237   9.302 -0.0861 -0.4434 -0.5218
  174SOPE  C21119761   1.958   5.027   9.298 -0.0539 -0.3988 -0.2783
  174SOPE  H11R19762   1.852   5.028   9.333 -0.9380  0.3977 -2.7407
  174SOPE  H11S19763   2.002   4.930   9.327  0.1611 -0.0558  0.5778
  174SOPE  C21219764   1.950   5.026   9.144  0.3428 -0.1278 -0.3157
  174SOPE  H12R19765   1.873   5.101   9.114 -0.4695 -1.4324 -1.5938
  174SOPE  H12S19766   1.908   4.935   9.097 -3.3191  1.5672 -0.6783
  174SOPE  C21319767   2.090   5.045   9.067 -0.1071  0.0741 -0.3460
  174SOPE  H13R19768   2.150   4.955   9.090 -1.1727 -0.0881  2.2463
  174SOPE  H13S19769   2.143   5.132   9.111 -0.2513  0.3170 -0.6490
  174SOPE  C21419770   2.070   5.072   8.924 -0.5506 -0.5009  0.2898
  174SOPE  H14R19771   2.171   5.083   8.879 -1.1841  1.6458 -0.7084
  174SOPE  H14S19772   2.005   5.161   8.910 -0.3592 -0.1257  1.6982
  174SOPE  C21519773   2.004   4.957   8.846 -0.1360  0.2380 -0.2118
  174SOPE  H15R19774   2.021   4.857   8.893 -1.0547  0.1323 -0.0806
  174SOPE  H15S19775   2.054   4.949   8.748 -0.4603 -0.3992 -0.3300
  174SOPE  C21619776   1.856   4.978   8.820  0.2718 -0.1591 -0.1718
  174SOPE  H16R19777   1.838   5.087   8.816  1.1093  0.0028  0.5033
  174SOPE  H16S19778   1.795   4.941   8.905 -0.8562  0.6095 -0.6136
  174SOPE  C21719779   1.806   4.917   8.693 -1.4499 -0.3990  0.1494
  174SOPE  H17R19780   1.859   4.825   8.659 -1.8042 -0.4023 -0.4181
  174SOPE  H17S19781   1.823   4.988   8.610  3.2622  1.2210  2.2022
  174SOPE  C21819782   1.660   4.891   8.690 -0.8322  0.4654 -0.0030
  174SOPE  H18R19783   1.638   4.800   8.751  2.1515 -0.0215  0.4863
  174SOPE  H18S19784   1.625   4.871   8.586 -1.9333  3.9448 -0.4303
  174SOPE  H18T19785   1.610   4.981   8.733 -0.0820 -0.2572  2.5742
  174SOPE   C3319786   2.278   4.727   9.809  0.8024 -0.7853 -0.7921
  174SOPE   H3X19787   2.225   4.823   9.794  1.0154 -0.2052  1.7281
  174SOPE   H3Y19788   2.215   4.674   9.884 -1.3860  2.5334 -0.1033
  174SOPE   C3419789   2.292   4.646   9.689 -0.2787 -0.2069 -0.1200
  174SOPE   H4X19790   2.189   4.634   9.649  0.2298  1.3263 -2.0616
  174SOPE   H4Y19791   2.321   4.541   9.709 -2.4003 -0.7236  0.5078
  174SOPE   C3519792   2.373   4.718   9.580 -0.3873  0.0357  0.0967
  174SOPE   H5X19793   2.483   4.710   9.594 -0.3943  1.4211  1.1182
  174SOPE   H5Y19794   2.346   4.825   9.586 -1.6237 -0.2586  0.0140
  174SOPE   C3619795   2.324   4.683   9.433  0.0983 -0.4892  0.1561
  174SOPE   H6X19796   2.215   4.705   9.433  0.1152 -0.2601 -1.5461
  174SOPE   H6Y19797   2.339   4.573   9.426 -2.2288 -0.7978 -1.0124
  174SOPE   C3719798   2.394   4.755   9.316 -0.1670  0.2962 -0.6977
  174SOPE   H7X19799   2.500   4.725   9.326  0.2231  0.9832 -2.3178
  174SOPE   H7Y19800   2.377   4.865   9.304 -1.9572  0.0715 -0.5985
  174SOPE   C3819801   2.358   4.718   9.165 -0.0542 -0.3211 -0.1645
  174SOPE   H8X19802   2.262   4.765   9.137  1.3489  2.8037 -0.1409
  174SOPE   H8Y19803   2.350   4.607   9.166  3.1638 -0.6653  0.3705
  174SOPE   C3919804   2.473   4.758   9.069  0.0580  0.6721  0.9367
  174SOPE   H9X19805   2.571   4.709   9.090 -0.1443  0.3083  1.0516
  174SOPE   H9Y19806   2.494   4.865   9.087 -1.8337  0.8676  2.2330
  174SOPE  C31019807   2.439   4.748   8.926  0.3333  0.2962 -0.6713
  174SOPE  H10X19808   2.514   4.797   8.860  2.1926 -1.2715  0.1844
  174SOPE  H10Y19809   2.346   4.808   8.912 -1.2596 -1.7471  0.6072
  174SOPE  C31119810   2.414   4.605   8.878 -0.1445  0.2586 -0.0546
  174SOPE  H11X19811   2.349   4.551   8.951  1.5195 -1.1229  0.4720
  174SOPE  H11Y19812   2.512   4.554   8.865 -0.2231  0.0353  0.2227
  174SOPE  C31219813   2.339   4.608   8.744  0.4982  0.6554 -0.3339
  174SOPE  H12X19814   2.388   4.669   8.665 -0.3159  0.9992 -0.5733
  174SOPE  H12Y19815   2.239   4.648   8.772 -0.1344 -1.4632  0.6094
  174SOPE  C31319816   2.310   4.458   8.696  0.4313 -0.3001  0.0462
  174SOPE  H13X19817   2.378   4.387   8.749 -1.3955 -1.3719  1.0588
  174SOPE  H13Y19818   2.337   4.439   8.590 -2.6187 -0.6216 -0.7629
  174SOPE  C31419819   2.164   4.413   8.730 -0.5869 -0.6441 -0.3997
  174SOPE  H14X19820   2.087   4.472   8.676 -0.4131  0.0411  0.0864
  174SOPE  H14Y19821   2.156   4.429   8.839  1.3885  0.5397 -0.3806
  174SOPE  C31519822   2.144   4.272   8.682 -0.5801 -0.0434 -0.2524
  174SOPE  H15X19823   2.216   4.203   8.731 -0.1686 -0.5232 -1.4904
  174SOPE  H15Y19824   2.169   4.266   8.574 -0.2681  1.3048 -0.2721
  174SOPE  C31619825   2.003   4.232   8.706  0.7829 -0.3228  0.0620
  174SOPE  H16X19826   1.933   4.302   8.656 -0.7711 -2.2181 -0.5598
  174SOPE  H16Y19827   1.995   4.237   8.816  3.4187 -1.1388  0.3467
  174SOPE  C31719828   1.968   4.087   8.678  0.1275 -0.2186  0.0012
  174SOPE  H17X19829   2.019   4.052   8.586 -0.9748  2.1925 -1.6326
  174SOPE  H17Y19830   1.859   4.087   8.656  0.2840  2.2863 -1.1211
  174SOPE  C31819831   1.986   3.990   8.801  0.0497  0.1658 -0.0378
  174SOPE  H18X19832   1.904   4.017   8.871  0.3082  0.0644  0.3070
  174SOPE  H18Y19833   2.081   4.026   8.847 -0.1960  0.8851 -0.0698
  174SOPE  H18Z19834   1.986   3.882   8.776 -0.9859  0.2241 -0.3304
  175SOPE     N19835   0.264   6.733  10.721 -0.2820  0.3805 -0.5961
  175SOPE   HN119836   0.346   6.718  10.660  0.6947  4.3509 -0.5227
  175SOPE   HN219837   0.258   6.836  10.729 -0.6948  0.4219 -1.3870
  175SOPE   HN319838   0.266   6.695  10.818 -2.6207 -0.5654 -0.8332
  175SOPE   C1219839   0.125   6.694  10.674  0.4561 -0.8383  0.5642
  175SOPE  H12A19840   0.123   6.587  10.646 -1.4969 -0.5193 -0.7265
  175SOPE  H12B19841   0.116   6.762  10.587 -0.5762 -0.2029  1.1466
  175SOPE   C1119842   0.020   6.724  10.777  0.1427 -0.5348  0.0487
  175SOPE  H11A19843   0.025   6.644  10.853  2.0752 -0.7531 -0.2661
  175SOPE  H11B19844  -0.078   6.720  10.724  0.2751  0.4703 -0.2991
  175SOPE     P19845  -0.024   6.983  10.786 -0.3899  0.3210  0.2768
  175SOPE   O1319846   0.015   7.086  10.879 -0.3014 -0.2591  0.2056
  175SOPE   O1419847  -0.169   6.984  10.751  0.0556 -0.3343  0.3871
  175SOPE   O1219848   0.029   6.848  10.846  0.5074  0.7699 -0.1090
  175SOPE   O1119849   0.059   7.001  10.655 -0.0344 -0.8492  0.2634
  175SOPE    C119850   0.016   7.101  10.563  0.2441 -0.2782  0.3281
  175SOPE    HA19851   0.012   7.206  10.599 -1.2655 -0.8979  2.1562
  175SOPE    HB19852  -0.087   7.075  10.529  0.8550  1.1838 -3.0704
  175SOPE    C219853   0.101   7.101  10.434  0.2353  0.1348 -0.2888
  175SOPE    HS19854   0.089   6.998  10.392 -1.1264 -0.1393  0.7214
  175SOPE   O2119855   0.238   7.139  10.463  0.6621 -0.0531 -0.3625
  175SOPE   C2119856   0.315   7.035  10.497 -0.0007 -0.2252 -0.3542
  175SOPE   O2219857   0.285   6.917  10.502  0.0820  0.1913  0.0904
  175SOPE   C2219858   0.447   7.078  10.550 -0.1319  0.7371 -0.3893
  175SOPE   H2R19859   0.451   7.024  10.648 -0.5045  2.1724  0.4476
  175SOPE   H2S19860   0.451   7.186  10.575  1.0324  0.9627 -1.4646
  175SOPE    C319861   0.041   7.200  10.328  0.1613 -0.1086 -0.0901
  175SOPE    HX19862   0.059   7.296  10.381  2.1610 -0.3765 -0.1728
  175SOPE    HY19863  -0.069   7.190  10.320  0.3135 -0.8002 -1.6249
  175SOPE   O3119864   0.104   7.191  10.199  0.0075 -0.0338 -0.5310
  175SOPE   C3119865   0.079   7.290  10.125 -0.3860  0.1075  1.0420
  175SOPE   O3219866  -0.020   7.358  10.133  0.0976  0.5532  0.1870
  175SOPE   C3219867   0.188   7.310  10.021  0.2460 -0.6028 -0.3982
  175SOPE   H2X19868   0.200   7.223   9.952 -1.6168 -0.4899 -0.9079
  175SOPE   H2Y19869   0.284   7.344  10.066  1.2105  0.3262 -2.9339
  175SOPE   C2319870   0.568   7.037  10.461 -0.0067 -0.2532 -0.0079
  175SOPE   H3R19871   0.575   6.926  10.454 -1.3207 -0.3412 -0.1331
  175SOPE   H3S19872   0.654   7.082  10.515  1.0401 -1.6086 -0.4795
  175SOPE   C2419873   0.568   7.112  10.327  0.6345  0.6709 -0.3288
  175SOPE   H4R19874   0.519   7.211  10.337  0.0052  0.4888 -1.4697
  175SOPE   H4S19875   0.673   7.137  10.298  1.0228  0.9995  1.2410
  175SOPE   C2519876   0.499   7.035  10.217  0.0860  0.3759 -0.3750
  175SOPE   H5R19877   0.532   6.929  10.215 -1.4144 -0.1240 -0.4791
  175SOPE   H5S19878   0.389   7.028  10.234  0.2615 -1.2579  0.3614
  175SOPE   C2619879   0.532   7.090  10.087  0.0890 -0.1394 -0.1745
  175SOPE   H6R19880   0.528   7.199  10.104 -0.9008 -0.5218  2.5841
  175SOPE   H6S19881   0.638   7.059  10.069  0.1859  0.0217  0.1139
  175SOPE   C2719882   0.444   7.052   9.965 -0.4140  0.2219 -0.1333
  175SOPE   H7R19883   0.468   6.945   9.948 -0.6928 -0.3938  2.7751
  175SOPE   H7S19884   0.337   7.060   9.993 -0.6387  0.7791 -1.1054
  175SOPE   C2819885   0.478   7.136   9.840  0.5122  0.3641 -0.6097
  175SOPE   H8R19886   0.390   7.140   9.772  0.6579  3.4198 -0.7471
  175SOPE   H8S19887   0.501   7.238   9.876  0.2240  0.2534 -0.1027
  175SOPE   C2919888   0.604   7.088   9.773  0.1627  0.8463  0.2510
  175SOPE   H9119889   0.649   6.996   9.813 -1.2401 -0.9434 -1.9950
  175SOPE  C21019890   0.649   7.152   9.668 -0.1732 -0.4760  0.4612
  175SOPE  H10119891   0.738   7.120   9.612  0.9460  2.4279  0.3903
  175SOPE  C21119892   0.582   7.274   9.613  0.3603  0.5290  0.0333
  175SOPE  H11R19893   0.594   7.366   9.675 -0.1037  2.7221 -2.9227
  175SOPE  H11S19894   0.472   7.270   9.602 -0.0604  2.2103  2.6175
  175SOPE  C21219895   0.633   7.314   9.474  0.3744  0.3600 -0.4109
  175SOPE  H12R19896   0.736   7.355   9.471  0.3337  0.6567  1.4608
  175SOPE  H12S19897   0.567   7.392   9.430 -1.1395 -0.3654  0.4972
  175SOPE  C21319898   0.627   7.201   9.369 -0.5229 -0.4389 -0.3737
  175SOPE  H13R19899   0.525   7.159   9.382 -0.7373  0.2387  0.2237
  175SOPE  H13S19900   0.701   7.120   9.388  0.2845  0.8145  2.5202
  175SOPE  C21419901   0.636   7.254   9.225 -0.6489  0.0551  0.1694
  175SOPE  H14R19902   0.731   7.310   9.210 -0.5030 -0.4545 -0.9509
  175SOPE  H14S19903   0.548   7.321   9.213 -0.6180 -0.1756 -1.7175
  175SOPE  C21519904   0.630   7.148   9.118 -0.7400 -0.3178  0.0711
  175SOPE  H15R19905   0.525   7.114   9.117 -1.3153  1.3517 -0.2626
  175SOPE  H15S19906   0.699   7.063   9.135 -0.2952  0.5021  3.0700
  175SOPE  C21619907   0.670   7.207   8.978  0.2496 -0.7937  0.2159
  175SOPE  H16R19908   0.778   7.232   8.979 -0.4152  2.4768  1.3548
  175SOPE  H16S19909   0.615   7.303   8.964  2.3208  0.4411  0.1556
  175SOPE  C21719910   0.628   7.113   8.863 -0.4705  0.3254 -0.3665
  175SOPE  H17R19911   0.526   7.075   8.883  0.5076 -2.8417 -0.8904
  175SOPE  H17S19912   0.693   7.024   8.854 -0.0838  0.6675 -1.0730
  175SOPE  C21819913   0.636   7.177   8.725  0.3218  0.3255  0.5123
  175SOPE  H18R19914   0.611   7.098   8.651  1.4844 -0.0291  0.4742
  175SOPE  H18S19915   0.737   7.210   8.693  1.6406 -1.3987  2.5708
  175SOPE  H18T19916   0.568   7.263   8.709  1.5284  1.2452  0.1291
  175SOPE   C3319917   0.140   7.426   9.932 -0.0289  0.2287  0.0170
  175SOPE   H3X19918   0.229   7.444   9.869 -0.3641 -0.6998 -0.7500
  175SOPE   H3Y19919   0.124   7.524   9.983  2.7998  2.3256 -2.7480
  175SOPE   C3419920   0.019   7.399   9.845  0.0368  1.0043  0.0133
  175SOPE   H4X19921  -0.068   7.464   9.870 -0.6282  0.6992 -1.3913
  175SOPE   H4Y19922  -0.013   7.293   9.861 -0.0290  0.9925 -0.1909
  175SOPE   C3519923   0.053   7.410   9.696 -0.4595 -0.2117 -0.3275
  175SOPE   H5X19924  -0.027   7.363   9.634  0.5408 -0.2636 -1.6227
  175SOPE   H5Y19925   0.150   7.357   9.686  0.7729  1.9078 -0.2095
  175SOPE   C3619926   0.069   7.553   9.648  0.2893  0.5501 -0.3835
  175SOPE   H6X19927   0.127   7.612   9.722 -0.4542 -1.7574  2.2110
  175SOPE   H6Y19928  -0.029   7.606   9.647 -0.1048 -0.1501  0.0421
  175SOPE   C3719929   0.122   7.578   9.507 -0.2435  0.3553 -0.4371
  175SOPE   H7X19930   0.230   7.560   9.520 -0.7414 -2.3863  0.6155
  175SOPE   H7Y19931   0.095   7.679   9.471 -0.0507  0.1117 -1.2796
  175SOPE   C3819932   0.070   7.474   9.412 -0.4079 -0.1449  1.2949
  175SOPE   H8X19933  -0.040   7.493   9.412 -0.1242  1.6394  0.7773
  175SOPE   H8Y19934   0.086   7.372   9.455  0.4215 -1.9022 -2.7405
  175SOPE   C3919935   0.119   7.482   9.263  1.2097  0.2910 -0.5438
  175SOPE   H9X19936   0.204   7.410   9.264 -0.2043 -1.6046  2.9160
  175SOPE   H9Y19937   0.148   7.588   9.256 -1.2098  1.1086  0.6133
  175SOPE  C31019938   0.012   7.440   9.166  0.8945 -0.1476 -0.2804
  175SOPE  H10X19939  -0.073   7.509   9.184  0.4940 -0.9007  0.8529
  175SOPE  H10Y19940  -0.015   7.332   9.174 -0.4155  0.0930 -1.1256
  175SOPE  C31119941   0.047   7.464   9.016  0.6817  0.1320  0.3105
  175SOPE  H11X19942   0.099   7.561   9.004 -0.8881  0.8114 -1.4880
  175SOPE  H11Y19943  -0.042   7.474   8.949  2.2887 -0.2657 -1.9878
  175SOPE  C31219944   0.148   7.370   8.953 -0.2275  0.3865 -0.2325
  175SOPE  H12X19945   0.104   7.268   8.947  0.0410  0.2223  0.5220
  175SOPE  H12Y19946   0.244   7.356   9.006 -0.1606 -3.1171 -1.0186
  175SOPE  C31319947   0.172   7.412   8.813  0.1953  0.9022 -0.0939
  175SOPE  H13X19948   0.235   7.503   8.823 -1.0844  1.6426  1.6307
  175SOPE  H13Y19949   0.084   7.436   8.750 -1.3145 -2.2451  0.6702
  175SOPE  C31419950   0.237   7.303   8.725 -0.1217  0.6444 -0.2149
  175SOPE  H14X19951   0.174   7.212   8.718 -0.3378  0.4274  3.1010
  175SOPE  H14Y19952   0.334   7.277   8.772  0.6093  0.2065 -1.8718
  175SOPE  C31519953   0.278   7.352   8.590 -1.0738  0.0335  0.4050
  175SOPE  H15X19954   0.371   7.295   8.571 -0.6535  0.7913  0.1183
  175SOPE  H15Y19955   0.296   7.461   8.603 -0.1279 -0.2791  2.0895
  175SOPE  C31619956   0.176   7.329   8.470 -0.2207 -0.4698 -0.1003
  175SOPE  H16X19957   0.200   7.371   8.371  0.5500 -0.2813  0.1584
  175SOPE  H16Y19958   0.078   7.374   8.498 -0.3991 -0.8786 -0.0560
  175SOPE  C31719959   0.148   7.180   8.449 -0.5484 -1.0118  0.5939
  175SOPE  H17X19960   0.079   7.143   8.528 -1.3880 -0.5436  0.0974
  175SOPE  H17Y19961   0.245   7.134   8.475  0.8204  2.1145  1.4777
  175SOPE  C31819962   0.100   7.132   8.308  0.0587  0.3010 -0.4103
  175SOPE  H18X19963  -0.005   7.168   8.303 -0.5908 -1.0098  2.2331
  175SOPE  H18Y19964   0.105   7.023   8.291 -0.4498  0.5610 -2.5161
  175SOPE  H18Z19965   0.157   7.172   8.222  0.3801  0.5762 -0.0719
  176SOPE     N19966   6.527   1.067  10.666 -0.2786  0.0708  0.1333
  176SOPE   HN119967   6.555   1.021  10.755  1.2917  0.2417 -0.2386
  176SOPE   HN219968   6.586   1.152  10.662  1.9204 -1.3388  0.4739
  176SOPE   HN319969   6.425   1.087  10.670 -0.5129 -1.2654  2.3021
  176SOPE   C1219970   6.563   0.969  10.552 -0.2205 -0.1141 -0.2847
  176SOPE  H12A19971   6.632   1.025  10.485 -0.7825  0.1593 -0.6432
  176SOPE  H12B19972   6.474   0.949  10.490 -0.1927  1.4706 -0.8834
  176SOPE   C1119973   6.641   0.842  10.601  0.2443 -0.3322  0.1490
  176SOPE  H11A19974   6.685   0.801  10.507 -0.4734  0.9459 -0.7737
  176SOPE  H11B19975   6.579   0.770  10.658 -0.6044  0.2818  0.0200
  176SOPE     P19976   6.889   0.952  10.655  0.0825  0.3114 -0.8668
  176SOPE   O1319977   6.983   0.918  10.767  0.1141  0.0720  0.2662
  176SOPE   O1419978   6.868   1.095  10.652 -0.3120 -1.1399  0.0239
  176SOPE   O1219979   6.743   0.889  10.687 -0.3777  0.0584 -0.9597
  176SOPE   O1119980   6.926   0.901  10.520 -0.0520 -0.0536  0.2298
  176SOPE    C119981   6.977   0.773  10.507  0.1437  0.6620 -0.1823
  176SOPE    HA19982   6.898   0.696  10.494  0.3850  0.3193  0.3632
  176SOPE    HB19983   7.037   0.747  10.597 -1.1366  1.4604  0.9220
  176SOPE    C219984   7.064   0.767  10.377  0.8570  0.4355  0.2001
  176SOPE    HS19985   7.135   0.852  10.387 -0.8028  1.7425  1.5300
  176SOPE   O2119986   6.968   0.778  10.264 -0.0754  0.2204 -0.3340
  176SOPE   C2119987   6.954   0.905  10.217 -1.0479  0.1882  0.4932
  176SOPE   O2219988   7.047   0.986  10.208 -0.2275  0.0679 -0.3025
  176SOPE   C2219989   6.804   0.915  10.172  0.3424  0.7859  0.2745
  176SOPE   H2R19990   6.753   0.918  10.271  0.9005 -0.8503  0.6442
  176SOPE   H2S19991   6.783   0.822  10.116  2.4535 -1.7865  3.3573
  176SOPE    C319992   7.145   0.635  10.369  0.7625 -0.2809  0.6713
  176SOPE    HX19993   7.075   0.549  10.366 -0.2498  0.5313 -1.6040
  176SOPE    HY19994   7.214   0.621  10.455  0.4928 -3.5821  0.4543
  176SOPE   O3119995   7.217   0.630  10.242 -0.7016  0.0291  0.1508
  176SOPE   C3119996   7.325   0.711  10.242  0.6351 -0.4141 -0.3081
  176SOPE   O3219997   7.361   0.775  10.339  0.2309 -0.1926  0.4331
  176SOPE   C3219998   7.394   0.700  10.105  0.1921 -0.1891 -0.1497
  176SOPE   H2X19999   7.384   0.799  10.056  1.6230 -0.5333 -1.2098
  176SOPE   H2Y20000   7.338   0.627  10.043 -2.1619  0.7251  0.8077
  176SOPE   C2320001   6.770   1.043  10.099 -0.4241 -0.4200 -0.4231
  176SOPE   H3R20002   6.803   1.122  10.170 -0.4868 -0.0201 -0.8324
  176SOPE   H3S20003   6.662   1.038  10.074 -0.0645 -1.0776 -1.9934
  176SOPE   C2420004   6.827   1.054   9.954  0.5967  0.0240 -1.5961
  176SOPE   H4R20005   6.922   0.999   9.964 -0.2860 -1.1312  1.9905
  176SOPE   H4S20006   6.760   1.001   9.883 -0.3650  1.0668 -1.5020
  176SOPE   C2520007   6.836   1.192   9.911  0.4229 -0.0403 -0.6249
  176SOPE   H5R20008   6.737   1.242   9.907 -0.4049 -1.4483  0.8156
  176SOPE   H5S20009   6.898   1.257   9.977  0.8098 -0.4736 -0.5600
  176SOPE   C2620010   6.900   1.184   9.772  0.8325  0.5580 -0.2341
  176SOPE   H6R20011   6.924   1.293   9.765 -0.8058  1.0312  0.8902
  176SOPE   H6S20012   6.999   1.136   9.758  0.4728 -0.3779  0.3994
  176SOPE   C2720013   6.804   1.150   9.658 -0.1694  0.1218 -0.0343
  176SOPE   H7R20014   6.821   1.043   9.634  0.8689  0.0422  0.9335
  176SOPE   H7S20015   6.697   1.174   9.676 -0.4327 -1.1523  0.2272
  176SOPE   C2820016   6.851   1.234   9.532 -0.5011  0.2198 -0.3841
  176SOPE   H8R20017   6.761   1.231   9.467 -1.3482 -0.8932  0.7915
  176SOPE   H8S20018   6.870   1.339   9.561  0.3642 -0.2487  0.8429
  176SOPE   C2920019   6.973   1.170   9.469  0.3323 -0.2281  0.1725
  176SOPE   H9120020   7.065   1.188   9.526 -0.1809  1.3566  0.5599
  176SOPE  C21020021   6.971   1.111   9.348  0.1515 -0.1539  0.3175
  176SOPE  H10120022   7.066   1.073   9.308 -0.6440  0.7250 -2.6746
  176SOPE  C21120023   6.854   1.084   9.257  0.5555 -0.2762 -1.0905
  176SOPE  H11R20024   6.758   1.103   9.310  1.3599 -0.6946  0.5787
  176SOPE  H11S20025   6.842   0.979   9.224 -1.7415 -0.9538  1.5554
  176SOPE  C21220026   6.844   1.168   9.129  0.1837  0.3504 -0.1354
  176SOPE  H12R20027   6.840   1.277   9.151  3.4975  0.3334  1.0826
  176SOPE  H12S20028   6.751   1.136   9.078 -0.4860 -0.0355  1.2589
  176SOPE  C21320029   6.963   1.133   9.037  0.3875 -0.4786 -0.2798
  176SOPE  H13R20030   6.966   1.031   8.993  3.4028 -0.6275  0.1082
  176SOPE  H13S20031   7.048   1.136   9.109 -1.7144  0.4275  2.3723
  176SOPE  C21420032   6.976   1.234   8.928  0.6655 -0.3999 -0.4434
  176SOPE  H14R20033   6.958   1.332   8.976 -2.6622 -0.6671 -0.8849
  176SOPE  H14S20034   6.895   1.210   8.855  0.1852 -1.2737  0.3529
  176SOPE  C21520035   7.111   1.231   8.859 -0.2475  0.9401  0.3846
  176SOPE  H15R20036   7.134   1.136   8.807  2.8441  2.1183 -0.6056
  176SOPE  H15S20037   7.180   1.250   8.944  0.4648 -0.4734  0.1516
  176SOPE  C21620038   7.126   1.342   8.755  0.1305 -0.0661 -1.0789
  176SOPE  H16R20039   7.237   1.346   8.742  0.4141 -1.5997  0.4293
  176SOPE  H16S20040   7.080   1.437   8.788  0.5729  0.4282 -1.8641
  176SOPE  C21720041   7.065   1.295   8.623 -0.9797  0.7706  0.5333
  176SOPE  H17R20042   6.955   1.280   8.631 -0.7027 -1.3850  1.0434
  176SOPE  H17S20043   7.122   1.203   8.598  0.2627  1.4486  0.7975
  176SOPE  C21820044   7.066   1.404   8.509  0.2792 -0.2993 -0.2863
  176SOPE  H18R20045   7.172   1.432   8.492  0.2531 -0.0926 -0.1126
  176SOPE  H18S20046   7.014   1.495   8.546 -1.2734 -0.9695 -0.7246
  176SOPE  H18T20047   7.030   1.379   8.407  0.4138 -0.3880 -0.3117
  176SOPE   C3320048   7.547   0.667  10.125 -0.0871 -0.7984 -0.2914
  176SOPE   H3X20049   7.570   0.588  10.199  0.2599 -0.2321  0.2106
  176SOPE   H3Y20050   7.593   0.761  10.159  1.8198 -1.4151 -1.0086
  176SOPE   C3420051   7.609   0.625   9.993  0.1074  0.0652  0.5320
  176SOPE   H4X20052   7.552   0.550   9.934 -0.6540  1.6119 -0.7998
  176SOPE   H4Y20053   7.696   0.558  10.011 -1.1228 -1.8866 -0.4115
  176SOPE   C3520054   7.641   0.746   9.894  0.1159 -0.1275  0.4629
  176SOPE   H5X20055   7.638   0.828   9.969 -1.1630 -0.5260  0.8643
  176SOPE   H5Y20056   7.555   0.765   9.826 -0.8883  0.7354  1.9141
  176SOPE   C3620057   7.776   0.748   9.828  0.0237  0.5866 -0.2569
  176SOPE   H6X20058   7.773   0.667   9.751  0.6610  0.5971 -0.3012
  176SOPE   H6Y20059   7.850   0.722   9.907  0.2796  1.4056 -0.2253
  176SOPE   C3720060   7.810   0.868   9.755 -0.7355 -0.6271  0.9684
  176SOPE   H7X20061   7.830   0.955   9.821  0.6934 -0.0128 -0.2113
  176SOPE   H7Y20062   7.721   0.885   9.691  0.8062 -0.1495 -1.1265
  176SOPE   C3820063   7.934   0.860   9.669  0.1243  0.7251 -0.0045
  176SOPE   H8X20064   7.910   0.773   9.604  1.4399 -1.3006  2.0610
  176SOPE   H8Y20065   8.021   0.835   9.733  0.1289  2.4171  0.7033
  176SOPE   C3920066   7.958   0.977   9.574  0.3525  0.2518 -0.4574
  176SOPE   H9X20067   8.055   1.024   9.599  1.5079 -2.7697  1.2162
  176SOPE   H9Y20068   7.877   1.053   9.570  0.0320  0.1986  2.6723
  176SOPE  C31020069   7.969   0.919   9.429  0.4656 -0.3024 -0.9588
  176SOPE  H10X20070   7.878   0.858   9.412  1.1189 -1.1609 -1.4853
  176SOPE  H10Y20071   8.058   0.852   9.427  1.7648  1.3004  0.3125
  176SOPE  C31120072   7.966   1.039   9.335  0.6066  0.3672  0.2207
  176SOPE  H11X20073   8.059   1.096   9.356  0.7800 -0.4937  1.9364
  176SOPE  H11Y20074   7.872   1.095   9.352 -0.5117 -1.7620  1.5608
  176SOPE  C31220075   7.988   1.001   9.186 -0.6016 -0.7476  0.2999
  176SOPE  H12X20076   8.089   0.956   9.175 -0.6159 -1.5249  2.6526
  176SOPE  H12Y20077   7.984   1.095   9.126 -1.1064 -2.5280 -2.6678
  176SOPE  C31320078   7.894   0.886   9.141 -0.2199 -0.1699  0.3743
  176SOPE  H13X20079   7.789   0.895   9.176  0.0838  0.7889  1.0743
  176SOPE  H13Y20080   7.928   0.790   9.187  1.8252 -0.6652 -1.9887
  176SOPE  C31420081   7.888   0.880   8.988 -0.2012 -0.1776  0.6955
  176SOPE  H14X20082   7.991   0.850   8.958 -0.5394 -0.8371  0.1717
  176SOPE  H14Y20083   7.865   0.975   8.935  1.0139 -0.1255  0.2196
  176SOPE  C31520084   7.797   0.767   8.941  1.3207  0.3335 -1.0264
  176SOPE  H15X20085   7.708   0.756   9.007  1.9050  1.1153 -0.0937
  176SOPE  H15Y20086   7.845   0.667   8.945 -1.3771 -1.0137  0.7268
  176SOPE  C31620087   7.742   0.791   8.799 -0.0836  0.2815 -0.3809
  176SOPE  H16X20088   7.698   0.893   8.799 -0.9525 -0.0599 -2.2697
  176SOPE  H16Y20089   7.656   0.722   8.787 -1.6747  2.4118 -1.9071
  176SOPE  C31720090   7.831   0.762   8.675 -0.3596 -0.0157 -0.2254
  176SOPE  H17X20091   7.848   0.653   8.681  2.6809  0.3509 -0.4868
  176SOPE  H17Y20092   7.930   0.808   8.697  0.1166 -0.9799 -0.2849
  176SOPE  C31820093   7.771   0.813   8.542 -0.3196  0.5569 -1.4253
  176SOPE  H18X20094   7.664   0.781   8.534 -0.4598  0.0468  1.4526
  176SOPE  H18Y20095   7.828   0.794   8.448 -1.1345  0.2323 -1.8685
  176SOPE  H18Z20096   7.756   0.921   8.561 -0.8768  0.1484  0.7464
  177SOPE     N20097   6.402   4.722  11.532 -0.8092 -0.4768 -0.4460
  177SOPE   HN120098   6.330   4.650  11.553  0.4798 -1.6891 -0.0105
  177SOPE   HN220099   6.470   4.721  11.611 -2.0907 -2.0296  0.7009
  177SOPE   HN320100   6.354   4.814  11.527 -1.3858 -0.7485  0.0567
  177SOPE   C1220101   6.480   4.695  11.405 -0.3955 -0.2315 -0.1927
  177SOPE  H12A20102   6.512   4.588  11.412 -0.9921 -0.3444  4.4970
  177SOPE  H12B20103   6.573   4.755  11.399  0.3457 -1.4008 -0.8887
  177SOPE   C1120104   6.394   4.715  11.279  0.1078  0.3532 -0.0675
  177SOPE  H11A20105   6.457   4.682  11.194 -1.3735 -2.3666 -0.2315
  177SOPE  H11B20106   6.364   4.822  11.273  1.4651  0.7169 -0.9021
  177SOPE     P20107   6.161   4.653  11.170  0.0809  0.1021  0.2201
  177SOPE   O1320108   6.055   4.755  11.189 -0.1759  0.1905 -0.0516
  177SOPE   O1420109   6.109   4.511  11.155  0.0076 -0.5309 -0.0693
  177SOPE   O1220110   6.266   4.648  11.281  0.4005  0.6265 -0.4731
  177SOPE   O1120111   6.246   4.692  11.042  0.1026  0.1575  0.5238
  177SOPE    C120112   6.178   4.710  10.920  0.2259  0.0414  0.1932
  177SOPE    HA20113   6.185   4.816  10.887 -1.5706  0.9730  2.5401
  177SOPE    HB20114   6.071   4.682  10.922 -0.0589  0.1743 -4.0668
  177SOPE    C220115   6.232   4.609  10.812  0.1214 -1.0093  0.2491
  177SOPE    HS20116   6.285   4.530  10.870 -0.5436  0.4854  3.0861
  177SOPE   O2120117   6.324   4.689  10.730 -0.3103 -0.3945  0.2059
  177SOPE   C2120118   6.399   4.621  10.643  0.2370  0.8669  0.2949
  177SOPE   O2220119   6.406   4.499  10.638  0.3417  0.0250  0.0372
  177SOPE   C2220120   6.451   4.721  10.535 -0.6307  0.0792  0.2096
  177SOPE   H2R20121   6.548   4.673  10.507 -1.2955 -0.4545 -1.3022
  177SOPE   H2S20122   6.487   4.819  10.572  0.5985 -1.5001  3.6251
  177SOPE    C320123   6.126   4.549  10.720  0.3007  0.1617 -0.4893
  177SOPE    HX20124   6.055   4.510  10.796  0.3193  1.0167 -0.0216
  177SOPE    HY20125   6.164   4.465  10.659  0.8100  0.4486 -0.5662
  177SOPE   O3120126   6.056   4.647  10.631 -0.4404 -0.1561  0.0981
  177SOPE   C3120127   5.981   4.584  10.536 -0.0487  0.5062 -0.2277
  177SOPE   O3220128   5.969   4.460  10.536 -0.0555  0.1920 -0.4632
  177SOPE   C3220129   5.920   4.679  10.439  0.1167 -0.0760 -0.6500
  177SOPE   H2X20130   5.964   4.774  10.477 -1.0082  0.3123 -0.2646
  177SOPE   H2Y20131   5.809   4.679  10.448  0.1621 -0.9505 -0.0108
  177SOPE   C2320132   6.357   4.737  10.415 -1.0826  0.0312  0.1284
  177SOPE   H3R20133   6.276   4.805  10.448 -0.4106  1.4529 -1.0118
  177SOPE   H3S20134   6.313   4.638  10.392  1.1923 -0.4364 -2.9031
  177SOPE   C2420135   6.427   4.795  10.288 -0.0436 -0.2806 -0.3402
  177SOPE   H4R20136   6.483   4.889  10.306  0.6268 -0.3557 -1.8313
  177SOPE   H4S20137   6.503   4.723  10.250 -0.4696  0.6634 -3.2413
  177SOPE   C2520138   6.329   4.822  10.168 -0.1463 -0.5671  0.1362
  177SOPE   H5R20139   6.264   4.733  10.164 -0.0944 -0.5629 -2.0082
  177SOPE   H5S20140   6.271   4.913  10.197  1.7489  0.5947  0.4988
  177SOPE   C2620141   6.402   4.844  10.029  0.0834 -0.0498  0.0428
  177SOPE   H6R20142   6.459   4.939  10.023  0.6887 -0.4671 -1.1607
  177SOPE   H6S20143   6.476   4.764  10.006  0.4137  0.1282  0.4826
  177SOPE   C2720144   6.303   4.849   9.919  0.1874  0.2634  0.5456
  177SOPE   H7R20145   6.237   4.760   9.931  0.6749 -0.6466 -2.6501
  177SOPE   H7S20146   6.250   4.946   9.929  1.3570  0.7210  3.3299
  177SOPE   C2820147   6.374   4.848   9.791  0.1311  0.6500 -0.2116
  177SOPE   H8R20148   6.444   4.934   9.777  0.5609  0.3785  0.2450
  177SOPE   H8S20149   6.442   4.760   9.785  0.8688  1.2847 -2.9852
  177SOPE   C2920150   6.265   4.820   9.687 -0.5109 -0.2747  0.5131
  177SOPE   H9120151   6.199   4.734   9.705  2.2002 -2.3644  1.0298
  177SOPE  C21020152   6.243   4.888   9.575 -0.3407  0.0143  0.0742
  177SOPE  H10120153   6.155   4.864   9.512  0.9796 -0.1867 -1.7786
  177SOPE  C21120154   6.333   5.011   9.538 -0.0675  0.5359 -0.4509
  177SOPE  H11R20155   6.358   5.065   9.632  1.4442  2.2695 -1.7745
  177SOPE  H11S20156   6.275   5.087   9.482 -0.3551  0.6411 -0.0155
  177SOPE  C21220157   6.466   4.986   9.464  0.6468 -0.0165  0.8173
  177SOPE  H12R20158   6.541   4.953   9.539  1.1035 -1.8835 -0.4044
  177SOPE  H12S20159   6.503   5.086   9.430 -0.6591  0.9301  2.0701
  177SOPE  C21320160   6.457   4.891   9.344  0.5536 -0.1793  0.2469
  177SOPE  H13R20161   6.385   4.935   9.272 -0.2935 -3.3490 -1.0168
  177SOPE  H13S20162   6.411   4.795   9.375 -1.9815  0.4324 -1.3301
  177SOPE  C21420163   6.588   4.870   9.266  0.3618 -0.0170  0.5892
  177SOPE  H14R20164   6.668   4.836   9.336 -0.5740  1.0350  2.2237
  177SOPE  H14S20165   6.612   4.963   9.209 -2.3650  0.4876  0.1378
  177SOPE  C21520166   6.558   4.763   9.160  0.5855 -0.2811  0.3368
  177SOPE  H15R20167   6.464   4.792   9.107  0.9228 -1.0135 -0.6918
  177SOPE  H15S20168   6.527   4.668   9.209 -0.4976 -0.5007 -0.7239
  177SOPE  C21620169   6.677   4.744   9.069  0.2480  0.2193  0.0153
  177SOPE  H16R20170   6.773   4.705   9.108  0.9345  1.3687 -0.4895
  177SOPE  H16S20171   6.696   4.835   9.008 -0.5166  0.1451 -0.3546
  177SOPE  C21720172   6.639   4.641   8.956  0.0323 -0.3323 -1.1104
  177SOPE  H17R20173   6.548   4.662   8.895 -1.1539 -1.8553  0.0279
  177SOPE  H17S20174   6.611   4.548   9.009 -1.2320  0.1301 -0.9225
  177SOPE  C21820175   6.759   4.602   8.865  0.7280  0.0539 -0.4587
  177SOPE  H18R20176   6.724   4.536   8.783  1.0619 -1.1676  0.3576
  177SOPE  H18S20177   6.843   4.560   8.924 -0.2383 -1.3204 -0.0260
  177SOPE  H18T20178   6.801   4.686   8.806  1.7011 -0.4059 -0.4345
  177SOPE   C3320179   5.962   4.657  10.291  0.1017  0.0290 -0.6359
  177SOPE   H3X20180   5.936   4.552  10.266  1.1059 -0.3814 -0.0080
  177SOPE   H3Y20181   6.071   4.671  10.271 -0.1471 -0.5093 -2.6403
  177SOPE   C3420182   5.889   4.746  10.196  0.4108 -0.1642 -0.2322
  177SOPE   H4X20183   5.907   4.849  10.233 -0.8952 -0.7386  2.1583
  177SOPE   H4Y20184   5.782   4.717  10.201  0.4808 -0.1918  1.5854
  177SOPE   C3520185   5.931   4.731  10.049  0.2673 -0.5797  0.4409
  177SOPE   H5X20186   6.038   4.756  10.040  0.5872 -2.4980 -2.5755
  177SOPE   H5Y20187   5.875   4.803   9.986  1.4119 -0.0719 -0.0206
  177SOPE   C3620188   5.888   4.595   9.991 -0.4305  0.2818 -0.1116
  177SOPE   H6X20189   5.777   4.604   9.993 -0.2876  2.5142  2.2060
  177SOPE   H6Y20190   5.926   4.509  10.051  0.9583  1.3844  0.6320
  177SOPE   C3720191   5.933   4.562   9.856  0.6548  0.0057 -0.4528
  177SOPE   H7X20192   5.929   4.454   9.831 -0.6573 -0.1957  0.5308
  177SOPE   H7Y20193   6.040   4.589   9.844 -0.1169  2.6938 -2.2065
  177SOPE   C3820194   5.876   4.640   9.735 -0.2677 -0.0843 -0.7315
  177SOPE   H8X20195   5.901   4.747   9.749  0.1985 -0.4877  2.0897
  177SOPE   H8Y20196   5.766   4.631   9.728 -0.1280 -1.0879 -2.0285
  177SOPE   C3920197   5.924   4.588   9.598  0.3657  0.1515 -0.0718
  177SOPE   H9X20198   5.866   4.494   9.587 -1.5806  1.2787  0.1471
  177SOPE   H9Y20199   6.034   4.572   9.600  0.5398  0.8969 -1.5885
  177SOPE  C31020200   5.882   4.678   9.486  0.1878  0.1815 -0.0096
  177SOPE  H10X20201   5.877   4.785   9.515  0.6491  0.3136 -0.4026
  177SOPE  H10Y20202   5.778   4.649   9.460  0.8740 -0.4644 -2.2665
  177SOPE  C31120203   5.972   4.659   9.368  0.3731  0.1618  0.5426
  177SOPE  H11X20204   5.966   4.558   9.321 -1.5404  0.3845  0.2180
  177SOPE  H11Y20205   6.081   4.666   9.391  0.8966 -1.2536 -1.2876
  177SOPE  C31220206   5.930   4.758   9.252  0.3860 -0.3960 -0.2093
  177SOPE  H12X20207   5.947   4.856   9.301 -3.3603  0.1574  0.2861
  177SOPE  H12Y20208   5.825   4.733   9.224  0.5845 -1.3095 -0.1853
  177SOPE  C31320209   6.017   4.771   9.128 -0.1438  0.1401 -0.0703
  177SOPE  H13X20210   6.109   4.817   9.170 -1.9324  1.9039  2.1509
  177SOPE  H13Y20211   5.980   4.855   9.064  0.6030 -0.8287 -1.8633
  177SOPE  C31420212   6.055   4.653   9.051 -0.2315  0.6447  0.1976
  177SOPE  H14X20213   5.971   4.596   9.008 -0.0010 -1.6571  2.5805
  177SOPE  H14Y20214   6.115   4.580   9.109 -2.0942 -1.2097 -0.1262
  177SOPE  C31520215   6.155   4.684   8.930  0.1413  0.3903  0.2433
  177SOPE  H15X20216   6.142   4.592   8.869 -2.4855  0.7797  0.1137
  177SOPE  H15Y20217   6.261   4.699   8.958 -0.1825  2.0635  0.6932
  177SOPE  C31620218   6.101   4.800   8.840 -0.0210  0.2325  0.0661
  177SOPE  H16X20219   6.119   4.893   8.898  0.4278  1.0275 -1.3051
  177SOPE  H16Y20220   5.993   4.798   8.817  0.4071  0.8878 -2.2035
  177SOPE  C31720221   6.170   4.802   8.705  0.2531 -0.5689 -0.4200
  177SOPE  H17X20222   6.280   4.792   8.717  0.4551  1.9721  0.6572
  177SOPE  H17Y20223   6.155   4.901   8.657  0.4484  0.5972  1.7709
  177SOPE  C31820224   6.107   4.697   8.615  0.7856 -0.5464 -0.2930
  177SOPE  H18X20225   6.167   4.692   8.522  1.7289 -1.9667  0.3525
  177SOPE  H18Y20226   5.999   4.709   8.593  1.2971 -0.8257 -3.3471
  177SOPE  H18Z20227   6.128   4.596   8.658  2.4382  0.0651  0.4002
  178SOPE     N20228   2.785   1.839  10.657 -0.6010 -0.2054  0.3306
  178SOPE   HN120229   2.833   1.896  10.583  0.5105 -0.7567  0.6014
  178SOPE   HN220230   2.802   1.741  10.629 -0.9017 -0.8473  2.2794
  178SOPE   HN320231   2.686   1.861  10.632 -1.2816  0.0666  2.9911
  178SOPE   C1220232   2.810   1.882  10.793 -0.6451  0.5144 -0.1317
  178SOPE  H12A20233   2.779   1.988  10.798  1.3655  1.0924  1.8797
  178SOPE  H12B20234   2.919   1.879  10.816  0.1565 -0.3161 -3.4874
  178SOPE   C1120235   2.739   1.783  10.886 -0.1677  0.3662 -0.2627
  178SOPE  H11A20236   2.782   1.810  10.985 -1.9047  0.6701  0.4406
  178SOPE  H11B20237   2.759   1.677  10.859 -2.4492 -0.2610  0.3136
  178SOPE     P20238   2.487   1.730  10.811  0.0317  0.0208 -0.0657
  178SOPE   O1320239   2.352   1.769  10.843  0.3498  0.2327 -0.3785
  178SOPE   O1420240   2.510   1.584  10.811  0.7199  0.7394 -0.3837
  178SOPE   O1220241   2.598   1.807  10.898  0.5475 -0.0251 -0.2005
  178SOPE   O1120242   2.524   1.781  10.668  0.0924  0.0720 -0.0978
  178SOPE    C120243   2.466   1.706  10.556  0.6923 -0.6250  0.2685
  178SOPE    HA20244   2.355   1.711  10.553  0.7655  2.2452  0.1407
  178SOPE    HB20245   2.505   1.602  10.562  3.5057  0.2828 -0.5842
  178SOPE    C220246   2.528   1.761  10.430  0.0561  0.1002 -0.7272
  178SOPE    HS20247   2.482   1.708  10.344  2.7939 -1.9962 -1.0653
  178SOPE   O2120248   2.672   1.736  10.423 -0.1620  0.0604  0.0974
  178SOPE   C2120249   2.703   1.618  10.375  0.1786  0.2662 -0.4242
  178SOPE   O2220250   2.622   1.531  10.359  0.6390 -0.2443  0.2938
  178SOPE   C2220251   2.847   1.604  10.349 -0.1137  0.0908 -0.1631
  178SOPE   H2R20252   2.886   1.521  10.412 -1.6913 -0.9827 -0.5488
  178SOPE   H2S20253   2.905   1.697  10.364  0.3982 -0.2843  0.2265
  178SOPE    C320254   2.501   1.907  10.401  0.1241  0.0996  0.1822
  178SOPE    HX20255   2.528   1.956  10.497 -1.6906 -0.8404  1.2325
  178SOPE    HY20256   2.392   1.927  10.391 -0.3908  0.1204  4.1891
  178SOPE   O3120257   2.562   1.952  10.276 -0.5456  0.1159 -0.0908
  178SOPE   C3120258   2.652   2.048  10.283 -0.3633 -0.1999 -0.2055
  178SOPE   O3220259   2.682   2.106  10.389 -0.2434  0.2854  0.0984
  178SOPE   C3220260   2.706   2.079  10.142 -0.0762  0.3171  0.6430
  178SOPE   H2X20261   2.612   2.083  10.081  0.9432  1.6423 -0.9489
  178SOPE   H2Y20262   2.782   2.008  10.104  0.1095  1.2702 -0.8547
  178SOPE   C2320263   2.878   1.583  10.197 -0.0163  0.1735  0.2778
  178SOPE   H3R20264   2.831   1.494  10.151  1.1088  1.0129 -2.7137
  178SOPE   H3S20265   2.987   1.564  10.188 -0.1873 -1.6959  1.4770
  178SOPE   C2420266   2.860   1.705  10.094  0.0911 -0.0657  0.0706
  178SOPE   H4R20267   2.751   1.726  10.087  0.0274 -0.6190 -0.8270
  178SOPE   H4S20268   2.905   1.800  10.130 -1.5846  0.6263  0.4329
  178SOPE   C2520269   2.897   1.688   9.944  0.0842  0.0398 -0.3200
  178SOPE   H5R20270   3.006   1.668   9.944  0.2810  1.0030 -1.7808
  178SOPE   H5S20271   2.836   1.601   9.911  2.5233 -2.2462  0.8455
  178SOPE   C2620272   2.861   1.808   9.863 -0.0755  0.0744  1.1715
  178SOPE   H6R20273   2.756   1.834   9.889 -1.0030 -4.1211  2.3956
  178SOPE   H6S20274   2.920   1.894   9.901  0.1525 -0.6685  2.5670
  178SOPE   C2720275   2.869   1.781   9.710 -0.1906 -0.5808 -0.0194
  178SOPE   H7R20276   2.977   1.756   9.699  0.2387  0.9109  0.6010
  178SOPE   H7S20277   2.803   1.695   9.685 -2.3508  1.3727 -1.3714
  178SOPE   C2820278   2.834   1.908   9.626  0.1716 -0.2552 -0.2358
  178SOPE   H8R20279   2.895   1.992   9.666  0.4803 -0.1594 -0.8907
  178SOPE   H8S20280   2.876   1.879   9.527 -0.1466 -0.1881 -0.3928
  178SOPE   C2920281   2.696   1.961   9.618  0.3774 -0.1666 -0.0192
  178SOPE   H9120282   2.674   2.022   9.707 -1.0554 -0.7381  0.0542
  178SOPE  C21020283   2.605   1.957   9.526 -0.0589 -0.2039  0.7304
  178SOPE  H10120284   2.505   1.989   9.556 -0.3112  0.5004 -0.7718
  178SOPE  C21120285   2.603   1.900   9.385  0.1506  0.0468  0.6311
  178SOPE  H11R20286   2.515   1.833   9.379 -0.0897  0.3653  0.5499
  178SOPE  H11S20287   2.690   1.833   9.367 -1.6476 -1.4485 -3.7768
  178SOPE  C21220288   2.572   1.994   9.276  0.5350  0.1633  0.5339
  178SOPE  H12R20289   2.483   2.053   9.307  1.0879  0.4937  1.5523
  178SOPE  H12S20290   2.552   1.930   9.188 -0.8116  0.3504  0.6851
  178SOPE  C21320291   2.687   2.103   9.247 -0.4479 -0.2224 -0.2754
  178SOPE  H13R20292   2.774   2.042   9.214 -1.2763 -2.0864  0.7922
  178SOPE  H13S20293   2.723   2.139   9.345  2.8723  0.2994 -1.5769
  178SOPE  C21420294   2.655   2.215   9.147  0.1321  0.0730  0.9475
  178SOPE  H14R20295   2.742   2.284   9.142  0.6854 -0.6934 -0.4181
  178SOPE  H14S20296   2.573   2.269   9.200 -1.6346 -0.7509 -0.8099
  178SOPE  C21520297   2.611   2.172   8.997 -0.2457 -0.2228  0.0186
  178SOPE  H15R20298   2.531   2.095   8.999  0.9874 -1.5576 -0.2987
  178SOPE  H15S20299   2.691   2.120   8.940 -0.4460  0.0716 -0.5336
  178SOPE  C21620300   2.563   2.289   8.903 -0.0277 -0.8525 -0.2030
  178SOPE  H16R20301   2.474   2.337   8.950  0.8738  0.3426  0.3493
  178SOPE  H16S20302   2.523   2.251   8.807 -1.1439 -0.6586  0.1693
  178SOPE  C21720303   2.676   2.395   8.884 -0.4091 -0.5042  0.3867
  178SOPE  H17R20304   2.772   2.350   8.851 -0.0931  0.2785  0.2290
  178SOPE  H17S20305   2.699   2.448   8.979  0.8962 -0.1276 -0.1162
  178SOPE  C21820306   2.629   2.511   8.798  0.1771 -0.1772  0.7617
  178SOPE  H18R20307   2.699   2.597   8.792  0.2805 -0.1897  1.6037
  178SOPE  H18S20308   2.536   2.556   8.839  0.7767  0.0848  1.8824
  178SOPE  H18T20309   2.599   2.476   8.698 -1.2448  1.0903  0.7208
  178SOPE   C3320310   2.766   2.216  10.157  0.3459 -0.3186 -0.1009
  178SOPE   H3X20311   2.852   2.209  10.227 -2.3215 -0.8391  3.3594
  178SOPE   H3Y20312   2.685   2.283  10.192  0.0643 -0.9213  0.4300
  178SOPE   C3420313   2.811   2.278  10.023 -0.3163 -0.0046 -0.0573
  178SOPE   H4X20314   2.887   2.211   9.977 -1.1186 -0.3783 -0.8517
  178SOPE   H4Y20315   2.847   2.379  10.052  2.2448 -0.9168  0.2534
  178SOPE   C3520316   2.689   2.282   9.925  0.1937 -0.4010 -0.6760
  178SOPE   H5X20317   2.604   2.326   9.982  2.9189  1.4513  2.2807
  178SOPE   H5Y20318   2.661   2.179   9.896 -0.1634 -1.2887  2.5049
  178SOPE   C3620319   2.721   2.351   9.790  0.6696 -0.2046 -0.3645
  178SOPE   H6X20320   2.814   2.314   9.741  0.1169  0.2914 -1.8499
  178SOPE   H6Y20321   2.740   2.455   9.826 -0.3375 -0.6961  1.7165
  178SOPE   C3720322   2.601   2.351   9.690 -0.3021 -0.3442  0.3492
  178SOPE   H7X20323   2.521   2.366   9.766  0.9189 -0.8889  1.8144
  178SOPE   H7Y20324   2.567   2.249   9.660  0.0991 -0.4508  0.2443
  178SOPE   C3820325   2.612   2.450   9.580 -0.3515 -0.3001 -0.5234
  178SOPE   H8X20326   2.643   2.549   9.620 -1.7749 -0.2658  0.5634
  178SOPE   H8Y20327   2.514   2.469   9.532  0.6778 -0.6428 -2.9388
  178SOPE   C3920328   2.712   2.411   9.477 -0.7463 -0.7009  0.3029
  178SOPE   H9X20329   2.684   2.312   9.435 -1.0198  0.4076 -2.3639
  178SOPE   H9Y20330   2.808   2.391   9.529 -0.4809 -2.3854 -0.7643
  178SOPE  C31020331   2.746   2.511   9.365 -0.2949 -0.1260  0.1391
  178SOPE  H10X20332   2.815   2.466   9.291 -1.2221 -0.4473 -0.5354
  178SOPE  H10Y20333   2.790   2.594   9.424  0.9487 -1.2358  0.8154
  178SOPE  C31120334   2.620   2.563   9.285 -0.3380  0.4029  0.4432
  178SOPE  H11X20335   2.532   2.582   9.350 -3.2735 -0.6750 -2.8354
  178SOPE  H11Y20336   2.589   2.483   9.214  1.0708 -0.9170  1.2590
  178SOPE  C31220337   2.663   2.687   9.198  0.1410  0.4443 -0.1403
  178SOPE  H12X20338   2.741   2.653   9.127  0.0677  0.6641 -0.3256
  178SOPE  H12Y20339   2.691   2.769   9.267 -0.5646  0.2335  0.4113
  178SOPE  C31320340   2.548   2.725   9.112  0.5353 -0.4992 -0.0417
  178SOPE  H13X20341   2.457   2.735   9.174  0.5222  0.4596 -0.2018
  178SOPE  H13Y20342   2.524   2.645   9.039  1.8551  0.3022 -1.4259
  178SOPE  C31420343   2.586   2.856   9.042  0.6069 -0.7098 -0.0326
  178SOPE  H14X20344   2.692   2.848   9.009  0.7654  0.3706  0.1616
  178SOPE  H14Y20345   2.584   2.942   9.113  1.6958 -0.0854 -0.7194
  178SOPE  C31520346   2.498   2.906   8.922  0.3736 -0.1537 -0.5628
  178SOPE  H15X20347   2.403   2.933   8.974 -2.1405 -0.8524 -4.4157
  178SOPE  H15Y20348   2.483   2.822   8.852  1.2891  0.4604 -1.5177
  178SOPE  C31620349   2.549   3.025   8.840 -0.6573 -0.0349 -0.2192
  178SOPE  H16X20350   2.607   3.098   8.901  0.5578 -0.4544 -0.8286
  178SOPE  H16Y20351   2.460   3.077   8.800 -0.4463  0.0132 -0.6249
  178SOPE  C31720352   2.621   2.992   8.705  0.0215 -0.0731 -0.1376
  178SOPE  H17X20353   2.613   3.086   8.647  0.7213 -0.3981 -0.7836
  178SOPE  H17Y20354   2.570   2.905   8.658  1.0736  0.7624 -3.0538
  178SOPE  C31820355   2.767   2.978   8.738 -0.5026  0.3361 -0.5461
  178SOPE  H18X20356   2.794   3.050   8.818 -0.9170 -1.0196  0.8842
  178SOPE  H18Y20357   2.828   2.987   8.646 -2.4478 -0.5807 -1.9893
  178SOPE  H18Z20358   2.784   2.877   8.783  0.4951 -0.1136 -1.8691
  179SOPE     N20359   1.798   4.701   6.202 -0.0077 -0.5284  0.5146
  179SOPE   HN120360   1.747   4.776   6.151 -1.4476 -1.4619  0.5292
  179SOPE   HN220361   1.900   4.724   6.198 -0.6811  2.8784  0.1978
  179SOPE   HN320362   1.779   4.614   6.149 -1.0033  0.6114 -1.0949
  179SOPE   C1220363   1.738   4.690   6.343  0.0176 -0.3253 -0.6109
  179SOPE  H12A20364   1.808   4.635   6.410 -2.7064 -0.1372  2.6370
  179SOPE  H12B20365   1.642   4.634   6.343  0.2040 -0.6680  0.2960
  179SOPE   C1120366   1.731   4.832   6.407  0.0168  0.5468  0.4326
  179SOPE  H11A20367   1.833   4.875   6.421  1.2891 -2.1239 -0.0456
  179SOPE  H11B20368   1.694   4.832   6.512  3.0677 -0.2608  1.6147
  179SOPE     P20369   1.507   4.940   6.336  0.2709  0.0366 -0.2949
  179SOPE   O1320370   1.444   4.818   6.368  0.7951  0.4964 -0.0318
  179SOPE   O1420371   1.460   5.008   6.206 -0.1868 -0.2298  0.1575
  179SOPE   O1220372   1.655   4.923   6.326  0.3758  0.3698  0.0435
  179SOPE   O1120373   1.481   5.038   6.452 -0.6117  0.2089 -0.1469
  179SOPE    C120374   1.530   5.170   6.439  0.0566  0.2005 -0.2983
  179SOPE    HA20375   1.459   5.237   6.493 -0.8464 -0.4892 -0.6152
  179SOPE    HB20376   1.550   5.200   6.334  0.9904 -0.7352 -0.4070
  179SOPE    C220377   1.673   5.187   6.498 -1.0641 -0.1286 -0.2984
  179SOPE    HS20378   1.740   5.117   6.443  0.4480  0.7184  0.3948
  179SOPE   O2120379   1.686   5.159   6.644 -0.0656  0.3211 -0.1465
  179SOPE   C2120380   1.808   5.134   6.681 -1.0053  0.2333  0.4637
  179SOPE   O2220381   1.905   5.132   6.612 -0.0563  0.2906  0.3880
  179SOPE   C2220382   1.809   5.117   6.828  0.0562 -0.1609 -0.2111
  179SOPE   H2R20383   1.719   5.061   6.860  0.6240 -2.0842 -1.7850
  179SOPE   H2S20384   1.796   5.220   6.869  2.1280  0.2365 -0.4284
  179SOPE    C320385   1.731   5.325   6.463 -0.5313  0.3295  0.1268
  179SOPE    HX20386   1.747   5.332   6.353 -1.3573  0.5322  0.0153
  179SOPE    HY20387   1.836   5.338   6.498 -1.0643  0.2914  1.8533
  179SOPE   O3120388   1.651   5.436   6.511  0.7758 -0.0819 -0.6298
  179SOPE   C3120389   1.662   5.469   6.641 -0.2334  0.5528  0.6899
  179SOPE   O3220390   1.745   5.418   6.715 -0.0025  0.1415 -0.0543
  179SOPE   C3220391   1.561   5.579   6.683  0.0527  0.1704 -0.0740
  179SOPE   H2X20392   1.478   5.527   6.735  0.2409 -1.3170 -1.1698
  179SOPE   H2Y20393   1.513   5.628   6.595  3.0737  2.3202 -0.6976
  179SOPE   C2320394   1.939   5.048   6.885 -0.1233 -0.3156 -0.0465
  179SOPE   H3R20395   2.020   5.124   6.890  0.7397 -1.0529 -1.8522
  179SOPE   H3S20396   1.959   4.963   6.815 -1.5653 -0.7355  0.0245
  179SOPE   C2420397   1.903   4.979   7.017 -1.1481  0.1419 -0.4237
  179SOPE   H4R20398   1.851   5.044   7.092  1.9009  0.7814  1.3237
  179SOPE   H4S20399   1.830   4.899   6.992  0.8452 -1.9664  0.1383
  179SOPE   C2520400   2.034   4.930   7.092 -0.1344  0.8716  0.0941
  179SOPE   H5R20401   1.991   4.868   7.173 -0.2960  0.3595 -0.3843
  179SOPE   H5S20402   2.076   4.865   7.013 -0.6051  2.1990 -1.3160
  179SOPE   C2620403   2.124   5.044   7.148 -0.8219  0.8109  0.0061
  179SOPE   H6R20404   2.231   5.020   7.163 -1.0390  0.7401  1.6012
  179SOPE   H6S20405   2.134   5.122   7.070  0.3881  0.4979 -0.1773
  179SOPE   C2720406   2.078   5.109   7.279  0.4201 -0.3671 -0.0146
  179SOPE   H7R20407   2.146   5.192   7.306  0.0438 -0.4717  1.3037
  179SOPE   H7S20408   1.981   5.162   7.272  1.3827  1.5352  0.4523
  179SOPE   C2820409   2.090   5.021   7.406  0.4016 -0.2660 -0.8798
  179SOPE   H8R20410   2.005   4.950   7.399 -2.6576  2.9841  0.0909
  179SOPE   H8S20411   2.177   4.952   7.400  1.0960  0.5224 -0.1327
  179SOPE   C2920412   2.078   5.096   7.539 -0.0324 -0.7829  0.4116
  179SOPE   H9120413   1.995   5.169   7.541  1.5412  1.0681  1.1410
  179SOPE  C21020414   2.141   5.073   7.658 -0.2726  0.4015  0.7729
  179SOPE  H10120415   2.111   5.143   7.737 -2.6935 -1.1271  1.3303
  179SOPE  C21120416   2.237   4.958   7.699 -0.2509  0.4517  1.7863
  179SOPE  H11R20417   2.339   4.994   7.725 -0.6299  2.3849  0.8344
  179SOPE  H11S20418   2.250   4.892   7.611 -2.8659  0.5965  1.2173
  179SOPE  C21220419   2.186   4.865   7.818  0.1506  0.0902  0.2170
  179SOPE  H12R20420   2.193   4.922   7.913 -0.6285  1.4519 -0.5169
  179SOPE  H12S20421   2.267   4.791   7.833 -0.6833 -0.7748  0.5483
  179SOPE  C21320422   2.052   4.794   7.798 -0.0789  0.2191  1.2685
  179SOPE  H13R20423   2.056   4.742   7.700 -1.5106  2.0060  0.1894
  179SOPE  H13S20424   1.975   4.874   7.791 -0.4279 -0.1728  0.5423
  179SOPE  C21420425   2.021   4.690   7.907 -0.4207 -0.0609  0.1735
  179SOPE  H14R20426   2.105   4.622   7.932  1.5016  1.8342 -0.8217
  179SOPE  H14S20427   1.919   4.647   7.897 -0.8547  1.0150 -0.2785
  179SOPE  C21520428   2.005   4.772   8.045 -0.5546 -0.5546 -0.2056
  179SOPE  H15R20429   1.957   4.869   8.018 -2.3668 -0.7597  1.9959
  179SOPE  H15S20430   2.108   4.788   8.084 -1.0488  0.9690  0.5747
  179SOPE  C21620431   1.931   4.695   8.154  0.4213 -0.7794 -0.1461
  179SOPE  H16R20432   1.972   4.598   8.189 -0.6551 -1.3720 -0.4887
  179SOPE  H16S20433   1.829   4.674   8.116 -0.1409  2.4285 -0.7199
  179SOPE  C21720434   1.913   4.787   8.278  0.4364  0.4650  0.6556
  179SOPE  H17R20435   1.878   4.887   8.243 -0.0962 -0.5708 -2.0416
  179SOPE  H17S20436   2.016   4.785   8.319  0.5946  3.2044  0.5742
  179SOPE  C21820437   1.819   4.724   8.377 -0.0680  0.0815 -0.0113
  179SOPE  H18R20438   1.710   4.738   8.361  0.0907  0.2872 -0.9942
  179SOPE  H18S20439   1.838   4.753   8.483  0.0717 -0.7709  0.2040
  179SOPE  H18T20440   1.832   4.614   8.377  2.0126  0.2563  1.8336
  179SOPE   C3320441   1.634   5.702   6.752  0.3004  0.0565 -0.5215
  179SOPE   H3X20442   1.572   5.794   6.740  0.8402  1.0036  2.7580
  179SOPE   H3Y20443   1.732   5.724   6.705  1.1273 -3.1278 -0.5263
  179SOPE   C3420444   1.676   5.675   6.899 -0.3738 -0.0402  0.0724
  179SOPE   H4X20445   1.764   5.733   6.932 -1.4309  2.1136 -0.6977
  179SOPE   H4Y20446   1.715   5.572   6.913  2.9687  0.9658 -0.9573
  179SOPE   C3520447   1.566   5.714   6.996 -0.0958 -0.1210  0.1784
  179SOPE   H5X20448   1.477   5.658   6.960  0.9914 -2.8961  1.5572
  179SOPE   H5Y20449   1.553   5.824   6.984  2.3631 -0.0194 -3.0953
  179SOPE   C3620450   1.591   5.672   7.141 -0.1218 -0.5535  0.7777
  179SOPE   H6X20451   1.658   5.743   7.193 -0.1127  0.2194 -0.2517
  179SOPE   H6Y20452   1.638   5.572   7.142  1.4344  0.1336 -0.1300
  179SOPE   C3720453   1.457   5.658   7.218 -0.0057  0.9253  0.7565
  179SOPE   H7X20454   1.392   5.586   7.163  0.4549  0.8365  0.3187
  179SOPE   H7Y20455   1.398   5.752   7.224 -0.2528  0.8066  0.3001
  179SOPE   C3820456   1.484   5.589   7.355 -0.0743 -0.5298 -0.2576
  179SOPE   H8X20457   1.585   5.622   7.387 -0.4791  1.8096 -1.1135
  179SOPE   H8Y20458   1.481   5.479   7.341 -0.6791 -0.7987  1.7540
  179SOPE   C3920459   1.382   5.632   7.458  0.1154 -0.0560 -0.3878
  179SOPE   H9X20460   1.393   5.742   7.468 -1.2186 -0.0134  1.0052
  179SOPE   H9Y20461   1.404   5.589   7.558 -0.5144 -1.8931 -0.9981
  179SOPE  C31020462   1.235   5.596   7.429  0.1595 -0.1073 -0.5634
  179SOPE  H10X20463   1.200   5.656   7.343  1.8876 -1.2527 -2.1442
  179SOPE  H10Y20464   1.181   5.624   7.522  0.2916  0.1463 -0.5642
  179SOPE  C31120465   1.219   5.449   7.381 -0.3668  0.0793 -0.5112
  179SOPE  H11X20466   1.278   5.387   7.452 -0.0877  2.5934  1.6296
  179SOPE  H11Y20467   1.253   5.438   7.276 -1.9016  1.2033 -1.1689
  179SOPE  C31220468   1.068   5.409   7.393  0.5276  0.0286  0.6029
  179SOPE  H12X20469   1.008   5.488   7.342 -0.6846 -2.1225 -1.5871
  179SOPE  H12Y20470   1.033   5.401   7.498 -1.3333  0.0997  0.0309
  179SOPE  C31320471   1.040   5.280   7.300 -0.0351  0.2664 -0.2980
  179SOPE  H13X20472   0.971   5.211   7.354  3.6548 -1.3027  2.8789
  179SOPE  H13Y20473   1.142   5.237   7.286  0.3915  0.7455  1.1669
  179SOPE  C31420474   0.974   5.311   7.165  0.3630  0.8198 -0.5559
  179SOPE  H14X20475   0.888   5.380   7.179 -1.2113 -1.0844 -0.3987
  179SOPE  H14Y20476   0.926   5.224   7.115  0.9624  0.5539 -0.6688
  179SOPE  C31520477   1.082   5.375   7.071 -0.0396  0.1917  0.1578
  179SOPE  H15X20478   1.172   5.310   7.062 -1.3556 -1.8775  1.0718
  179SOPE  H15Y20479   1.118   5.461   7.132  0.0325 -0.7543  1.4884
  179SOPE  C31620480   1.023   5.427   6.940 -0.6073  0.5543 -0.6340
  179SOPE  H16X20481   0.919   5.466   6.937 -0.3458  1.2313 -1.1153
  179SOPE  H16Y20482   1.034   5.340   6.872  0.2113 -0.3587  0.6286
  179SOPE  C31720483   1.112   5.537   6.878 -0.3885 -0.6509  0.1572
  179SOPE  H17X20484   1.106   5.535   6.767  0.5206  1.7148  0.0027
  179SOPE  H17Y20485   1.220   5.521   6.900 -0.0142  0.7460 -0.5624
  179SOPE  C31820486   1.086   5.679   6.932 -0.0738  0.1751  0.5200
  179SOPE  H18X20487   1.106   5.693   7.040  1.2578  0.4953  0.2496
  179SOPE  H18Y20488   0.987   5.713   6.894  0.4145 -1.3073 -2.4431
  179SOPE  H18Z20489   1.152   5.751   6.878  0.8386 -1.2579 -0.3420
  180SOPE     N20490   6.295   1.296   6.440 -0.3740 -0.5603 -0.1214
  180SOPE   HN120491   6.386   1.320   6.397  0.2529 -1.9983  0.3152
  180SOPE   HN220492   6.286   1.336   6.536 -1.7196 -0.8225 -0.1161
  180SOPE   HN320493   6.278   1.194   6.454 -2.0213 -0.6295 -2.1798
  180SOPE   C1220494   6.187   1.354   6.354  0.8363  0.2422  0.3691
  180SOPE  H12A20495   6.090   1.304   6.374  0.2679  0.9759 -0.4391
  180SOPE  H12B20496   6.196   1.334   6.245 -2.1764 -0.0632  0.1132
  180SOPE   C1120497   6.167   1.504   6.386 -0.1987 -0.4559 -0.4757
  180SOPE  H11A20498   6.141   1.526   6.492  2.3710  1.2364 -0.0841
  180SOPE  H11B20499   6.087   1.542   6.318 -0.1082 -0.0211 -0.3446
  180SOPE     P20500   6.296   1.728   6.359 -0.3148 -0.1469 -0.5181
  180SOPE   O1320501   6.159   1.782   6.386 -0.0565  1.1195 -0.8800
  180SOPE   O1420502   6.355   1.751   6.224  0.1025 -0.1572 -0.4612
  180SOPE   O1220503   6.296   1.570   6.383 -0.7077 -0.3266  0.0085
  180SOPE   O1120504   6.390   1.783   6.471 -0.4291 -0.1639  0.0355
  180SOPE    C120505   6.526   1.748   6.477 -0.6397  0.7344  0.0978
  180SOPE    HA20506   6.576   1.782   6.384  0.2711  1.7764  0.9408
  180SOPE    HB20507   6.526   1.637   6.482 -1.3498  0.7813  1.4491
  180SOPE    C220508   6.590   1.800   6.602  0.0533 -0.3161 -0.2084
  180SOPE    HS20509   6.578   1.910   6.591  0.3536 -0.2846 -0.2263
  180SOPE   O2120510   6.731   1.764   6.606  0.0833 -0.3197  0.3932
  180SOPE   C2120511   6.807   1.834   6.522 -1.0169  0.0226 -0.1145
  180SOPE   O2220512   6.774   1.925   6.446 -0.4575  0.1680 -0.3071
  180SOPE   C2220513   6.954   1.809   6.571  0.6303 -0.2617  0.2775
  180SOPE   H2R20514   7.022   1.787   6.486  0.1691  0.3874 -0.2697
  180SOPE   H2S20515   6.958   1.721   6.639 -0.3481 -1.2199 -0.8606
  180SOPE    C320516   6.517   1.744   6.726 -0.3936  0.2457  0.0411
  180SOPE    HX20517   6.526   1.635   6.706  0.7604 -0.0703  1.9904
  180SOPE    HY20518   6.410   1.772   6.718 -0.1169  1.9320  1.7129
  180SOPE   O3120519   6.567   1.786   6.858 -0.3082 -0.6748  0.4624
  180SOPE   C3120520   6.651   1.703   6.907 -0.3138 -0.3576 -0.8418
  180SOPE   O3220521   6.693   1.597   6.859 -0.5437 -0.2866  0.0855
  180SOPE   C3220522   6.691   1.750   7.044  0.4188  0.5007 -0.7221
  180SOPE   H2X20523   6.609   1.809   7.092 -0.6129 -0.7403 -0.8942
  180SOPE   H2Y20524   6.777   1.820   7.049 -0.9345  2.3356 -1.5372
  180SOPE   C2320525   7.017   1.932   6.637 -0.2592  0.1322 -0.0481
  180SOPE   H3R20526   6.977   2.022   6.588 -0.3461  0.3048  0.3383
  180SOPE   H3S20527   7.128   1.939   6.630  0.0630  3.2000  4.0986
  180SOPE   C2420528   6.976   1.936   6.783 -0.3513  0.7540 -0.7632
  180SOPE   H4R20529   6.882   1.879   6.800 -0.4609  0.3742 -2.4434
  180SOPE   H4S20530   7.053   1.887   6.847 -1.3872 -0.6493 -0.5542
  180SOPE   C2520531   6.955   2.077   6.836 -1.2162  0.2658 -0.1870
  180SOPE   H5R20532   7.058   2.118   6.827 -1.4010  0.7664 -0.0287
  180SOPE   H5S20533   6.891   2.139   6.770  0.8380  1.8067 -0.8545
  180SOPE   C2620534   6.901   2.094   6.978  0.4330 -0.1286  0.4150
  180SOPE   H6R20535   6.793   2.067   6.986  1.0042 -2.0549  2.7949
  180SOPE   H6S20536   6.966   2.029   7.042 -1.6869 -2.4421  0.3825
  180SOPE   C2720537   6.908   2.238   7.024 -0.5613  0.3869 -0.5288
  180SOPE   H7R20538   7.013   2.269   7.007 -0.1529  0.7990  2.2653
  180SOPE   H7S20539   6.842   2.299   6.959  0.5517  1.5560 -0.6059
  180SOPE   C2820540   6.878   2.250   7.179 -0.2739 -0.4311  0.4672
  180SOPE   H8R20541   6.767   2.254   7.190 -0.5634 -0.2372 -1.8710
  180SOPE   H8S20542   6.925   2.168   7.236  2.2782 -0.6010 -1.6594
  180SOPE   C2920543   6.927   2.379   7.240 -0.3289 -1.0581 -0.2918
  180SOPE   H9120544   7.036   2.385   7.250 -0.5607  1.6907  1.6025
  180SOPE  C21020545   6.854   2.491   7.271 -0.4242  0.4296  0.1461
  180SOPE  H10120546   6.903   2.586   7.301 -2.0552  1.9077 -1.6544
  180SOPE  C21120547   6.704   2.510   7.244 -0.0355  0.3707 -0.6706
  180SOPE  H11R20548   6.661   2.421   7.193  1.9342 -0.8679 -0.2693
  180SOPE  H11S20549   6.705   2.601   7.181  3.4287  2.4519  2.0080
  180SOPE  C21220550   6.635   2.551   7.374 -0.0555  0.4341  0.9843
  180SOPE  H12R20551   6.531   2.583   7.353 -0.4824 -0.5605  1.4955
  180SOPE  H12S20552   6.687   2.637   7.420  3.8946 -1.5876  0.7506
  180SOPE  C21320553   6.626   2.420   7.464  0.3167  0.4714  0.8738
  180SOPE  H13R20554   6.724   2.372   7.482 -0.3984 -1.9714 -1.1423
  180SOPE  H13S20555   6.573   2.339   7.411  2.2858  0.0268 -0.5129
  180SOPE  C21420556   6.538   2.432   7.589  0.4830 -0.2260  0.3058
  180SOPE  H14R20557   6.541   2.336   7.644  0.1629 -1.3607 -1.5902
  180SOPE  H14S20558   6.435   2.468   7.564  0.7528  0.4256  0.1032
  180SOPE  C21520559   6.594   2.546   7.681  0.8881 -0.6136  0.2431
  180SOPE  H15R20560   6.588   2.647   7.634  1.4801 -0.2623  0.9073
  180SOPE  H15S20561   6.704   2.533   7.690  1.0889 -0.8598 -1.9629
  180SOPE  C21620562   6.526   2.554   7.818  0.5028  0.4692  0.0918
  180SOPE  H16R20563   6.523   2.451   7.860  0.7786  0.9966  1.4466
  180SOPE  H16S20564   6.419   2.573   7.795  0.4266  1.9818  1.5018
  180SOPE  C21720565   6.583   2.652   7.921 -0.6294  0.0579 -0.2373
  180SOPE  H17R20566   6.562   2.753   7.880 -1.6542 -1.2587 -3.3098
  180SOPE  H17S20567   6.693   2.647   7.937 -0.5875  0.1670 -0.4818
  180SOPE  C21820568   6.524   2.640   8.056  0.5828  0.0889 -0.4910
  180SOPE  H18R20569   6.418   2.671   8.047 -0.5266 -3.2322 -0.1422
  180SOPE  H18S20570   6.567   2.709   8.132 -1.3394  0.2912  0.4775
  180SOPE  H18T20571   6.520   2.533   8.086 -2.2455 -0.5246 -2.6117
  180SOPE   C3320572   6.707   1.631   7.131 -0.0910  1.1660 -0.1299
  180SOPE   H3X20573   6.809   1.587   7.127 -0.4169  0.3862  0.0086
  180SOPE   H3Y20574   6.632   1.552   7.109  1.2709 -0.9590  2.3220
  180SOPE   C3420575   6.690   1.670   7.279  0.1721 -0.2603  0.0964
  180SOPE   H4X20576   6.707   1.574   7.332 -0.0778  0.3596  1.3301
  180SOPE   H4Y20577   6.586   1.701   7.304 -1.0069 -2.5136 -1.6699
  180SOPE   C3520578   6.775   1.788   7.325 -0.3327  0.4466 -0.1886
  180SOPE   H5X20579   6.737   1.884   7.284  0.1632 -0.0067 -1.8184
  180SOPE   H5Y20580   6.874   1.777   7.275  0.4613 -2.3368  1.7787
  180SOPE   C3620581   6.776   1.800   7.477 -0.2544 -0.0976  0.0319
  180SOPE   H6X20582   6.835   1.714   7.516  2.6138  2.8040  2.6978
  180SOPE   H6Y20583   6.673   1.784   7.516 -0.0935 -0.0038  0.4936
  180SOPE   C3720584   6.826   1.928   7.532  0.9535 -0.0807 -0.2168
  180SOPE   H7X20585   6.743   2.001   7.540  1.4036  0.5307 -1.0386
  180SOPE   H7Y20586   6.895   1.982   7.465  2.7459 -1.3003  0.5639
  180SOPE   C3820587   6.904   1.921   7.665 -1.0082  0.2281  0.2956
  180SOPE   H8X20588   6.996   1.861   7.648 -0.3254  0.8131  1.7857
  180SOPE   H8Y20589   6.849   1.868   7.746 -2.6068  0.9801 -0.2557
  180SOPE   C3920590   6.961   2.056   7.708  0.3048 -0.4006  0.3502
  180SOPE   H9X20591   7.004   2.116   7.625 -1.0795 -1.6383 -1.3465
  180SOPE   H9Y20592   7.048   2.039   7.774  1.8425 -1.1657 -1.7698
  180SOPE  C31020593   6.870   2.139   7.800  0.9355  1.1180  0.4394
  180SOPE  H10X20594   6.830   2.066   7.873 -0.3997  1.3711 -0.0191
  180SOPE  H10Y20595   6.788   2.183   7.739  1.9050 -0.0746 -1.8346
  180SOPE  C31120596   6.952   2.257   7.864 -0.1953 -0.2993 -0.3226
  180SOPE  H11X20597   6.992   2.313   7.777 -1.4050 -0.6195 -1.1156
  180SOPE  H11Y20598   7.038   2.216   7.921  0.9907  3.6782  1.0694
  180SOPE  C31220599   6.867   2.346   7.952 -0.7602  0.4240 -0.7794
  180SOPE  H12X20600   6.827   2.289   8.039  0.9948  1.2134  0.5983
  180SOPE  H12Y20601   6.777   2.374   7.893 -0.7657  1.6932 -0.1811
  180SOPE  C31320602   6.933   2.469   8.010 -0.1513  0.8046 -0.5671
  180SOPE  H13X20603   7.004   2.440   8.091 -2.2441  0.6693  1.3225
  180SOPE  H13Y20604   6.846   2.515   8.061  0.5389  0.7616  0.6970
  180SOPE  C31420605   6.991   2.572   7.919 -0.5317  0.8890 -0.3487
  180SOPE  H14X20606   6.913   2.596   7.843 -1.8394  0.0009  0.6539
  180SOPE  H14Y20607   7.090   2.537   7.883  0.8595  0.0797  3.7229
  180SOPE  C31520608   7.035   2.694   8.005  0.4020  0.2506  0.1857
  180SOPE  H15X20609   7.063   2.646   8.101  0.3790 -0.8418 -0.3399
  180SOPE  H15Y20610   6.949   2.762   8.023 -0.4676 -0.8571  0.3581
  180SOPE  C31620611   7.149   2.774   7.944 -0.3042  0.2582  0.0840
  180SOPE  H16X20612   7.133   2.797   7.837 -1.0796 -0.0833  0.1198
  180SOPE  H16Y20613   7.240   2.711   7.935 -0.0928  0.5104  0.4319
  180SOPE  C31720614   7.191   2.905   8.008 -0.6436 -0.0891 -0.4230
  180SOPE  H17X20615   7.116   2.985   7.991 -0.4892 -0.1936 -1.7162
  180SOPE  H17Y20616   7.289   2.937   7.966 -1.1741 -0.2860 -1.8721
  180SOPE  C31820617   7.223   2.888   8.159 -0.3874 -0.9844 -0.5981
  180SOPE  H18X20618   7.286   2.802   8.191  0.3268 -0.1519  0.2608
  180SOPE  H18Y20619   7.128   2.884   8.217  0.4619  0.3091  0.9666
  180SOPE  H18Z20620   7.266   2.982   8.198 -1.2524 -0.9277  0.2811
  181SOPE     N20621   0.041   4.305   5.972 -0.1542 -0.0065  0.1015
  181SOPE   HN120622  -0.010   4.234   5.916  2.0682 -0.7970 -1.0547
  181SOPE   HN220623   0.025   4.398   5.928 -0.0841  0.4821  1.0836
  181SOPE   HN320624   0.141   4.305   5.943 -0.5553  0.7126 -1.3850
  181SOPE   C1220625   0.010   4.329   6.116  0.1957  0.2354 -0.5640
  181SOPE  H12A20626   0.111   4.351   6.158  0.4825 -1.5191 -0.2394
  181SOPE  H12B20627  -0.029   4.231   6.153  1.0616 -0.3941 -1.2811
  181SOPE   C1120628  -0.101   4.431   6.133 -0.5958 -0.2479 -0.8151
  181SOPE  H11A20629  -0.060   4.524   6.089 -1.7559  0.8571  0.3648
  181SOPE  H11B20630  -0.115   4.443   6.242  4.4100 -0.5978  0.1165
  181SOPE     P20631  -0.330   4.462   5.998 -0.1339 -0.1360 -0.2997
  181SOPE   O1320632  -0.419   4.360   5.939 -0.2876 -0.0672  0.2001
  181SOPE   O1420633  -0.271   4.564   5.910 -0.1139 -0.0595 -0.5943
  181SOPE   O1220634  -0.219   4.382   6.077 -0.4586 -0.6028  0.6120
  181SOPE   O1120635  -0.413   4.529   6.116 -0.2394 -0.7507 -0.5310
  181SOPE    C120636  -0.472   4.453   6.224 -0.1743  0.1935  0.5227
  181SOPE    HA20637  -0.470   4.345   6.198 -1.5093  1.1238 -4.5148
  181SOPE    HB20638  -0.574   4.486   6.253  0.1777  0.3246  1.6781
  181SOPE    C220639  -0.382   4.481   6.349 -0.4273 -0.6559 -0.3294
  181SOPE    HS20640  -0.301   4.405   6.355  0.7591  0.5927 -0.0520
  181SOPE   O2120641  -0.460   4.484   6.470 -0.1738  0.1084  0.3053
  181SOPE   C2120642  -0.498   4.368   6.514  0.1507  0.5159 -1.3517
  181SOPE   O2220643  -0.481   4.256   6.465  0.5722  0.0472 -0.0156
  181SOPE   C2220644  -0.577   4.394   6.649  0.9528  0.2127  0.8861
  181SOPE   H2R20645  -0.647   4.309   6.648  2.4852 -1.1016  0.4285
  181SOPE   H2S20646  -0.633   4.490   6.642  2.4144  1.2564  2.4646
  181SOPE    C320647  -0.320   4.627   6.339  0.3144  0.1962 -0.6391
  181SOPE    HX20648  -0.393   4.708   6.318  1.6802  1.4288 -0.7646
  181SOPE    HY20649  -0.255   4.622   6.249 -0.8675 -1.4734 -1.4633
  181SOPE   O3120650  -0.238   4.666   6.458  0.4485  0.3601 -0.2395
  181SOPE   C3120651  -0.301   4.709   6.569 -0.6213  0.0435  0.7515
  181SOPE   O3220652  -0.413   4.753   6.569  0.0665 -0.0453  0.0792
  181SOPE   C3220653  -0.209   4.707   6.687  0.7852  0.7082 -0.1982
  181SOPE   H2X20654  -0.128   4.782   6.672  0.3047  1.0930 -0.8795
  181SOPE   H2Y20655  -0.169   4.604   6.700 -0.4373  0.2989  0.5713
  181SOPE   C2320656  -0.494   4.407   6.783  0.0430  0.3343  0.0177
  181SOPE   H3R20657  -0.562   4.418   6.870 -0.8854 -0.7349 -0.5381
  181SOPE   H3S20658  -0.427   4.495   6.773  0.3503  0.4510  2.5757
  181SOPE   C2420659  -0.405   4.282   6.801 -1.2192  0.3921 -0.3236
  181SOPE   H4R20660  -0.470   4.206   6.850  0.8397 -1.5224 -0.4151
  181SOPE   H4S20661  -0.378   4.234   6.705  1.1825 -1.0136  0.9499
  181SOPE   C2520662  -0.274   4.318   6.888  0.2836 -0.8223  0.1598
  181SOPE   H5R20663  -0.210   4.227   6.888 -0.7050 -1.5503 -1.2104
  181SOPE   H5S20664  -0.219   4.398   6.835  1.1333 -0.4929  1.4836
  181SOPE   C2620665  -0.297   4.378   7.024  0.3593  0.5600  0.1777
  181SOPE   H6R20666  -0.198   4.417   7.056  1.0408  0.4454 -1.6622
  181SOPE   H6S20667  -0.368   4.463   7.018  0.9717  1.0423 -0.3162
  181SOPE   C2720668  -0.339   4.269   7.123  0.2850 -0.4700  0.0384
  181SOPE   H7R20669  -0.417   4.204   7.077 -0.2544 -0.0553  0.3574
  181SOPE   H7S20670  -0.249   4.209   7.145  1.2359  1.3878  1.4722
  181SOPE   C2820671  -0.380   4.337   7.257 -0.0585 -0.3908  0.6052
  181SOPE   H8R20672  -0.302   4.414   7.278 -1.9190  1.4311  1.2249
  181SOPE   H8S20673  -0.481   4.380   7.237  1.1589  1.4841 -2.1011
  181SOPE   C2920674  -0.388   4.259   7.381  0.1144 -0.7937  0.1277
  181SOPE   H9120675  -0.385   4.154   7.351  0.5987 -0.5477 -0.7068
  181SOPE  C21020676  -0.387   4.291   7.508 -0.2926  0.4071 -0.2297
  181SOPE  H10120677  -0.394   4.217   7.589  0.2548  1.2631  0.6326
  181SOPE  C21120678  -0.379   4.434   7.555  0.0441 -0.3410 -0.2714
  181SOPE  H11R20679  -0.482   4.472   7.571  1.1126  2.6449  0.1556
  181SOPE  H11S20680  -0.334   4.508   7.486  2.6566  0.5165  2.2003
  181SOPE  C21220681  -0.287   4.450   7.674 -0.4996 -0.4691  0.3031
  181SOPE  H12R20682  -0.287   4.558   7.703  0.9315  0.0858 -1.5603
  181SOPE  H12S20683  -0.185   4.410   7.652  0.5223  0.3406  3.0637
  181SOPE  C21320684  -0.330   4.384   7.796  0.8341  0.2019  0.3533
  181SOPE  H13R20685  -0.310   4.274   7.798 -0.4608 -0.0548 -0.2343
  181SOPE  H13S20686  -0.435   4.400   7.828  0.4825 -0.3666 -0.4731
  181SOPE  C21420687  -0.253   4.445   7.915 -0.2725 -0.8079 -0.7790
  181SOPE  H14R20688  -0.297   4.546   7.928  0.2074 -0.6498 -0.3420
  181SOPE  H14S20689  -0.146   4.447   7.887 -0.6613  0.4173 -2.2718
  181SOPE  C21520690  -0.277   4.368   8.046  0.3236  0.5983 -0.1080
  181SOPE  H15R20691  -0.282   4.261   8.019 -1.6080  0.5312  0.3253
  181SOPE  H15S20692  -0.378   4.394   8.086  0.4647  1.4848 -0.3126
  181SOPE  C21620693  -0.167   4.377   8.150  0.2499  0.0691  0.4647
  181SOPE  H16R20694  -0.064   4.368   8.109  0.1033 -2.5897  0.4728
  181SOPE  H16S20695  -0.153   4.288   8.215  0.5208 -0.4176 -0.2487
  181SOPE  C21720696  -0.178   4.495   8.248  0.9930  0.3274 -0.2460
  181SOPE  H17R20697  -0.261   4.466   8.316  0.5478  0.3069 -0.7851
  181SOPE  H17S20698  -0.206   4.584   8.187 -2.5615  0.1724  0.9373
  181SOPE  C21820699  -0.047   4.513   8.321  0.2067  0.5587  0.1980
  181SOPE  H18R20700  -0.003   4.415   8.348  2.4571  0.3457 -3.4693
  181SOPE  H18S20701  -0.070   4.582   8.405 -2.4888 -0.6147  0.5190
  181SOPE  H18T20702   0.032   4.546   8.249 -0.5143  0.0763 -0.8431
  181SOPE   C3320703  -0.271   4.761   6.816 -0.3625  0.2148 -0.4402
  181SOPE   H3X20704  -0.358   4.700   6.847 -2.1098  2.7404 -0.0732
  181SOPE   H3Y20705  -0.310   4.865   6.815  2.9473  1.7020  2.9634
  181SOPE   C3420706  -0.162   4.743   6.927  0.0359 -0.1795 -0.2707
  181SOPE   H4X20707  -0.061   4.785   6.905  1.4892 -3.0278  0.3428
  181SOPE   H4Y20708  -0.150   4.633   6.940  1.7053  0.1558  1.5564
  181SOPE   C3520709  -0.203   4.791   7.064  0.7318 -0.0917  0.9298
  181SOPE   H5X20710  -0.305   4.762   7.096  1.0678  0.5123  2.6972
  181SOPE   H5Y20711  -0.200   4.902   7.065  2.2860 -0.1172  1.0324
  181SOPE   C3620712  -0.130   4.740   7.186 -0.3615  0.5357  0.4450
  181SOPE   H6X20713  -0.031   4.791   7.185 -0.1131  0.2101  2.5801
  181SOPE   H6Y20714  -0.101   4.633   7.182  2.8456  1.3107  0.5012
  181SOPE   C3720715  -0.180   4.781   7.323 -0.3374  0.3538  0.2698
  181SOPE   H7X20716  -0.261   4.706   7.335 -0.2374  0.4411  1.6405
  181SOPE   H7Y20717  -0.221   4.884   7.334  2.3005  1.2526  3.8298
  181SOPE   C3820718  -0.078   4.779   7.439  1.0859 -0.2282 -0.5195
  181SOPE   H8X20719  -0.000   4.855   7.418  1.1933  0.3782  1.8004
  181SOPE   H8Y20720  -0.014   4.688   7.452  0.0354 -0.6570  2.3414
  181SOPE   C3920721  -0.151   4.821   7.569 -0.3099  0.2124 -0.5047
  181SOPE   H9X20722  -0.244   4.762   7.577  0.6569 -1.1050  1.9021
  181SOPE   H9Y20723  -0.185   4.925   7.550 -2.4725 -0.6145 -1.4825
  181SOPE  C31020724  -0.078   4.814   7.701 -0.5162 -0.0102 -0.3638
  181SOPE  H10X20725   0.014   4.877   7.694 -0.4214 -0.2872 -1.8443
  181SOPE  H10Y20726  -0.046   4.710   7.722  1.4920 -0.1153 -3.3134
  181SOPE  C31120727  -0.171   4.849   7.815 -0.1928 -0.0588 -0.1949
  181SOPE  H11X20728  -0.249   4.769   7.818  2.3057 -2.6656  0.5903
  181SOPE  H11Y20729  -0.213   4.947   7.788 -1.0179  0.4980  2.7639
  181SOPE  C31220730  -0.093   4.849   7.948 -0.5093  0.6968  0.2260
  181SOPE  H12X20731  -0.020   4.927   7.917 -0.6013  0.5742 -0.3004
  181SOPE  H12Y20732  -0.033   4.758   7.969 -0.6983 -0.0580 -2.1930
  181SOPE  C31320733  -0.179   4.897   8.069  0.2104 -0.4014  0.8067
  181SOPE  H13X20734  -0.246   4.811   8.090 -0.2172  0.0717  1.4227
  181SOPE  H13Y20735  -0.238   4.986   8.039 -0.1697 -0.2915  1.8487
  181SOPE  C31420736  -0.097   4.934   8.193 -0.1473 -0.1625  0.3253
  181SOPE  H14X20737  -0.030   5.016   8.162  2.1116 -2.2628 -0.6743
  181SOPE  H14Y20738  -0.029   4.856   8.234 -1.0949 -1.0289  0.3201
  181SOPE  C31520739  -0.192   4.977   8.303  0.6221 -0.1234 -0.1682
  181SOPE  H15X20740  -0.277   4.909   8.321  1.1659 -0.6055  0.7089
  181SOPE  H15Y20741  -0.231   5.074   8.266  1.5950  1.7920  3.3583
  181SOPE  C31620742  -0.125   5.008   8.436 -0.0403 -0.2262  0.8644
  181SOPE  H16X20743  -0.028   5.061   8.418 -1.3102  1.6698 -0.8751
  181SOPE  H16Y20744  -0.099   4.915   8.492  3.2390  0.1637  0.2230
  181SOPE  C31720745  -0.208   5.103   8.530 -0.3511 -0.5689 -0.1620
  181SOPE  H17X20746  -0.235   5.202   8.488  0.8808  0.1986  0.7957
  181SOPE  H17Y20747  -0.146   5.140   8.614 -0.3062  2.2493 -1.3283
  181SOPE  C31820748  -0.330   5.032   8.571 -0.2504 -0.0096  0.1608
  181SOPE  H18X20749  -0.377   5.094   8.650  3.6892  0.6438  2.2310
  181SOPE  H18Y20750  -0.314   4.931   8.616 -1.8682 -0.6415 -0.5805
  181SOPE  H18Z20751  -0.398   5.031   8.483  0.6310 -0.8748 -0.5297
  182SOPE     N20752   0.132   6.264   5.987 -0.3174 -0.3207 -0.5428
  182SOPE   HN120753   0.066   6.206   6.042  1.1421 -1.3019  0.2225
  182SOPE   HN220754   0.202   6.207   5.936  1.0077  1.9477 -1.4056
  182SOPE   HN320755   0.175   6.324   6.061 -0.5782  2.0919 -2.2235
  182SOPE   C1220756   0.057   6.358   5.900  0.1161  0.2668 -0.1101
  182SOPE  H12A20757  -0.011   6.296   5.837  0.1566 -0.7317  0.8150
  182SOPE  H12B20758   0.125   6.416   5.834 -2.6490  4.2902  0.2046
  182SOPE   C1120759  -0.006   6.468   5.984 -0.2096 -0.1603  0.6498
  182SOPE  H11A20760  -0.093   6.412   6.025 -0.5459  1.3463  2.0655
  182SOPE  H11B20761  -0.037   6.555   5.922  2.1104  1.0063  1.0209
  182SOPE     P20762   0.015   6.578   6.210 -0.2315  0.2226 -0.2518
  182SOPE   O1320763  -0.067   6.678   6.147  0.5508  0.4995  0.0354
  182SOPE   O1420764   0.115   6.628   6.301 -0.5716  0.2905  0.6595
  182SOPE   O1220765   0.091   6.515   6.084  0.4140  0.6820 -0.1446
  182SOPE   O1120766  -0.073   6.469   6.274 -0.0102  0.5508 -0.3070
  182SOPE    C120767  -0.153   6.512   6.394 -0.0658  0.2318  0.0051
  182SOPE    HA20768  -0.258   6.480   6.377  0.4460 -2.3977  1.1757
  182SOPE    HB20769  -0.162   6.620   6.416 -0.2575  0.2815 -0.3186
  182SOPE    C220770  -0.102   6.444   6.524 -0.2538 -0.3360 -0.5441
  182SOPE    HS20771  -0.171   6.470   6.607  1.0576  1.7300 -0.0171
  182SOPE   O2120772   0.034   6.481   6.552  0.3685  0.5380 -0.4845
  182SOPE   C2120773   0.041   6.601   6.614 -0.9210  0.1936  0.2525
  182SOPE   O2220774  -0.045   6.687   6.624  0.3298  0.3375  0.2205
  182SOPE   C2220775   0.186   6.616   6.658 -0.3074  0.5484  0.4836
  182SOPE   H2R20776   0.234   6.682   6.582 -0.7431 -0.3256 -0.5868
  182SOPE   H2S20777   0.240   6.519   6.659  0.8578  1.1899  0.9183
  182SOPE    C320778  -0.115   6.295   6.496 -0.1532  0.7474 -0.8270
  182SOPE    HX20779  -0.069   6.271   6.398 -1.1543 -0.8571 -0.9374
  182SOPE    HY20780  -0.224   6.273   6.488 -0.5420  0.1266  3.5696
  182SOPE   O3120781  -0.063   6.218   6.606 -0.4969  0.0678 -0.5666
  182SOPE   C3120782  -0.051   6.087   6.581 -0.6481 -0.7948  0.7622
  182SOPE   O3220783  -0.100   6.032   6.485  0.3330 -0.4768 -0.1025
  182SOPE   C3220784   0.014   6.024   6.697  0.7419  0.4011  0.0195
  182SOPE   H2X20785  -0.056   6.006   6.782  1.4903  0.5407  0.6737
  182SOPE   H2Y20786   0.093   6.091   6.737 -0.9218 -0.0606  4.6845
  182SOPE   C2320787   0.199   6.663   6.800  0.4255  0.5954  0.2601
  182SOPE   H3R20788   0.136   6.752   6.820 -3.0152 -0.5260 -3.9816
  182SOPE   H3S20789   0.309   6.673   6.814  0.4508 -0.4635  0.9607
  182SOPE   C2420790   0.166   6.550   6.897 -0.5342 -0.3041 -0.0303
  182SOPE   H4R20791   0.060   6.518   6.898 -1.2513  1.9617  0.4351
  182SOPE   H4S20792   0.205   6.454   6.856 -2.0693 -0.9551 -0.0346
  182SOPE   C2520793   0.215   6.576   7.041 -0.1120 -0.1740  0.3448
  182SOPE   H5R20794   0.323   6.601   7.030  0.5349 -3.2792 -1.6503
  182SOPE   H5S20795   0.161   6.659   7.093  0.8794  0.7069  0.0137
  182SOPE   C2620796   0.210   6.452   7.129 -0.4885 -0.0737  0.0383
  182SOPE   H6R20797   0.108   6.414   7.148 -0.9573 -0.0627 -2.1612
  182SOPE   H6S20798   0.263   6.375   7.070 -1.8729  0.6937 -2.3366
  182SOPE   C2720799   0.273   6.469   7.270  0.3805 -0.3220 -0.0858
  182SOPE   H7R20800   0.345   6.553   7.268 -0.8490  0.7740 -2.1313
  182SOPE   H7S20801   0.198   6.490   7.349  1.8587  1.1481  1.0041
  182SOPE   C2820802   0.361   6.352   7.323  0.2122  0.0748  0.6240
  182SOPE   H8R20803   0.442   6.325   7.250 -1.4428 -0.1032 -1.2293
  182SOPE   H8S20804   0.407   6.397   7.413 -0.9948  0.5933  0.9953
  182SOPE   C2920805   0.283   6.225   7.342  0.3253  0.7225  0.1455
  182SOPE   H9120806   0.187   6.210   7.292  1.3969 -0.6001 -1.5906
  182SOPE  C21020807   0.324   6.129   7.426  0.0545 -0.5911  1.0840
  182SOPE  H10120808   0.266   6.036   7.429  0.6873 -1.0907 -0.9047
  182SOPE  C21120809   0.450   6.125   7.511  0.3148  0.1252 -0.4423
  182SOPE  H11R20810   0.508   6.216   7.484  0.3338  0.0202 -0.7588
  182SOPE  H11S20811   0.516   6.042   7.480 -0.4877 -1.2875  1.4173
  182SOPE  C21220812   0.455   6.096   7.662  0.3920  0.7350 -0.9904
  182SOPE  H12R20813   0.562   6.109   7.691  0.3495 -4.0484  2.4187
  182SOPE  H12S20814   0.433   5.991   7.688 -1.8529  1.1982 -0.8873
  182SOPE  C21320815   0.362   6.183   7.739 -0.3582  0.2505  0.0374
  182SOPE  H13R20816   0.255   6.154   7.735 -0.0411 -0.9666 -0.1408
  182SOPE  H13S20817   0.365   6.286   7.697 -1.8461  0.8048  1.2024
  182SOPE  C21420818   0.402   6.197   7.889 -0.5244 -0.1729  0.0614
  182SOPE  H14R20819   0.347   6.285   7.928 -0.8186  0.5583 -1.8924
  182SOPE  H14S20820   0.509   6.226   7.900  1.1848 -4.3675 -2.8325
  182SOPE  C21520821   0.383   6.070   7.968 -0.4225 -0.6370 -0.2632
  182SOPE  H15R20822   0.462   6.000   7.934  0.6967  0.8848 -0.9062
  182SOPE  H15S20823   0.286   6.025   7.937 -0.4442  0.4027 -1.8004
  182SOPE  C21620824   0.387   6.102   8.124 -0.2172 -0.0556  0.0511
  182SOPE  H16R20825   0.464   6.175   8.157 -1.1943  0.5088  1.1113
  182SOPE  H16S20826   0.399   6.003   8.172 -0.8926  1.5557  3.8530
  182SOPE  C21720827   0.249   6.148   8.168 -1.3424 -0.7027  0.7672
  182SOPE  H17R20828   0.171   6.075   8.137  0.1057 -1.8234 -0.4382
  182SOPE  H17S20829   0.224   6.242   8.115  1.6198 -0.4494 -0.3961
  182SOPE  C21820830   0.248   6.172   8.316  0.1151 -0.2112  0.1785
  182SOPE  H18R20831   0.243   6.069   8.359 -2.1111 -0.1919  0.1018
  182SOPE  H18S20832   0.153   6.223   8.344  0.5252  0.3012  0.6357
  182SOPE  H18T20833   0.332   6.233   8.354  0.5152 -0.9267  0.4708
  182SOPE   C3320834   0.080   5.887   6.659  0.5087  0.0515  0.2134
  182SOPE   H3X20835   0.125   5.893   6.557  1.1726  2.1659  0.5905
  182SOPE   H3Y20836   0.002   5.808   6.670  1.5761 -1.0074  0.4002
  182SOPE   C3420837   0.186   5.850   6.763  0.0366 -0.1656 -0.6171
  182SOPE   H4X20838   0.277   5.912   6.750  1.4608 -1.3659  2.4525
  182SOPE   H4Y20839   0.213   5.745   6.737 -1.0296 -0.0787 -2.1885
  182SOPE   C3520840   0.154   5.867   6.915  0.4610  0.1001  0.1422
  182SOPE   H5X20841   0.051   5.829   6.932  0.3067  0.8009  0.8489
  182SOPE   H5Y20842   0.158   5.976   6.936 -0.5201  0.1463  0.0986
  182SOPE   C3620843   0.252   5.787   7.005 -0.2842  0.5443 -0.0958
  182SOPE   H6X20844   0.354   5.818   6.974 -0.2164  0.3413 -0.0737
  182SOPE   H6Y20845   0.231   5.685   6.968 -1.0477  0.5387  0.3415
  182SOPE   C3720846   0.222   5.790   7.154 -0.3221 -0.0265 -0.6333
  182SOPE   H7X20847   0.120   5.749   7.171 -1.7502  2.6754 -2.1000
  182SOPE   H7Y20848   0.231   5.894   7.191 -0.3828 -0.9079  2.1226
  182SOPE   C3820849   0.326   5.706   7.241  0.6948 -0.6349  0.2056
  182SOPE   H8X20850   0.426   5.742   7.206 -0.3816 -0.2681 -2.8476
  182SOPE   H8Y20851   0.326   5.604   7.197 -0.7957 -0.7298  0.4077
  182SOPE   C3920852   0.309   5.713   7.390 -0.3541 -0.4740  0.0675
  182SOPE   H9X20853   0.299   5.817   7.428 -2.0054 -0.7098  0.3602
  182SOPE   H9Y20854   0.401   5.670   7.435  1.0381  1.9053 -0.3387
  182SOPE  C31020855   0.188   5.633   7.441  0.0778  0.1860 -0.6592
  182SOPE  H10X20856   0.178   5.539   7.383  0.4503 -0.3618  0.1478
  182SOPE  H10Y20857   0.100   5.698   7.424 -1.2249 -0.0988  3.7181
  182SOPE  C31120858   0.189   5.600   7.588 -0.2834  0.1811 -0.1227
  182SOPE  H11X20859   0.287   5.559   7.620  0.2622  1.2429 -0.3922
  182SOPE  H11Y20860   0.108   5.534   7.625 -1.0005  0.5159 -1.0694
  182SOPE  C31220861   0.156   5.726   7.672 -0.1704 -0.5382  0.2781
  182SOPE  H12X20862   0.052   5.756   7.646  0.5318  0.1597 -1.9855
  182SOPE  H12Y20863   0.227   5.807   7.644 -0.9699  0.6628  1.6250
  182SOPE  C31320864   0.160   5.702   7.826  0.1792 -0.2939  0.3220
  182SOPE  H13X20865   0.104   5.608   7.845 -2.7086  1.4536  1.1453
  182SOPE  H13Y20866   0.103   5.777   7.886  0.0281 -1.3954  1.6150
  182SOPE  C31420867   0.312   5.701   7.864  0.4660 -0.7986 -0.1731
  182SOPE  H14X20868   0.361   5.798   7.842 -0.4230 -0.3446 -0.2092
  182SOPE  H14Y20869   0.354   5.615   7.806  1.1880  0.5962 -1.8327
  182SOPE  C31520870   0.334   5.685   8.011 -0.1887 -0.4196  0.3368
  182SOPE  H15X20871   0.271   5.612   8.065 -2.4348  0.4912 -0.9139
  182SOPE  H15Y20872   0.294   5.784   8.043 -1.6705  0.0737 -2.7088
  182SOPE  C31620873   0.484   5.693   8.055  0.1108  0.1952  0.5993
  182SOPE  H16X20874   0.530   5.775   7.996 -1.5434  0.1106 -0.8896
  182SOPE  H16Y20875   0.539   5.601   8.024 -1.1810  0.1904 -1.9789
  182SOPE  C31720876   0.510   5.726   8.203  0.3182  0.4186 -0.0475
  182SOPE  H17X20877   0.523   5.633   8.263  0.5132 -0.1429 -0.9353
  182SOPE  H17Y20878   0.425   5.774   8.256  2.4428  1.6614  2.5119
  182SOPE  C31820879   0.628   5.826   8.224  0.6212  0.3714  0.0781
  182SOPE  H18X20880   0.601   5.915   8.163 -1.9710 -0.0112  0.5390
  182SOPE  H18Y20881   0.725   5.781   8.192  0.2512 -1.8368  1.7916
  182SOPE  H18Z20882   0.637   5.849   8.333  2.2629 -0.3142  0.1191
  183SOPE     N20883   1.432   2.147   5.992 -0.4646  0.2783  0.0823
  183SOPE   HN120884   1.403   2.074   5.924  1.3806 -0.5059  0.0733
  183SOPE   HN220885   1.533   2.138   6.016 -0.3855 -0.5591 -0.5246
  183SOPE   HN320886   1.369   2.137   6.074 -0.0660 -1.2660  0.2334
  183SOPE   C1220887   1.405   2.274   5.923  0.3802 -0.1153  0.9985
  183SOPE  H12A20888   1.306   2.260   5.873 -0.0503  0.3648  1.7060
  183SOPE  H12B20889   1.483   2.296   5.848  1.4297  1.7136  2.5639
  183SOPE   C1120890   1.403   2.390   6.020 -0.9490 -1.1451 -0.0724
  183SOPE  H11A20891   1.403   2.482   5.958 -0.8353 -1.0437  0.0786
  183SOPE  H11B20892   1.488   2.389   6.091 -0.3824  1.6990 -0.5855
  183SOPE     P20893   1.267   2.320   6.231 -0.3220 -0.4010  0.3160
  183SOPE   O1320894   1.275   2.175   6.217 -0.0002 -0.3184  0.4290
  183SOPE   O1420895   1.144   2.372   6.299 -0.0377  0.1774 -0.4045
  183SOPE   O1220896   1.279   2.394   6.090 -0.3977  0.3858 -0.5281
  183SOPE   O1120897   1.395   2.376   6.303  0.3114 -0.1898 -0.5236
  183SOPE    C120898   1.487   2.298   6.384 -0.8989 -1.2322 -0.3455
  183SOPE    HA20899   1.588   2.312   6.342 -0.5416  0.1913  0.9209
  183SOPE    HB20900   1.443   2.196   6.393 -2.0901 -0.7989 -0.9673
  183SOPE    C220901   1.486   2.347   6.532  0.1501  0.0251 -0.2807
  183SOPE    HS20902   1.550   2.273   6.585  1.0355 -0.3595 -1.8169
  183SOPE   O2120903   1.351   2.348   6.594 -0.0256 -0.7038  0.3010
  183SOPE   C2120904   1.302   2.233   6.630 -0.7769 -0.1513 -0.3055
  183SOPE   O2220905   1.360   2.127   6.613  0.4634  0.5363 -0.6912
  183SOPE   C2220906   1.159   2.253   6.665 -0.5741 -0.3133 -0.1301
  183SOPE   H2R20907   1.122   2.274   6.562 -1.1068  0.3416  0.1914
  183SOPE   H2S20908   1.148   2.337   6.736 -0.0963 -2.0730  2.1537
  183SOPE    C320909   1.540   2.491   6.559 -0.4909 -0.3466 -0.2117
  183SOPE    HX20910   1.474   2.571   6.519 -4.7433 -2.4283  2.0477
  183SOPE    HY20911   1.636   2.499   6.503 -1.0043  2.9618 -0.8792
  183SOPE   O3120912   1.572   2.516   6.698  0.1244 -0.3896 -0.7160
  183SOPE   C3120913   1.474   2.567   6.769  0.6013  0.3693  0.7006
  183SOPE   O3220914   1.368   2.613   6.722 -0.1933  0.0632 -0.0235
  183SOPE   C3220915   1.503   2.546   6.915  0.0121 -0.1493  0.2603
  183SOPE   H2X20916   1.599   2.586   6.956  0.0588 -2.5518  2.8366
  183SOPE   H2Y20917   1.510   2.436   6.929  0.8678  0.1464  2.6684
  183SOPE   C2320918   1.089   2.131   6.722  0.4464 -1.0645 -0.5438
  183SOPE   H3R20919   1.112   2.054   6.646  0.1560 -2.1604  0.4528
  183SOPE   H3S20920   0.983   2.161   6.734  0.3298 -0.2746 -3.0847
  183SOPE   C2420921   1.154   2.089   6.861 -0.0206 -0.1493  0.3728
  183SOPE   H4R20922   1.088   2.006   6.893  0.8690 -0.3527  1.7643
  183SOPE   H4S20923   1.257   2.056   6.833  0.0064  1.6530 -1.9143
  183SOPE   C2520924   1.161   2.204   6.964 -0.1649 -0.7359 -0.6358
  183SOPE   H5R20925   1.229   2.280   6.920 -1.3502  0.6581 -0.1687
  183SOPE   H5S20926   1.059   2.249   6.961  0.0317 -0.2522 -0.0796
  183SOPE   C2620927   1.200   2.166   7.102  0.0481 -0.3147  0.3094
  183SOPE   H6R20928   1.150   2.241   7.166  1.4075  1.4223 -0.5580
  183SOPE   H6S20929   1.165   2.065   7.129  0.4137 -0.3410  0.6905
  183SOPE   C2720930   1.352   2.173   7.126  0.2833  0.0108 -0.6561
  183SOPE   H7R20931   1.400   2.097   7.060 -0.7833  0.5497 -2.1164
  183SOPE   H7S20932   1.396   2.273   7.107  0.4882  0.5983  2.4640
  183SOPE   C2820933   1.403   2.136   7.267 -0.5593  0.0217 -0.1941
  183SOPE   H8R20934   1.351   2.042   7.296  0.8800 -1.4075 -1.9562
  183SOPE   H8S20935   1.513   2.119   7.260 -0.6942 -0.7783 -0.4964
  183SOPE   C2920936   1.388   2.249   7.371  0.0726  0.0744 -0.7349
  183SOPE   H9120937   1.452   2.334   7.340  1.1729 -0.7516 -0.7823
  183SOPE  C21020938   1.310   2.262   7.482 -0.2534  0.5256  0.1700
  183SOPE  H10120939   1.319   2.355   7.540  1.0972  0.8207 -0.4856
  183SOPE  C21120940   1.214   2.163   7.539  0.4307  0.3850 -0.5913
  183SOPE  H11R20941   1.205   2.067   7.485  1.2717  0.8420 -1.5804
  183SOPE  H11S20942   1.111   2.204   7.525  0.8316  1.0528 -1.7186
  183SOPE  C21220943   1.234   2.142   7.685  0.5457  0.1616 -0.4273
  183SOPE  H12R20944   1.336   2.107   7.708  0.2727 -1.5310 -1.5991
  183SOPE  H12S20945   1.164   2.059   7.710 -0.6128  1.6914  1.7267
  183SOPE  C21320946   1.201   2.269   7.775 -0.0545  0.1043 -0.1687
  183SOPE  H13R20947   1.101   2.316   7.757  0.8806  1.6725 -1.5320
  183SOPE  H13S20948   1.270   2.352   7.749 -0.5212  0.5955  0.1346
  183SOPE  C21420949   1.218   2.232   7.927  0.4058  0.2912 -0.2278
  183SOPE  H14R20950   1.327   2.217   7.943  0.4394  0.4412 -0.3139
  183SOPE  H14S20951   1.163   2.136   7.933 -0.9637  1.1352  2.6772
  183SOPE  C21520952   1.140   2.343   8.007  0.0371  0.1990 -0.3379
  183SOPE  H15R20953   1.134   2.307   8.112 -3.1599  1.3314 -0.0109
  183SOPE  H15S20954   1.032   2.347   7.980 -0.0814 -2.3875 -0.5247
  183SOPE  C21620955   1.207   2.484   8.025  0.6920 -0.3640 -0.3827
  183SOPE  H16R20956   1.189   2.550   7.937  0.0750 -0.0038  0.0031
  183SOPE  H16S20957   1.316   2.466   8.030  0.3248 -2.6235  0.5223
  183SOPE  C21720958   1.156   2.543   8.155  0.1771  0.1312 -0.5405
  183SOPE  H17R20959   1.050   2.518   8.176  0.7505 -1.6852  0.4579
  183SOPE  H17S20960   1.163   2.654   8.157  1.0808  0.0752  0.4464
  183SOPE  C21820961   1.235   2.495   8.276  0.1134  1.1529  0.8383
  183SOPE  H18R20962   1.175   2.515   8.367 -2.3866  0.1138 -0.4795
  183SOPE  H18S20963   1.331   2.550   8.289  1.4075 -1.0178  1.0523
  183SOPE  H18T20964   1.258   2.386   8.282  0.2885  1.1747  0.5844
  183SOPE   C3320965   1.376   2.587   6.996  0.1634  0.0280 -0.5916
  183SOPE   H3X20966   1.283   2.543   6.954 -0.5517  0.7199  0.2264
  183SOPE   H3Y20967   1.373   2.697   6.981 -0.0554  0.4744  2.1914
  183SOPE   C3420968   1.391   2.563   7.156  0.9300 -0.3148 -0.0334
  183SOPE   H4X20969   1.440   2.466   7.177 -1.7736 -1.4523  1.5978
  183SOPE   H4Y20970   1.290   2.568   7.203  0.9730  3.4393  0.0007
  183SOPE   C3520971   1.485   2.662   7.238  0.7380  0.5516  0.2550
  183SOPE   H5X20972   1.443   2.764   7.229  2.8993  1.6626  1.8398
  183SOPE   H5Y20973   1.588   2.671   7.198  0.5915 -2.9487 -1.2849
  183SOPE   C3620974   1.488   2.616   7.389 -0.0638 -0.2055  0.6168
  183SOPE   H6X20975   1.526   2.512   7.396  0.5996  0.0891  1.7550
  183SOPE   H6Y20976   1.385   2.624   7.430 -0.3891  0.4290 -0.2998
  183SOPE   C3720977   1.590   2.708   7.470 -0.2011 -0.6031 -0.0130
  183SOPE   H7X20978   1.566   2.813   7.441 -0.9012 -1.2494 -1.8904
  183SOPE   H7Y20979   1.695   2.683   7.444  0.0973  0.9837 -0.4468
  183SOPE   C3820980   1.574   2.691   7.618  0.3253 -0.5046  0.2851
  183SOPE   H8X20981   1.575   2.586   7.653  0.0186 -0.6589 -0.1539
  183SOPE   H8Y20982   1.469   2.721   7.638  0.6543  0.3544  0.7565
  183SOPE   C3920983   1.672   2.787   7.707  0.8022  0.2643  0.3978
  183SOPE   H9X20984   1.661   2.895   7.681  1.7273  0.2404 -0.1471
  183SOPE   H9Y20985   1.770   2.748   7.672  0.0729 -1.6090  0.3268
  183SOPE  C31020986   1.650   2.762   7.857 -0.5222 -0.7524 -0.1351
  183SOPE  H10X20987   1.652   2.653   7.876 -1.3242 -0.7204  0.1870
  183SOPE  H10Y20988   1.554   2.814   7.879  2.2696  4.6590  1.0099
  183SOPE  C31120989   1.766   2.828   7.941 -0.1436  1.0479 -0.0175
  183SOPE  H11X20990   1.756   2.938   7.927 -1.6205  0.8285 -0.9495
  183SOPE  H11Y20991   1.862   2.792   7.899 -1.1510 -1.3376 -0.4649
  183SOPE  C31220992   1.763   2.793   8.095 -0.0189 -0.2553  0.3953
  183SOPE  H12X20993   1.734   2.687   8.105  1.8095 -0.8193  0.0362
  183SOPE  H12Y20994   1.684   2.859   8.138  0.2777 -0.4682  1.2795
  183SOPE  C31320995   1.898   2.821   8.166  1.2421  0.9427  0.1848
  183SOPE  H13X20996   1.920   2.928   8.149  0.7413  0.8792 -0.9630
  183SOPE  H13Y20997   1.971   2.755   8.114 -0.9139 -1.5660  0.1054
  183SOPE  C31420998   1.910   2.807   8.313  0.5390  0.6530  0.0941
  183SOPE  H14X20999   1.900   2.699   8.337 -0.1214  0.4269 -1.1535
  183SOPE  H14Y21000   1.821   2.853   8.361  0.4192  1.8103 -1.2038
  183SOPE  C31521001   2.037   2.851   8.385  0.5037 -0.7999  0.1343
  183SOPE  H15X21002   2.063   2.957   8.369 -0.9257 -0.5144 -0.4516
  183SOPE  H15Y21003   2.127   2.801   8.344  0.3847  0.7729 -2.2592
  183SOPE  C31621004   2.021   2.821   8.534 -0.3066  0.7643  0.5556
  183SOPE  H16X21005   1.985   2.717   8.553  2.2013 -0.3951 -0.5737
  183SOPE  H16Y21006   1.945   2.896   8.563  0.9096  1.8164  1.1307
  183SOPE  C31721007   2.152   2.838   8.620  0.6760  0.2844 -1.4684
  183SOPE  H17X21008   2.115   2.801   8.718 -1.9368 -0.5257 -2.6864
  183SOPE  H17Y21009   2.186   2.944   8.624 -1.4649  1.0507 -2.2202
  183SOPE  C31821010   2.266   2.740   8.578 -0.7224  0.5366 -0.1640
  183SOPE  H18X21011   2.362   2.750   8.634  0.3621 -0.0208 -1.8363
  183SOPE  H18Y21012   2.292   2.763   8.473  1.7518  0.8721  0.4583
  183SOPE  H18Z21013   2.222   2.639   8.590  2.4106 -1.1100 -1.2209
  184SOPE     N21014   1.574   3.177   6.363  0.2094  0.4495  0.5722
  184SOPE   HN121015   1.642   3.167   6.441  0.4389  0.2532  0.3489
  184SOPE   HN221016   1.515   3.093   6.351 -0.4162  0.8804  0.5837
  184SOPE   HN321017   1.624   3.184   6.272 -0.9348 -3.4221 -0.5676
  184SOPE   C1221018   1.480   3.286   6.382  0.4668  0.0021  0.0854
  184SOPE  H12A21019   1.533   3.380   6.410  2.0386 -0.6581 -0.5589
  184SOPE  H12B21020   1.424   3.264   6.475 -1.2938  0.0573 -0.9252
  184SOPE   C1121021   1.392   3.317   6.264  0.3132  0.7015  0.0093
  184SOPE  H11A21022   1.447   3.357   6.176  0.9032  0.8276  0.4290
  184SOPE  H11B21023   1.329   3.403   6.295 -0.9746 -0.5395  0.9549
  184SOPE     P21024   1.196   3.147   6.302  0.1810 -0.0751  0.0043
  184SOPE   O1321025   1.239   3.015   6.346 -0.3620  0.3532  0.0963
  184SOPE   O1421026   1.073   3.147   6.217 -0.4280 -0.1080 -0.4776
  184SOPE   O1221027   1.309   3.213   6.212 -0.3980  0.6455  0.1145
  184SOPE   O1121028   1.181   3.248   6.427  0.2975  0.4555  0.0253
  184SOPE    C121029   1.082   3.348   6.421 -0.1981 -0.0129 -0.5004
  184SOPE    HA21030   0.980   3.303   6.414 -0.4672  0.3636  0.7631
  184SOPE    HB21031   1.097   3.411   6.331 -1.2034 -1.9846 -2.1359
  184SOPE    C221032   1.075   3.432   6.556  0.4285  0.1723  0.2553
  184SOPE    HS21033   1.175   3.467   6.590  0.8584 -1.7282  1.0882
  184SOPE   O2121034   1.013   3.360   6.659  0.4741  0.1284  0.7186
  184SOPE   C2121035   1.055   3.369   6.777 -0.2925  0.4123  0.2783
  184SOPE   O2221036   1.150   3.434   6.813 -0.6224 -0.9363 -0.0573
  184SOPE   C2221037   0.978   3.274   6.866  0.6692  0.5404 -0.0440
  184SOPE   H2R21038   1.020   3.173   6.854  0.0855  0.3514 -0.5321
  184SOPE   H2S21039   0.872   3.282   6.832  1.6392 -0.5362 -3.6684
  184SOPE    C321040   0.981   3.554   6.533  0.2846 -0.4627  0.4507
  184SOPE    HX21041   0.881   3.515   6.503  0.5029  0.2572 -1.3457
  184SOPE    HY21042   1.010   3.610   6.441  0.7543 -2.6480 -0.8235
  184SOPE   O3121043   0.965   3.640   6.648 -0.7528  0.8070  0.4941
  184SOPE   C3121044   1.067   3.734   6.655  1.5350  0.4719 -0.0665
  184SOPE   O3221045   1.164   3.738   6.582 -0.3364 -0.0776  0.0404
  184SOPE   C3221046   1.043   3.811   6.786  0.1678 -0.5864  0.2600
  184SOPE   H2X21047   1.093   3.908   6.763 -0.9873 -0.1462 -0.5015
  184SOPE   H2Y21048   1.087   3.761   6.875 -0.9699  0.4488  1.4528
  184SOPE   C2321049   0.992   3.313   7.012 -0.4461 -0.2659  0.1209
  184SOPE   H3R21050   1.096   3.332   7.048 -0.1057 -0.2744 -0.8406
  184SOPE   H3S21051   0.953   3.234   7.080 -0.2795  2.0338  3.0790
  184SOPE   C2421052   0.923   3.442   7.054  0.4579 -0.0094 -0.0847
  184SOPE   H4R21053   0.956   3.524   6.986  0.8082 -0.7855 -0.8697
  184SOPE   H4S21054   0.812   3.437   7.048  0.3754 -0.0237  1.1730
  184SOPE   C2521055   0.958   3.481   7.197  0.5495  0.1873  0.1221
  184SOPE   H5R21056   1.065   3.505   7.216  0.5093 -0.0223  0.6214
  184SOPE   H5S21057   0.900   3.574   7.215 -0.7426 -0.5675 -0.0127
  184SOPE   C2621058   0.915   3.382   7.311  0.5481  0.7568 -0.2831
  184SOPE   H6R21059   0.817   3.340   7.283  0.9902 -1.3095  1.0772
  184SOPE   H6S21060   0.990   3.301   7.299  1.4403  1.6250 -0.8061
  184SOPE   C2721061   0.911   3.439   7.455  0.1899  0.3203  0.4329
  184SOPE   H7R21062   0.925   3.352   7.523  0.7004  1.2993  1.6203
  184SOPE   H7S21063   1.006   3.492   7.479  0.6629 -0.7578  1.0137
  184SOPE   C2821064   0.793   3.530   7.478 -0.4228 -0.8352 -0.2452
  184SOPE   H8R21065   0.787   3.593   7.387  0.2054 -1.1001 -0.4739
  184SOPE   H8S21066   0.701   3.467   7.478 -0.3724 -0.9120  0.0931
  184SOPE   C2921067   0.810   3.617   7.606  0.2276  0.0531  0.6884
  184SOPE   H9121068   0.842   3.720   7.583  0.9065 -0.1024  0.8890
  184SOPE  C21021069   0.799   3.580   7.739  1.2380 -0.2808  0.8214
  184SOPE  H10121070   0.814   3.652   7.820 -1.5516 -0.8852  2.0080
  184SOPE  C21121071   0.750   3.442   7.783 -0.2552 -0.1986  0.2358
  184SOPE  H11R21072   0.836   3.386   7.826 -1.6679 -1.8473  1.0113
  184SOPE  H11S21073   0.716   3.389   7.692  0.2373 -0.9489  0.4848
  184SOPE  C21221074   0.635   3.460   7.879  0.7814 -0.4390 -0.3538
  184SOPE  H12R21075   0.555   3.516   7.826  1.3363  0.9253  0.2238
  184SOPE  H12S21076   0.663   3.514   7.971 -2.0104 -1.6744  1.3687
  184SOPE  C21321077   0.575   3.320   7.930  0.2617 -0.1237 -0.1125
  184SOPE  H13R21078   0.659   3.273   7.986  0.7298  1.5661  0.6547
  184SOPE  H13S21079   0.548   3.256   7.843  0.5380  0.7894 -0.8848
  184SOPE  C21421080   0.458   3.329   8.030 -0.0048  0.1316  0.0155
  184SOPE  H14R21081   0.476   3.401   8.113 -2.0186 -0.0571  0.6502
  184SOPE  H14S21082   0.452   3.228   8.076  0.8977 -0.1522 -0.4561
  184SOPE  C21521083   0.320   3.362   7.970 -0.3859  0.6756 -0.1693
  184SOPE  H15R21084   0.295   3.285   7.893  1.9056  0.2683 -0.5819
  184SOPE  H15S21085   0.333   3.459   7.918  0.3908 -0.0201 -1.3300
  184SOPE  C21621086   0.204   3.361   8.074 -0.1202 -0.0161  0.3781
  184SOPE  H16R21087   0.204   3.262   8.124 -0.0439 -0.3398 -0.2583
  184SOPE  H16S21088   0.109   3.367   8.017 -0.0694 -0.3017  0.2621
  184SOPE  C21721089   0.212   3.475   8.178 -1.4178  0.3099  0.1397
  184SOPE  H17R21090   0.242   3.568   8.125  1.1147  0.5306  1.7969
  184SOPE  H17S21091   0.295   3.461   8.250  0.6650 -0.9612 -2.3606
  184SOPE  C21821092   0.076   3.496   8.235 -1.2999 -0.0433 -0.0283
  184SOPE  H18R21093   0.013   3.550   8.161  1.5532  3.3101 -0.3156
  184SOPE  H18S21094   0.093   3.573   8.314 -0.4492 -1.6761  1.4496
  184SOPE  H18T21095   0.020   3.407   8.272  0.8161 -2.3662 -2.0842
  184SOPE   C3321096   0.897   3.850   6.810  0.1684  0.4217 -0.1811
  184SOPE   H3X21097   0.833   3.761   6.824 -1.0191  1.0815 -1.2487
  184SOPE   H3Y21098   0.839   3.888   6.723  0.1326  0.3333 -0.1956
  184SOPE   C3421099   0.869   3.944   6.933  0.1376  0.4719 -0.6384
  184SOPE   H4X21100   0.760   3.960   6.945 -0.7636 -2.4104 -3.5931
  184SOPE   H4Y21101   0.920   4.040   6.913  0.7703  0.2434 -0.1587
  184SOPE   C3521102   0.926   3.882   7.058 -0.1870  0.4313 -0.4290
  184SOPE   H5X21103   1.031   3.849   7.041 -1.1969 -2.4222 -1.6877
  184SOPE   H5Y21104   0.874   3.785   7.071  0.5498  0.3436  2.3639
  184SOPE   C3621105   0.915   3.975   7.175  0.1169 -0.8040 -0.5424
  184SOPE   H6X21106   0.807   3.996   7.190  0.4911  1.7085 -1.0355
  184SOPE   H6Y21107   0.978   4.060   7.142  0.2444 -0.8358 -0.3848
  184SOPE   C3721108   0.983   3.926   7.307  0.3143 -0.0848 -0.1827
  184SOPE   H7X21109   1.092   3.923   7.284 -0.0101 -0.3735 -1.7790
  184SOPE   H7Y21110   0.941   3.823   7.313  0.8024 -0.3627 -1.2486
  184SOPE   C3821111   0.937   4.016   7.431  0.1704  0.2415 -0.0322
  184SOPE   H8X21112   0.841   3.961   7.444 -0.3199  1.2579  0.7706
  184SOPE   H8Y21113   0.914   4.120   7.401 -3.4185 -0.0745  1.1468
  184SOPE   C3921114   1.011   4.007   7.560 -1.0003  0.0619 -0.0198
  184SOPE   H9X21115   1.106   4.062   7.542 -0.7055  0.6373  2.8703
  184SOPE   H9Y21116   1.045   3.902   7.573  2.0670  0.5627 -2.7469
  184SOPE  C31021117   0.948   4.063   7.690  0.7208  0.0805 -0.8301
  184SOPE  H10X21118   0.863   4.001   7.726 -1.4639  3.4273  0.2314
  184SOPE  H10Y21119   0.909   4.162   7.657  2.2206  0.6060 -1.0915
  184SOPE  C31121120   1.052   4.074   7.806 -0.0673 -0.3806 -1.0001
  184SOPE  H11X21121   1.136   4.144   7.785  0.0471 -0.5547 -1.1215
  184SOPE  H11Y21122   1.095   3.974   7.823 -1.2753 -0.7210  0.2094
  184SOPE  C31221123   0.982   4.121   7.937 -0.1625  0.8198  1.2340
  184SOPE  H12X21124   0.933   4.219   7.920 -1.1837  0.1839  0.4185
  184SOPE  H12Y21125   1.065   4.123   8.012  1.0113  0.7766 -0.0369
  184SOPE  C31321126   0.865   4.034   7.984  0.2607 -0.9660  0.5177
  184SOPE  H13X21127   0.771   4.044   7.927 -0.0014  1.9614  1.2966
  184SOPE  H13Y21128   0.836   4.089   8.076  1.1467  1.5665 -0.6227
  184SOPE  C31421129   0.893   3.883   8.000  0.0408 -0.5218  0.1445
  184SOPE  H14X21130   0.982   3.879   8.067  1.1171  1.0302 -1.1170
  184SOPE  H14Y21131   0.918   3.834   7.903  2.0691  0.3823  0.1502
  184SOPE  C31521132   0.782   3.805   8.073  0.4869  0.1618 -0.7145
  184SOPE  H15X21133   0.812   3.700   8.056  1.1693 -0.0754  1.6039
  184SOPE  H15Y21134   0.689   3.825   8.014 -0.1924 -0.2903  0.1836
  184SOPE  C31621135   0.756   3.829   8.229  0.3960  0.3304 -0.0462
  184SOPE  H16X21136   0.696   3.921   8.241  1.6476  1.2386 -0.4794
  184SOPE  H16Y21137   0.850   3.839   8.288  1.7699 -2.0498 -1.6357
  184SOPE  C31721138   0.665   3.724   8.297  0.0737 -0.4659  0.2298
  184SOPE  H17X21139   0.656   3.751   8.405 -1.7299  0.0660 -0.0162
  184SOPE  H17Y21140   0.715   3.625   8.297  1.8571  0.4069 -0.3371
  184SOPE  C31821141   0.522   3.712   8.240  0.7440 -0.1640  0.0089
  184SOPE  H18X21142   0.464   3.659   8.318  0.4426  0.5790  0.2996
  184SOPE  H18Y21143   0.508   3.658   8.145  0.4822  0.2219 -0.1719
  184SOPE  H18Z21144   0.474   3.812   8.232 -0.2978 -0.7979 -2.2565
  185SAPI   C1221145   0.420   6.206  10.926  0.5102  0.6118 -0.3781
  185SAPI    H221146   0.320   6.191  10.879  0.4932  1.7882 -0.7508
  185SAPI    O221147   0.429   6.133  11.047  0.4990 -0.0640  0.2175
  185SAPI   HO221148   0.360   6.161  11.108 -0.1891  0.9461 -0.9744
  185SAPI   C1321149   0.530   6.158  10.839 -0.1918  0.1671 -0.1701
  185SAPI    H321150   0.530   6.214  10.744  1.1121  0.3023 -0.1112
  185SAPI    O321151   0.504   6.016  10.819  0.5063 -0.6843 -0.4266
  185SAPI   HO321152   0.488   5.977  10.905 -0.6714 -1.0408 -0.7895
  185SAPI   C1421153   0.667   6.190  10.906  0.5215 -0.2808  0.3919
  185SAPI    H421154   0.674   6.136  11.003  0.4627 -1.0788 -0.0369
  185SAPI    O421155   0.775   6.134  10.825 -0.2977 -0.1667 -0.0629
  185SAPI   HO421156   0.826   6.072  10.878 -0.7743  0.1339  0.7636
  185SAPI   C1521157   0.679   6.342  10.933 -0.2072  0.5964  0.1765
  185SAPI    H521158   0.682   6.396  10.836  0.2233 -1.8364 -1.2381
  185SAPI    O521159   0.794   6.377  11.003 -0.1492 -0.2563  0.1658
  185SAPI   HO521160   0.810   6.468  10.977 -0.3935 -0.4737 -0.7706
  185SAPI   C1621161   0.561   6.385  11.018 -0.2540 -0.4360  0.0616
  185SAPI    H621162   0.562   6.337  11.118  0.3738  0.9133  0.7245
  185SAPI    O621163   0.575   6.528  11.037  0.1542  0.0238 -0.1861
  185SAPI   HO621164   0.496   6.559  11.082  0.6999  2.6854 -0.8772
  185SAPI   C1121165   0.431   6.356  10.956 -0.3834  0.5261  0.0104
  185SAPI    H121166   0.426   6.415  10.862  0.7799  1.2209  0.3700
  185SAPI     P21167   0.218   6.505  11.029 -0.0110  0.0209 -0.3432
  185SAPI   O1321168   0.291   6.625  10.977 -0.3030 -0.2202 -0.2780
  185SAPI   O1421169   0.142   6.527  11.152  0.5091  0.1090  0.8174
  185SAPI   O1221170   0.321   6.384  11.053  0.4965 -0.4327 -0.7858
  185SAPI   O1121171   0.126   6.437  10.919  0.1355 -0.5882 -0.3272
  185SAPI    C121172   0.030   6.337  10.951  0.6388  0.1256  0.3406
  185SAPI    HA21173   0.074   6.259  11.016 -1.4091  0.5173  2.3217
  185SAPI    HB21174  -0.051   6.379  11.015 -0.4864 -0.0756 -0.8912
  185SAPI    C221175  -0.036   6.274  10.830  0.3697 -0.2363  0.5922
  185SAPI    HS21176  -0.096   6.190  10.870  1.1453  0.1476  2.6806
  185SAPI   O2121177   0.068   6.233  10.737  0.1353 -0.2012 -0.3115
  185SAPI   C2121178   0.060   6.113  10.683  0.4079  0.4159  0.4106
  185SAPI   O2221179  -0.022   6.029  10.712  0.2264 -0.3749 -0.2265
  185SAPI   C2221180   0.177   6.092  10.586 -0.0727 -0.7423 -0.1444
  185SAPI   H2R21181   0.246   6.024  10.640 -2.0521 -2.3961  0.4314
  185SAPI   H2S21182   0.134   6.022  10.511 -2.5283 -1.7899  2.1292
  185SAPI    C321183  -0.124   6.373  10.749 -0.3820  0.6392  0.3316
  185SAPI    HX21184  -0.050   6.443  10.704 -2.0574  1.7012 -0.9222
  185SAPI    HY21185  -0.188   6.414  10.830  0.5108  2.1355  0.3074
  185SAPI   O3121186  -0.198   6.285  10.656  0.8493  0.0854 -0.5699
  185SAPI   C3121187  -0.266   6.353  10.565 -0.0729  0.2172  0.0456
  185SAPI   O3221188  -0.270   6.477  10.561 -0.2301  0.6328  0.3109
  185SAPI   C3221189  -0.320   6.258  10.456  0.0512  0.3116  0.2444
  185SAPI   H2X21190  -0.363   6.175  10.516 -2.0881  1.0613 -0.1454
  185SAPI   H2Y21191  -0.233   6.202  10.415 -1.2461 -2.8457  1.4601
  185SAPI   C2321192   0.225   6.217  10.511  0.3014 -0.4644  0.5060
  185SAPI   H3R21193   0.305   6.190  10.438  1.6423  1.3439  1.2431
  185SAPI   H3S21194   0.264   6.298  10.576  0.4112  1.0666 -1.3605
  185SAPI   C2421195   0.114   6.278  10.426  0.0778  0.0974  0.2646
  185SAPI   H4R21196   0.042   6.329  10.494 -2.3193 -1.6228 -0.8303
  185SAPI   H4S21197   0.056   6.193  10.385  0.4959  0.4353 -1.0500
  185SAPI   C2521198   0.163   6.367  10.314 -0.4127  0.1609  0.1117
  185SAPI   H5R21199   0.217   6.459  10.341  0.4177 -0.3025  0.0658
  185SAPI   C2621200   0.138   6.343  10.185 -0.5465  0.4234  0.1600
  185SAPI   H6R21201   0.169   6.419  10.111 -1.1334  0.6800  0.1659
  185SAPI   C2721202   0.072   6.217  10.121  0.2875  0.1997 -0.1996
  185SAPI   H7R21203  -0.000   6.247  10.042  0.7192  1.2707 -0.1948
  185SAPI   H7S21204   0.016   6.160  10.199 -3.4360  2.0905 -1.2402
  185SAPI   C2821205   0.179   6.126  10.062  0.6463 -0.1673 -0.1574
  185SAPI   H8R21206   0.244   6.087  10.141 -0.9534 -0.1621  1.2328
  185SAPI   C2921207   0.191   6.087   9.937  0.9107  0.0476 -0.3546
  185SAPI   H9R21208   0.277   6.022   9.918  0.3286 -1.1984  1.0357
  185SAPI  C21021209   0.103   6.123   9.825  0.2246  0.2021  0.0415
  185SAPI  H10R21210   0.014   6.176   9.865  0.5265  2.3205 -1.8990
  185SAPI  H10S21211   0.065   6.030   9.776  1.5149 -0.9815  1.1991
  185SAPI  C21121212   0.172   6.214   9.722 -1.3855 -0.5979  0.5703
  185SAPI  H11R21213   0.251   6.277   9.765 -0.0719 -0.2777 -2.1206
  185SAPI  C21221214   0.138   6.235   9.592 -0.0969 -0.3397 -0.5635
  185SAPI  H12R21215   0.189   6.319   9.542  0.3835  0.0953  0.6083
  185SAPI  C21321216   0.027   6.161   9.523  1.0982 -0.2279 -0.0497
  185SAPI  H13R21217  -0.025   6.093   9.594  0.1198  0.0536 -0.4799
  185SAPI  H13S21218   0.060   6.087   9.446 -0.4329  0.4019 -1.3674
  185SAPI  C21421219  -0.063   6.267   9.470  0.4278  0.4658  1.0270
  185SAPI  H14R21220  -0.142   6.307   9.536 -1.1200 -0.6651 -0.0582
  185SAPI  C21521221  -0.053   6.332   9.353 -0.0565 -0.8842 -0.0935
  185SAPI  H15R21222  -0.135   6.398   9.319  0.8273 -0.3087 -1.1975
  185SAPI  C21621223   0.050   6.307   9.242 -0.1426 -0.2637 -0.6936
  185SAPI  H16R21224   0.134   6.246   9.281 -0.6355 -0.9785 -0.7277
  185SAPI  H16S21225   0.094   6.402   9.206  1.1069 -0.0406  1.2727
  185SAPI  C21721226  -0.017   6.232   9.122 -0.9136 -0.0959 -0.3580
  185SAPI  H17R21227  -0.119   6.272   9.102 -0.8076 -1.6175 -5.2075
  185SAPI  H17S21228  -0.016   6.123   9.144  2.6013 -0.0996  0.0574
  185SAPI  C21821229   0.060   6.270   8.997 -0.4380 -0.0649 -0.2138
  185SAPI  H18R21230   0.170   6.266   9.008 -0.5918 -2.3856  1.0899
  185SAPI  H18S21231   0.026   6.371   8.967 -0.6886 -0.6842 -2.1435
  185SAPI  C21921232   0.023   6.183   8.875 -0.2177  0.2197 -0.6352
  185SAPI  H19R21233  -0.088   6.184   8.865 -0.1569  0.2595 -1.3454
  185SAPI  H19S21234   0.063   6.080   8.882  0.1660  0.2083 -2.4444
  185SAPI  C22021235   0.089   6.235   8.743  0.4115  0.2684 -0.2063
  185SAPI  H20R21236   0.061   6.339   8.719 -0.3406  0.3530  0.9471
  185SAPI  H20S21237   0.070   6.168   8.656  1.9456  0.6038 -0.8370
  185SAPI  H20T21238   0.200   6.223   8.744  0.3500 -0.7750 -1.6819
  185SAPI   C3321239  -0.405   6.324  10.354  0.7838  0.5567  0.0625
  185SAPI   H3X21240  -0.350   6.395  10.289  0.3572  2.1866  1.3943
  185SAPI   H3Y21241  -0.472   6.404  10.393  2.0940  1.4831  0.5257
  185SAPI   C3421242  -0.488   6.223  10.267 -0.3477 -0.6621 -0.0361
  185SAPI   H4X21243  -0.550   6.156  10.331 -0.1959 -1.1066 -0.3449
  185SAPI   H4Y21244  -0.414   6.155  10.219 -0.2115  0.5389 -1.5963
  185SAPI   C3521245  -0.578   6.293  10.151 -0.9012  0.0866  0.2787
  185SAPI   H5X21246  -0.650   6.367  10.193  0.4796  1.6552 -0.0346
  185SAPI   H5Y21247  -0.641   6.215  10.102  1.5529 -1.0564 -1.1992
  185SAPI   C3621248  -0.490   6.363  10.047 -0.2913 -0.4484 -0.6198
  185SAPI   H6X21249  -0.464   6.458  10.098 -2.9167 -0.2208  0.4585
  185SAPI   H6Y21250  -0.552   6.407   9.966  0.2848  0.1899 -0.7233
  185SAPI   C3721251  -0.372   6.283   9.987 -0.1260  0.0087 -0.2448
  185SAPI   H7X21252  -0.301   6.252  10.067  1.5319  0.7630 -1.3710
  185SAPI   H7Y21253  -0.304   6.346   9.927 -2.0767  2.5275  0.0040
  185SAPI   C3821254  -0.417   6.177   9.890  0.6945  0.5621  0.6796
  185SAPI   H8X21255  -0.491   6.219   9.819  0.2386  0.2619  0.9746
  185SAPI   H8Y21256  -0.481   6.102   9.940  0.3461 -1.3108 -2.3066
  185SAPI   C3921257  -0.296   6.116   9.822  0.4110  0.1156 -0.4993
  185SAPI   H9X21258  -0.228   6.074   9.899 -0.8031  0.5172  0.8205
  185SAPI   H9Y21259  -0.246   6.203   9.773  0.0702  0.4882 -0.1874
  185SAPI  C31021260  -0.328   6.002   9.720 -0.2524  0.1961 -0.4224
  185SAPI  H10X21261  -0.401   5.932   9.764 -1.9056  1.6442 -0.7723
  185SAPI  H10Y21262  -0.247   5.932   9.689 -0.0389  1.6389 -3.4929
  185SAPI  C31121263  -0.377   6.059   9.584  0.1915  0.0645 -0.3492
  185SAPI  H11X21264  -0.300   6.108   9.522 -0.3013  1.3376 -0.0055
  185SAPI  H11Y21265  -0.447   6.143   9.605  0.6008  0.4245 -0.4146
  185SAPI  C31221266  -0.463   5.959   9.506 -0.4380  0.5800  0.1128
  185SAPI  H12X21267  -0.520   5.890   9.572  0.5297 -1.2154 -0.8304
  185SAPI  H12Y21268  -0.389   5.899   9.448 -1.1734 -0.0755 -0.1680
  185SAPI  C31321269  -0.555   6.024   9.395  0.6100 -0.3988  0.5564
  185SAPI  H13X21270  -0.629   6.094   9.440  1.6067  0.8906  0.2392
  185SAPI  H13Y21271  -0.613   5.940   9.351  2.8414 -0.2960 -2.8847
  185SAPI  C31421272  -0.480   6.075   9.273  0.5495  0.2128  0.2331
  185SAPI  H14X21273  -0.419   5.991   9.232 -0.0986  0.2447 -0.8301
  185SAPI  H14Y21274  -0.409   6.155   9.303  0.6246  0.0734  0.4243
  185SAPI  C31521275  -0.568   6.139   9.160 -0.2325 -0.2295 -0.3952
  185SAPI  H15X21276  -0.624   6.232   9.182  0.1428  0.0881 -0.7524
  185SAPI  H15Y21277  -0.628   6.066   9.103  0.3152  0.5468 -2.0400
  185SAPI  C31621278  -0.472   6.189   9.041  0.6554 -0.0913 -0.4976
  185SAPI  H16X21279  -0.381   6.126   9.028  1.2697  0.5103  0.6656
  185SAPI  H16Y21280  -0.430   6.285   9.078  1.0074 -0.9860  1.6098
  185SAPI  C31721281  -0.547   6.197   8.917  0.2593 -0.6438  0.0592
  185SAPI  H17X21282  -0.573   6.094   8.885  0.9388 -0.8507  0.1551
  185SAPI  H17Y21283  -0.493   6.251   8.837  0.1473 -0.0589  0.3686
  185SAPI  C31821284  -0.683   6.265   8.937 -0.2719 -0.4107  0.0864
  185SAPI  H18X21285  -0.680   6.373   8.961 -0.9782 -0.3903  0.1214
  185SAPI  H18Y21286  -0.758   6.220   9.005 -1.2235 -0.8122 -1.1858
  185SAPI  H18Z21287  -0.737   6.272   8.839 -1.7510 -2.8678  0.6390
  186SAPI   C1221288   6.515   3.859  10.698 -0.1730 -0.7818 -0.1023
  186SAPI    H221289   6.557   3.866  10.596  0.0711 -0.7340 -0.0002
  186SAPI    O221290   6.429   3.969  10.725  0.2165  0.2774  0.4873
  186SAPI   HO221291   6.491   4.041  10.706  0.7720 -0.7584 -2.0303
  186SAPI   C1321292   6.438   3.730  10.715  0.7030  0.2460  0.0242
  186SAPI    H321293   6.499   3.642  10.684 -1.8723 -1.7029  0.1654
  186SAPI    O321294   6.335   3.723  10.619 -0.0165 -0.4465  0.2880
  186SAPI   HO321295   6.291   3.808  10.620 -1.9137 -1.3719 -0.1153
  186SAPI   C1421296   6.386   3.706  10.857 -0.1008 -0.0244  0.7222
  186SAPI    H421297   6.307   3.783  10.870 -1.0066 -0.5223 -1.4136
  186SAPI    O421298   6.307   3.592  10.868  0.1437  0.4985 -0.8102
  186SAPI   HO421299   6.223   3.619  10.906  1.8880  4.1006  0.9554
  186SAPI   C1521300   6.498   3.714  10.957  0.3758  0.2834 -0.0562
  186SAPI    H521301   6.565   3.630  10.931 -1.0257 -1.1211  0.7170
  186SAPI    O521302   6.460   3.696  11.096  0.2636 -0.0142  0.7905
  186SAPI   HO521303   6.516   3.635  11.144 -0.5852 -0.8126  0.7712
  186SAPI   C1621304   6.586   3.840  10.942  0.5368 -0.0150 -0.3188
  186SAPI    H621305   6.520   3.923  10.976  1.6612  1.0870 -0.7212
  186SAPI    O621306   6.707   3.833  11.019  0.9161  0.5253  0.1561
  186SAPI   HO621307   6.778   3.856  10.959  0.5313  2.8154  0.4719
  186SAPI   C1121308   6.632   3.860  10.795 -0.5526 -0.0560 -1.1361
  186SAPI    H121309   6.697   3.775  10.768 -1.1565 -1.7569  2.1996
  186SAPI     P21310   6.861   4.000  10.765 -0.1083  0.2747 -0.1458
  186SAPI   O1321311   6.921   3.941  10.887 -0.1168 -0.1380 -0.0709
  186SAPI   O1421312   6.895   4.139  10.741 -0.2397 -0.8986  0.1001
  186SAPI   O1221313   6.692   3.984  10.769  0.0614 -0.1550  0.0552
  186SAPI   O1121314   6.896   3.910  10.636  0.2062 -0.1171 -0.1956
  186SAPI    C121315   6.836   3.917  10.503 -0.2543  0.0900  0.1513
  186SAPI    HA21316   6.802   3.814  10.483  1.8353 -0.5208 -0.5345
  186SAPI    HB21317   6.759   3.996  10.497 -1.1984 -0.6607  1.7546
  186SAPI    C221318   6.943   3.949  10.392 -0.1546  0.3064 -0.3322
  186SAPI    HS21319   6.975   4.051  10.422 -0.4768  0.5719 -0.8690
  186SAPI   O2121320   6.877   3.947  10.263  0.1348 -0.1728  0.5490
  186SAPI   C2121321   6.787   4.048  10.233 -0.5846  0.5058  0.2083
  186SAPI   O2221322   6.759   4.137  10.309 -0.1621  0.0332  0.3522
  186SAPI   C2221323   6.732   4.031  10.087 -0.0325 -0.1641  0.2359
  186SAPI   H2R21324   6.758   3.929  10.052 -0.7809 -0.2524 -0.0601
  186SAPI   H2S21325   6.622   4.047  10.089 -0.1946 -1.0843  2.6804
  186SAPI    C321326   7.064   3.841  10.411 -0.1016  0.5321  0.3853
  186SAPI    HX21327   7.019   3.743  10.435  1.4926 -0.1810  0.5834
  186SAPI    HY21328   7.130   3.867  10.497  1.5398  1.4292 -1.0799
  186SAPI   O3121329   7.142   3.834  10.288 -0.4563  0.4422  0.2604
  186SAPI   C3121330   7.092   3.761  10.189  0.4636  0.0554  0.7904
  186SAPI   O3221331   6.989   3.690  10.201 -0.3203  0.0165 -0.2052
  186SAPI   C3221332   7.175   3.794  10.066  0.3893 -0.3580  0.1430
  186SAPI   H2X21333   7.192   3.904  10.059  1.1174 -0.5074 -0.5643
  186SAPI   H2Y21334   7.128   3.763   9.971  2.0106  2.7535 -1.8469
  186SAPI   C2321335   6.804   4.129   9.987 -0.2497  0.1962  0.3632
  186SAPI   H3R21336   6.910   4.141  10.018 -0.1969 -0.5045  0.4790
  186SAPI   H3S21337   6.751   4.226   9.988 -0.0940  0.2805  1.9550
  186SAPI   C2421338   6.811   4.072   9.837 -0.1791 -0.6438 -0.3090
  186SAPI   H4R21339   6.834   4.162   9.775 -3.4825  0.4345 -0.1451
  186SAPI   H4S21340   6.707   4.048   9.804  0.0460 -0.9850 -0.7956
  186SAPI   C2521341   6.895   3.954   9.810 -0.0518  0.4954  0.0490
  186SAPI   H5R21342   6.903   3.885   9.895 -1.5370  1.0219  0.6540
  186SAPI   C2621343   6.965   3.928   9.697  0.2643  0.5417 -0.1625
  186SAPI   H6R21344   7.034   3.843   9.691 -0.6083 -0.3767  1.7506
  186SAPI   C2721345   6.960   4.012   9.570 -0.3167 -0.0073  0.9348
  186SAPI   H7R21346   7.025   3.982   9.486 -1.0712  0.4805  0.1515
  186SAPI   H7S21347   6.994   4.115   9.595 -0.3244  1.0452 -2.8329
  186SAPI   C2821348   6.816   4.016   9.511  0.0216 -0.5337  0.6202
  186SAPI   H8R21349   6.731   3.998   9.578 -0.9299 -1.4111 -0.7573
  186SAPI   C2921350   6.795   4.031   9.382  0.1766 -0.2506  0.3367
  186SAPI   H9R21351   6.689   4.037   9.354  0.5074 -0.4544 -1.0172
  186SAPI  C21021352   6.889   4.042   9.263 -0.5335  0.1484 -0.1278
  186SAPI  H10R21353   6.967   3.963   9.267 -0.7557 -0.2420 -2.3332
  186SAPI  H10S21354   6.941   4.139   9.276  0.5164 -0.4458  0.1682
  186SAPI  C21121355   6.817   4.035   9.128  0.7937 -0.3534  0.4472
  186SAPI  H11R21356   6.726   4.094   9.115  0.6080 -0.8996 -0.8953
  186SAPI  C21221357   6.852   3.955   9.024  0.0996 -0.2489  0.0314
  186SAPI  H12R21358   6.780   3.956   8.941  0.2622 -1.0331 -0.1293
  186SAPI  C21321359   6.961   3.856   9.022 -0.4036 -0.4027 -0.8239
  186SAPI  H13R21360   6.931   3.776   9.092 -1.1804  1.0424  0.5597
  186SAPI  H13S21361   7.053   3.899   9.068 -0.1459 -1.3308 -0.4548
  186SAPI  C21421362   6.998   3.801   8.884  0.2865  0.7855 -0.1556
  186SAPI  H14R21363   6.949   3.705   8.863  0.8417  0.1992  1.1103
  186SAPI  C21521364   7.080   3.847   8.794  0.2226  0.2162  0.1275
  186SAPI  H15R21365   7.076   3.790   8.700 -1.1226  0.1233  0.2205
  186SAPI  C21621366   7.162   3.968   8.798 -1.2862  0.9083  0.1847
  186SAPI  H16R21367   7.186   3.994   8.903  1.6258 -0.7192  0.0365
  186SAPI  H16S21368   7.108   4.056   8.755 -0.4973  1.0567 -0.5313
  186SAPI  C21721369   7.299   3.930   8.732  0.1298 -0.0890  0.2320
  186SAPI  H17R21370   7.279   3.892   8.630  1.0010  0.5469 -0.1846
  186SAPI  H17S21371   7.349   3.842   8.776  1.1344 -0.0474 -0.7940
  186SAPI  C21821372   7.404   4.043   8.735 -0.0712  0.1235 -0.1039
  186SAPI  H18R21373   7.398   4.100   8.830  0.4918  1.2814 -0.7387
  186SAPI  H18S21374   7.380   4.122   8.660  0.2692 -0.9878 -1.4016
  186SAPI  C21921375   7.557   3.998   8.707  0.5397 -0.3631 -0.1140
  186SAPI  H19R21376   7.548   3.969   8.600 -0.6320  1.0198 -0.4256
  186SAPI  H19S21377   7.575   3.913   8.776 -1.4637  0.0790  1.0040
  186SAPI  C22021378   7.654   4.119   8.713  0.5634 -1.4466  0.0095
  186SAPI  H20R21379   7.760   4.092   8.694  1.0035  1.6443 -2.7728
  186SAPI  H20S21380   7.639   4.180   8.805 -2.3098 -0.9176 -0.7030
  186SAPI  H20T21381   7.626   4.177   8.623  1.1460 -0.8699  0.1920
  186SAPI   C3321382   7.321   3.743  10.074  0.1101 -0.3715 -0.5278
  186SAPI   H3X21383   7.314   3.636  10.103 -0.9283 -0.4108 -0.8887
  186SAPI   H3Y21384   7.390   3.807  10.134  0.3688  1.5560 -2.7333
  186SAPI   C3421385   7.390   3.742   9.938  0.5396 -0.2631  0.5002
  186SAPI   H4X21386   7.332   3.669   9.877  1.1706 -1.5568  1.4067
  186SAPI   H4Y21387   7.486   3.689   9.955  2.3023  0.7890 -4.4697
  186SAPI   C3521388   7.404   3.892   9.894 -0.4920  0.8976  0.0664
  186SAPI   H5X21389   7.460   3.948   9.972 -3.0596  4.7117 -0.5798
  186SAPI   H5Y21390   7.307   3.944   9.878 -0.6155  0.5343 -0.3984
  186SAPI   C3621391   7.475   3.886   9.756  0.4915 -0.8061  0.4272
  186SAPI   H6X21392   7.558   3.812   9.768  1.7431  0.5039  0.1268
  186SAPI   H6Y21393   7.518   3.987   9.744  0.2184 -0.8207 -0.7993
  186SAPI   C3721394   7.398   3.871   9.629  0.0934 -0.2988 -0.6030
  186SAPI   H7X21395   7.309   3.937   9.634 -0.2695 -0.7938 -0.4083
  186SAPI   H7Y21396   7.349   3.771   9.626  0.6837 -0.6378  0.4679
  186SAPI   C3821397   7.490   3.907   9.514 -0.4263  0.5207 -0.6782
  186SAPI   H8X21398   7.571   3.831   9.519 -0.8807 -0.0546 -1.7043
  186SAPI   H8Y21399   7.545   4.003   9.526  0.9044 -0.2062 -0.7114
  186SAPI   C3921400   7.422   3.924   9.377 -0.1305 -0.0080 -0.5423
  186SAPI   H9X21401   7.376   4.025   9.382  0.0712  0.1239 -1.2487
  186SAPI   H9Y21402   7.340   3.849   9.362 -0.2269  0.1995 -1.0934
  186SAPI  C31021403   7.514   3.921   9.251  0.7035 -0.6257 -0.7271
  186SAPI  H10X21404   7.449   3.927   9.161 -0.6189 -1.8020  0.1205
  186SAPI  H10Y21405   7.557   3.821   9.273  0.6094 -0.5212 -0.0506
  186SAPI  C31121406   7.616   4.025   9.277  0.7314 -0.5821  0.0679
  186SAPI  H11X21407   7.688   3.991   9.354  0.8705  0.0918  0.2407
  186SAPI  H11Y21408   7.569   4.123   9.299  1.4376  0.9673 -4.2884
  186SAPI  C31221409   7.701   4.066   9.151  0.1487  0.1248 -0.1094
  186SAPI  H12X21410   7.763   4.157   9.166  0.6927 -0.2738  0.0836
  186SAPI  H12Y21411   7.629   4.084   9.068 -0.2391  1.9039  0.5785
  186SAPI  C31321412   7.806   3.966   9.107  0.3986  0.2904 -0.1708
  186SAPI  H13X21413   7.763   3.875   9.059 -0.8683 -0.7109  2.6257
  186SAPI  H13Y21414   7.862   3.925   9.194 -0.0124  1.5394  0.7109
  186SAPI  C31421415   7.913   4.038   9.015 -0.2623  0.0947 -0.6182
  186SAPI  H14X21416   7.967   4.102   9.088 -0.2891  0.8551 -1.2471
  186SAPI  H14Y21417   7.850   4.102   8.949  0.6351  0.9644 -0.6617
  186SAPI  C31521418   8.005   3.943   8.944 -0.1906 -0.2226 -0.9539
  186SAPI  H15X21419   8.056   3.873   9.014  0.5310 -0.0335 -1.2771
  186SAPI  H15Y21420   8.085   3.990   8.883  1.4027 -0.3217  0.9375
  186SAPI  C31621421   7.922   3.854   8.838 -0.6442  0.7872  0.6027
  186SAPI  H16X21422   7.863   3.921   8.773 -2.2923 -1.1869 -0.0256
  186SAPI  H16Y21423   7.852   3.792   8.899 -1.1924 -0.7025 -1.4373
  186SAPI  C31721424   8.015   3.778   8.750  0.6791 -0.3522 -0.3274
  186SAPI  H17X21425   8.079   3.707   8.807  0.8775 -1.5595 -2.0097
  186SAPI  H17Y21426   8.082   3.858   8.712  0.4137 -0.1993 -0.4825
  186SAPI  C31821427   7.965   3.712   8.624  0.1987  0.4575  0.4905
  186SAPI  H18X21428   7.910   3.783   8.560 -0.3800  1.6743  2.2544
  186SAPI  H18Y21429   7.881   3.645   8.650  0.7612 -1.2044 -1.6687
  186SAPI  H18Z21430   8.044   3.663   8.563 -1.7853 -3.1006  0.5453
  187SAPI   C1221431   4.221   6.777   6.476  0.0589  0.0557 -0.4618
  187SAPI    H221432   4.115   6.794   6.504 -0.6993 -0.1628 -2.9617
  187SAPI    O221433   4.214   6.775   6.331  0.2699  0.5046  0.2812
  187SAPI   HO221434   4.143   6.716   6.305  0.9114 -0.1607  0.0063
  187SAPI   C1321435   4.292   6.902   6.528 -0.1476  0.7442 -0.0981
  187SAPI    H321436   4.290   6.900   6.639  1.3965  0.4963 -0.0570
  187SAPI    O321437   4.232   7.024   6.483  0.3390  0.4922  0.2010
  187SAPI   HO321438   4.193   7.010   6.397  0.7476 -0.2792  0.1294
  187SAPI   C1421439   4.439   6.895   6.486  0.7357  0.3466  0.2437
  187SAPI    H421440   4.438   6.907   6.375 -0.7903 -0.5091  0.1335
  187SAPI    O421441   4.508   7.011   6.526 -0.1065  0.3103 -0.1962
  187SAPI   HO421442   4.473   7.092   6.488 -2.7367 -1.0860 -1.0046
  187SAPI   C1521443   4.502   6.765   6.526  0.1305  0.1220  0.1173
  187SAPI    H521444   4.506   6.761   6.637  1.7089 -0.7441  0.0633
  187SAPI    O521445   4.645   6.754   6.501 -0.5626 -0.2577 -0.0766
  187SAPI   HO521446   4.686   6.688   6.557 -0.7827 -1.2423 -1.0398
  187SAPI   C1621447   4.423   6.641   6.487 -0.4315  0.2412 -0.9243
  187SAPI    H621448   4.426   6.637   6.376 -3.1160 -1.2960 -1.0368
  187SAPI    O621449   4.484   6.523   6.547  0.1631  0.6909  0.0375
  187SAPI   HO621450   4.451   6.513   6.636  0.1448 -1.9834 -0.1712
  187SAPI   C1121451   4.280   6.649   6.533  0.2310  0.0404 -0.2201
  187SAPI    H121452   4.273   6.661   6.643 -0.4007 -1.1574 -0.1069
  187SAPI     P21453   4.075   6.481   6.564 -0.6256 -0.3221 -0.0273
  187SAPI   O1321454   3.976   6.470   6.455  0.0600  0.2934 -0.1512
  187SAPI   O1421455   4.055   6.579   6.669  0.1517  0.1374  0.7761
  187SAPI   O1221456   4.205   6.535   6.483  0.1843  0.0153  0.2685
  187SAPI   O1121457   4.109   6.343   6.625  0.7250  0.6648  0.9144
  187SAPI    C121458   4.233   6.294   6.680 -1.3031  0.1150  0.2815
  187SAPI    HA21459   4.265   6.203   6.626 -0.9974  0.8429 -0.7959
  187SAPI    HB21460   4.321   6.359   6.662 -1.1722 -0.5983 -1.8768
  187SAPI    C221461   4.230   6.285   6.836 -0.5668 -0.0399  0.3707
  187SAPI    HS21462   4.145   6.218   6.861 -0.3881 -0.2011  0.5469
  187SAPI   O2121463   4.221   6.412   6.892 -0.3722 -0.5349  0.4050
  187SAPI   C2121464   4.097   6.447   6.929  0.5402 -0.0054  0.4734
  187SAPI   O2221465   3.998   6.379   6.920 -0.0484 -0.2451 -0.0627
  187SAPI   C2221466   4.093   6.588   6.997  0.2272 -0.1810  0.1842
  187SAPI   H2R21467   4.189   6.605   7.050  0.7521 -3.1425  0.4011
  187SAPI   H2S21468   4.076   6.668   6.923 -0.6094 -0.1729  0.3787
  187SAPI    C321469   4.355   6.231   6.897  0.3273 -0.0016  0.0131
  187SAPI    HX21470   4.440   6.295   6.865 -0.0261  0.9848  0.9863
  187SAPI    HY21471   4.376   6.126   6.867  0.1920 -0.4959  1.5988
  187SAPI   O3121472   4.353   6.241   7.039  0.2918 -0.1795 -0.1795
  187SAPI   C3121473   4.291   6.143   7.103  0.1284 -0.5299  0.5652
  187SAPI   O3221474   4.255   6.037   7.054 -0.6430 -0.2509 -0.0576
  187SAPI   C3221475   4.276   6.188   7.251  0.1465  0.3086  0.9217
  187SAPI   H2X21476   4.192   6.261   7.248 -0.9753 -0.9603  0.1942
  187SAPI   H2Y21477   4.365   6.246   7.283 -0.0035  1.6879 -0.9830
  187SAPI   C2321478   3.978   6.601   7.091  0.6246 -0.4523  0.3991
  187SAPI   H3R21479   3.881   6.558   7.059 -1.1581  2.9676  0.6738
  187SAPI   H3S21480   3.965   6.709   7.113 -3.1999 -1.2005  2.6387
  187SAPI   C2421481   4.006   6.539   7.231  0.1093  0.4957 -0.3255
  187SAPI   H4R21482   4.092   6.595   7.273  2.4423 -1.2046 -2.4820
  187SAPI   H4S21483   4.050   6.439   7.210  1.3815  1.1219 -0.7789
  187SAPI   C2521484   3.888   6.514   7.318  0.1781 -0.4876  0.3160
  187SAPI   H5R21485   3.800   6.476   7.264  1.9040 -0.3560 -2.8337
  187SAPI   C2621486   3.882   6.545   7.450  0.2475  0.5634 -0.0152
  187SAPI   H6R21487   3.778   6.541   7.485 -0.3993 -0.5424 -1.8988
  187SAPI   C2721488   3.978   6.599   7.548  0.1520  0.3999  0.0733
  187SAPI   H7R21489   4.077   6.594   7.497 -0.2878 -0.0479 -0.7566
  187SAPI   H7S21490   3.971   6.518   7.625 -0.7724  1.0427  0.6824
  187SAPI   C2821491   3.933   6.728   7.613 -0.2722 -0.3488 -0.1315
  187SAPI   H8R21492   3.879   6.802   7.551 -1.4576 -0.6472  0.5071
  187SAPI   C2921493   3.955   6.766   7.743  0.6931  0.3114  1.7794
  187SAPI   H9R21494   3.913   6.863   7.771 -2.0091 -0.1518 -0.2506
  187SAPI  C21021495   4.020   6.682   7.850  1.0746 -0.1021  0.3070
  187SAPI  H10R21496   4.083   6.601   7.809 -1.4585 -0.3285 -3.6431
  187SAPI  H10S21497   3.942   6.635   7.913  0.5522 -0.3545 -0.5071
  187SAPI  C21121498   4.104   6.781   7.930 -0.6578  0.4268 -0.1253
  187SAPI  H11R21499   4.156   6.855   7.867 -2.1427  3.9373  2.4508
  187SAPI  C21221500   4.129   6.787   8.062 -0.1276 -0.1861  0.8784
  187SAPI  H12R21501   4.194   6.867   8.099  3.0733 -1.5160 -1.4557
  187SAPI  C21321502   4.073   6.690   8.165 -0.4331  0.0136  0.4634
  187SAPI  H13R21503   3.962   6.685   8.154 -0.2378 -1.3529 -1.1305
  187SAPI  H13S21504   4.096   6.737   8.263  0.2055 -2.3078  1.4928
  187SAPI  C21421505   4.114   6.544   8.158 -0.1034 -0.4917 -0.3497
  187SAPI  H14R21506   4.144   6.512   8.057  1.7754  0.3939 -0.1173
  187SAPI  C21521507   4.104   6.458   8.257  0.0918  0.2374 -0.0900
  187SAPI  H15R21508   4.138   6.354   8.245 -1.6359 -0.4089  0.1907
  187SAPI  C21621509   4.070   6.492   8.392  0.0908 -0.0234  0.2280
  187SAPI  H16R21510   3.984   6.562   8.387 -0.6321 -0.9918 -2.3036
  187SAPI  H16S21511   4.155   6.544   8.442  1.0401 -2.0067  0.7632
  187SAPI  C21721512   4.038   6.376   8.489  0.4479 -0.4145  0.4901
  187SAPI  H17R21513   4.124   6.308   8.472  2.2253  2.3172 -2.6819
  187SAPI  H17S21514   3.945   6.322   8.462  0.5904 -1.1124  1.3580
  187SAPI  C21821515   4.032   6.431   8.634 -0.8377 -0.8134  0.0386
  187SAPI  H18R21516   3.939   6.491   8.646  0.0819  0.3729  1.6149
  187SAPI  H18S21517   4.122   6.493   8.648 -1.5047  0.3136 -0.5286
  187SAPI  C21921518   4.038   6.321   8.743  0.0475 -0.3762  0.3864
  187SAPI  H19R21519   4.124   6.251   8.733 -2.5093 -3.6861 -0.0446
  187SAPI  H19S21520   3.952   6.256   8.718  0.1924 -0.8454  1.0793
  187SAPI  C22021521   4.035   6.364   8.887  0.6071 -0.3454  0.1667
  187SAPI  H20R21522   3.943   6.425   8.905  0.7050  0.3302 -1.4795
  187SAPI  H20S21523   4.124   6.423   8.918  0.3195 -0.4316  1.2011
  187SAPI  H20T21524   4.028   6.276   8.954 -0.6943 -1.2800 -1.1401
  187SAPI   C3321525   4.252   6.072   7.346  0.3981  0.0451 -0.0389
  187SAPI   H3X21526   4.330   5.993   7.344  0.0776 -0.3403  1.2192
  187SAPI   H3Y21527   4.160   6.021   7.309 -0.5508  0.7007  1.3184
  187SAPI   C3421528   4.233   6.126   7.487  0.1980  0.2024 -0.5761
  187SAPI   H4X21529   4.329   6.173   7.515  1.1191 -1.5857 -0.6144
  187SAPI   H4Y21530   4.238   6.045   7.562  0.0954 -0.1707 -0.9690
  187SAPI   C3521531   4.116   6.225   7.513 -0.0158 -0.3482 -0.3268
  187SAPI   H5X21532   4.114   6.296   7.428 -0.3837 -1.5016 -1.3034
  187SAPI   H5Y21533   4.141   6.280   7.606  1.8565 -0.6050 -0.6460
  187SAPI   C3621534   3.972   6.165   7.537 -0.0692 -0.6946  0.0011
  187SAPI   H6X21535   3.948   6.095   7.455  0.8551 -0.0695 -0.8196
  187SAPI   H6Y21536   3.896   6.246   7.532 -0.0888 -0.7994 -2.7760
  187SAPI   C3721537   3.955   6.090   7.667  0.3828 -0.6352 -0.2788
  187SAPI   H7X21538   4.011   5.995   7.668 -1.7037 -1.9471  1.8421
  187SAPI   H7Y21539   3.851   6.052   7.668  0.9958 -2.4812  1.5295
  187SAPI   C3821540   3.957   6.173   7.797 -0.7382 -0.2539 -0.6362
  187SAPI   H8X21541   3.904   6.269   7.781 -0.3259  0.1932  0.5788
  187SAPI   H8Y21542   4.063   6.201   7.818 -0.8417  0.6222 -1.2440
  187SAPI   C3921543   3.888   6.099   7.907  0.1538 -0.0443  0.3323
  187SAPI   H9X21544   3.955   6.010   7.918 -1.8869 -1.6124  0.5464
  187SAPI   H9Y21545   3.794   6.064   7.859  0.8754  0.6036 -1.6910
  187SAPI  C31021546   3.888   6.175   8.040  0.1401  0.2437  0.3597
  187SAPI  H10X21547   3.982   6.234   8.044 -0.5847  1.4083  0.9280
  187SAPI  H10Y21548   3.918   6.114   8.128  0.3031  2.2173  1.7583
  187SAPI  C31121549   3.766   6.262   8.061  0.6362 -0.0037 -0.4881
  187SAPI  H11X21550   3.678   6.195   8.072  0.1079  0.7194 -0.2279
  187SAPI  H11Y21551   3.750   6.313   7.964  1.2523  1.0033 -0.0798
  187SAPI  C31221552   3.769   6.378   8.162 -0.0220 -0.0293  0.1075
  187SAPI  H12X21553   3.842   6.455   8.128 -1.6913  1.5551 -0.0607
  187SAPI  H12Y21554   3.786   6.341   8.265 -0.9800  2.4160  1.2338
  187SAPI  C31321555   3.631   6.439   8.161  0.0625  0.2769  0.7542
  187SAPI  H13X21556   3.561   6.370   8.213 -0.7720  2.1059  2.1372
  187SAPI  H13Y21557   3.583   6.444   8.061  1.2576 -0.4111  0.1138
  187SAPI  C31421558   3.615   6.584   8.221  0.0062 -0.7953  0.3513
  187SAPI  H14X21559   3.559   6.642   8.145 -0.4376 -2.4938 -0.6830
  187SAPI  H14Y21560   3.715   6.627   8.242 -1.1061  1.8879  0.5140
  187SAPI  C31521561   3.533   6.581   8.354 -0.6640  0.0250  0.8924
  187SAPI  H15X21562   3.428   6.549   8.334 -1.1318  1.6728  0.5527
  187SAPI  H15Y21563   3.533   6.680   8.404 -1.4536  0.1253  0.7093
  187SAPI  C31621564   3.591   6.484   8.460  0.8358 -1.0760  0.0727
  187SAPI  H16X21565   3.702   6.475   8.470  0.7339 -0.4785  2.0802
  187SAPI  H16Y21566   3.557   6.380   8.440  0.0869 -1.4194  2.7577
  187SAPI  C31721567   3.553   6.527   8.604  0.4186  0.0278 -0.2946
  187SAPI  H17X21568   3.442   6.518   8.609  0.1058  2.6604 -0.9525
  187SAPI  H17Y21569   3.587   6.632   8.613  0.6202 -0.1036  0.5813
  187SAPI  C31821570   3.625   6.447   8.711  0.3213  0.3728  0.2193
  187SAPI  H18X21571   3.612   6.486   8.814 -1.3321  0.4873 -0.0105
  187SAPI  H18Y21572   3.730   6.434   8.678  0.0316 -2.2090  0.0442
  187SAPI  H18Z21573   3.583   6.344   8.714 -0.9179  0.8814  1.6838
  188SAPI   C1221574   2.688   2.278   6.093  0.2382  0.5635 -0.2374
  188SAPI    H221575   2.617   2.298   6.176  0.3442 -0.8377  0.2090
  188SAPI    O221576   2.639   2.194   5.986  0.0646  0.0480  0.3772
  188SAPI   HO221577   2.573   2.138   6.026 -2.0291  0.7012 -1.9397
  188SAPI   C1321578   2.715   2.419   6.036 -0.0870 -0.3965  0.2681
  188SAPI    H321579   2.758   2.489   6.110 -2.1159  0.0498  1.0806
  188SAPI    O321580   2.595   2.473   5.988  0.3553 -0.0070  0.5381
  188SAPI   HO321581   2.551   2.388   5.977 -0.5594  0.6926 -2.1301
  188SAPI   C1421582   2.820   2.407   5.928  1.0534  0.9310 -0.2690
  188SAPI    H421583   2.789   2.328   5.856  0.0411 -1.3546  2.5015
  188SAPI    O421584   2.843   2.529   5.862 -0.0501 -0.2289 -0.2848
  188SAPI   HO421585   2.881   2.599   5.916 -0.4451 -0.3827  0.1998
  188SAPI   C1521586   2.946   2.353   6.001  0.3754 -0.3444 -0.3698
  188SAPI    H521587   2.975   2.427   6.078 -0.3413  1.3177 -1.6289
  188SAPI    O521588   3.050   2.355   5.902 -0.3448  0.5383  0.3909
  188SAPI   HO521589   3.133   2.335   5.946 -0.5347  1.2017  1.0696
  188SAPI   C1621590   2.923   2.216   6.056  0.4571 -0.0268 -0.7066
  188SAPI    H621591   2.896   2.148   5.973 -2.3096  1.7851 -1.4432
  188SAPI    O621592   3.039   2.168   6.115  0.0763  0.1663 -0.1680
  188SAPI   HO621593   3.024   2.150   6.208  0.2130  0.0392 -0.1702
  188SAPI   C1121594   2.809   2.221   6.156  0.3580  0.1202 -0.6042
  188SAPI    H121595   2.824   2.289   6.242 -4.3059  0.2400  0.4105
  188SAPI     P21596   2.829   2.044   6.354 -0.4946 -0.2447 -0.3833
  188SAPI   O1321597   2.959   2.105   6.380  0.2714  0.6909  0.5533
  188SAPI   O1421598   2.825   1.894   6.347 -0.2325 -0.0379 -0.4729
  188SAPI   O1221599   2.781   2.090   6.207 -0.3986  0.4117 -0.5085
  188SAPI   O1121600   2.727   2.089   6.460 -0.3277  0.0824 -1.0202
  188SAPI    C121601   2.579   2.079   6.444 -0.3168  0.4196 -0.2991
  188SAPI    HA21602   2.548   2.092   6.339  1.4185  0.2423 -0.8703
  188SAPI    HB21603   2.537   1.980   6.473 -0.1446  0.4953  0.2217
  188SAPI    C221604   2.516   2.192   6.527 -1.0053 -0.2987 -0.5026
  188SAPI    HS21605   2.558   2.293   6.512 -0.1576 -0.5152  0.3603
  188SAPI   O2121606   2.540   2.149   6.667 -0.2653  0.2367 -0.4547
  188SAPI   C2121607   2.580   2.244   6.751 -0.2920  0.4217  0.2705
  188SAPI   O2221608   2.613   2.356   6.718  0.1309 -0.1001 -0.4276
  188SAPI   C2221609   2.584   2.182   6.885  0.3381 -0.0423 -0.4579
  188SAPI   H2R21610   2.480   2.164   6.920  1.0098  0.2451  1.9277
  188SAPI   H2S21611   2.639   2.089   6.863 -0.8098 -0.3863 -1.9812
  188SAPI    C321612   2.371   2.200   6.501 -0.1926  0.1509  0.2311
  188SAPI    HX21613   2.330   2.097   6.495  0.9488 -0.3088  0.1926
  188SAPI    HY21614   2.370   2.236   6.395  1.1161  1.1595  0.5462
  188SAPI   O3121615   2.297   2.279   6.595 -0.4244  0.5092  0.0418
  188SAPI   C3121616   2.180   2.301   6.560 -0.0039 -0.5342 -0.5569
  188SAPI   O3221617   2.126   2.264   6.451 -0.0533  0.0394 -0.0914
  188SAPI   C3221618   2.111   2.380   6.665  0.5904 -0.4845  0.7709
  188SAPI   H2X21619   2.131   2.489   6.653 -4.9702  0.7534 -0.4843
  188SAPI   H2Y21620   2.144   2.328   6.758 -2.8214 -2.3336  1.1242
  188SAPI   C2321621   2.645   2.275   6.990 -0.2128 -0.1068 -0.2781
  188SAPI   H3R21622   2.593   2.371   7.009 -1.1055 -0.8711  1.4030
  188SAPI   H3S21623   2.746   2.301   6.952 -0.3995 -0.8189 -1.2833
  188SAPI   C2421624   2.685   2.210   7.124 -0.9361  0.0800  0.2527
  188SAPI   H4R21625   2.730   2.288   7.189 -0.7243  1.1110 -1.0671
  188SAPI   H4S21626   2.762   2.135   7.100 -0.2488  1.0486 -0.6591
  188SAPI   C2521627   2.568   2.146   7.191 -0.2925  0.0870  0.8369
  188SAPI   H5R21628   2.511   2.065   7.142  1.8694 -1.6201  0.9694
  188SAPI   C2621629   2.531   2.164   7.316  0.7926 -0.2513 -0.2618
  188SAPI   H6R21630   2.444   2.109   7.355  0.9186  0.2806  0.8185
  188SAPI   C2721631   2.595   2.259   7.419  0.0389  0.2667 -0.0681
  188SAPI   H7R21632   2.513   2.317   7.465 -0.7269  0.0512 -1.1173
  188SAPI   H7S21633   2.656   2.341   7.376  0.7784 -0.8994 -1.3567
  188SAPI   C2821634   2.667   2.187   7.525  0.3262  0.3695  0.2383
  188SAPI   H8R21635   2.717   2.091   7.504  0.4696 -0.2296  2.9318
  188SAPI   C2921636   2.677   2.228   7.655  0.0821 -0.5904  0.5865
  188SAPI   H9R21637   2.711   2.155   7.729  0.4052  0.1451  1.1748
  188SAPI  C21021638   2.620   2.359   7.710  0.4395 -0.5365 -0.4029
  188SAPI  H10R21639   2.510   2.346   7.725  0.0935  1.1063 -1.2641
  188SAPI  H10S21640   2.652   2.434   7.635  4.6627 -2.0085 -0.3002
  188SAPI  C21121641   2.674   2.403   7.842 -0.1183  0.0984 -0.2491
  188SAPI  H11R21642   2.732   2.495   7.833  2.4044 -1.4678 -0.9645
  188SAPI  C21221643   2.657   2.353   7.965 -0.3272  0.1525 -0.2191
  188SAPI  H12R21644   2.716   2.402   8.044 -0.0743  1.1810 -1.0354
  188SAPI  C21321645   2.586   2.226   8.010 -0.8202 -0.3300  0.1469
  188SAPI  H13R21646   2.653   2.137   8.011 -0.2320  0.0310  2.9430
  188SAPI  H13S21647   2.503   2.208   7.939 -1.4913  1.0497  0.5482
  188SAPI  C21421648   2.534   2.225   8.157 -0.0413 -0.1109  0.6208
  188SAPI  H14R21649   2.518   2.327   8.193  0.4591  0.0709  0.3420
  188SAPI  C21521650   2.501   2.118   8.238  0.2935 -0.3148  0.0827
  188SAPI  H15R21651   2.461   2.146   8.336  0.3240  2.7397 -0.6990
  188SAPI  C21621652   2.515   1.972   8.193  0.9105 -0.2241  0.0776
  188SAPI  H16R21653   2.608   1.930   8.236  1.1405 -0.4126 -0.5870
  188SAPI  H16S21654   2.506   1.958   8.083  0.3444 -0.4637  0.1489
  188SAPI  C21721655   2.397   1.895   8.268  0.5289  0.7589 -0.0123
  188SAPI  H17R21656   2.297   1.925   8.229 -1.0045 -1.4667  1.8756
  188SAPI  H17S21657   2.393   1.905   8.378  1.2174  1.3980 -0.0424
  188SAPI  C21821658   2.412   1.740   8.245 -0.4780 -0.6082  0.2827
  188SAPI  H18R21659   2.504   1.702   8.294  0.6266 -2.1507 -2.7042
  188SAPI  H18S21660   2.427   1.724   8.136  0.7979  2.4653 -0.1002
  188SAPI  C21921661   2.288   1.653   8.301  0.7638 -0.1217 -0.4081
  188SAPI  H19R21662   2.303   1.545   8.278  0.4994 -1.1737  3.5653
  188SAPI  H19S21663   2.193   1.687   8.256  0.5507  0.4251  0.4358
  188SAPI  C22021664   2.284   1.655   8.456  0.0737 -0.2023 -0.2646
  188SAPI  H20R21665   2.198   1.594   8.494 -1.9627  0.9183 -2.7710
  188SAPI  H20S21666   2.273   1.756   8.502 -1.1695 -0.3644 -0.1582
  188SAPI  H20T21667   2.370   1.595   8.493 -1.4911 -2.1483  0.4192
  188SAPI   C3321668   1.962   2.368   6.661  0.0855 -0.5582 -0.5479
  188SAPI   H3X21669   1.933   2.261   6.653 -1.1890 -0.1528 -1.9536
  188SAPI   H3Y21670   1.926   2.422   6.570  0.1447  1.0557  0.3408
  188SAPI   C3421671   1.891   2.431   6.786  0.3113  0.2947  0.1059
  188SAPI   H4X21672   1.785   2.398   6.775  1.0872 -2.1115 -0.8134
  188SAPI   H4Y21673   1.897   2.540   6.767  0.3891  0.8370  2.8584
  188SAPI   C3521674   1.945   2.405   6.928 -0.5360  0.0911  0.0268
  188SAPI   H5X21675   2.051   2.431   6.945  0.1233 -0.9309 -2.1971
  188SAPI   H5Y21676   1.953   2.295   6.939 -1.8130  0.1439  1.8952
  188SAPI   C3621677   1.862   2.457   7.037 -0.5068 -0.1949 -0.2890
  188SAPI   H6X21678   1.756   2.425   7.022 -0.3534 -1.3228  0.9098
  188SAPI   H6Y21679   1.861   2.567   7.025 -0.8140 -0.1452  0.1893
  188SAPI   C3721680   1.904   2.401   7.178  0.6523 -0.0752 -0.0908
  188SAPI   H7X21681   1.999   2.456   7.198  1.9837 -2.2413 -0.1126
  188SAPI   H7Y21682   1.927   2.293   7.165  0.4163  0.1133 -2.5241
  188SAPI   C3821683   1.802   2.426   7.280 -0.3161  0.0156 -0.1854
  188SAPI   H8X21684   1.697   2.415   7.248 -0.2588 -1.9984  0.1671
  188SAPI   H8Y21685   1.823   2.533   7.304  1.1110  0.0813 -1.5533
  188SAPI   C3921686   1.822   2.341   7.399 -0.5553  0.4844 -0.5674
  188SAPI   H9X21687   1.930   2.329   7.419 -0.7923 -0.0812  0.4511
  188SAPI   H9Y21688   1.784   2.244   7.360 -0.3970 -0.5045  1.6003
  188SAPI  C31021689   1.742   2.372   7.525  0.7510 -0.1197  0.8011
  188SAPI  H10X21690   1.640   2.334   7.503  0.9503 -0.2546  0.0580
  188SAPI  H10Y21691   1.743   2.479   7.552 -1.6459  0.2482 -0.2722
  188SAPI  C31121692   1.790   2.308   7.652 -0.2576 -0.3173  0.3271
  188SAPI  H11X21693   1.867   2.380   7.687 -0.2644  0.9759 -2.1117
  188SAPI  H11Y21694   1.837   2.211   7.625 -0.3102  0.1474 -1.5354
  188SAPI  C31221695   1.680   2.303   7.754 -0.1911  0.9060  0.8322
  188SAPI  H12X21696   1.615   2.216   7.730  0.4176  0.6440  0.0861
  188SAPI  H12Y21697   1.622   2.398   7.753 -0.8012  0.5838 -2.2403
  188SAPI  C31321698   1.733   2.290   7.898 -0.4152  0.3066 -0.1133
  188SAPI  H13X21699   1.818   2.359   7.913  1.3297 -1.9389  0.9796
  188SAPI  H13Y21700   1.761   2.183   7.912  0.0874  0.2839 -1.1563
  188SAPI  C31421701   1.625   2.326   8.004 -0.4597  0.6686 -0.2326
  188SAPI  H14X21702   1.541   2.256   7.988  0.2140 -0.3041  0.3752
  188SAPI  H14Y21703   1.582   2.424   7.974  1.2749  1.3783 -0.5181
  188SAPI  C31521704   1.687   2.328   8.141 -0.0323 -1.2073 -0.1277
  188SAPI  H15X21705   1.724   2.430   8.166  0.0898 -0.9292 -1.3745
  188SAPI  H15Y21706   1.765   2.250   8.147  1.0554 -0.1474 -0.1887
  188SAPI  C31621707   1.590   2.273   8.246 -0.5394 -0.1544  0.3034
  188SAPI  H16X21708   1.536   2.185   8.205 -0.3005 -0.1825  0.0391
  188SAPI  H16Y21709   1.517   2.356   8.251 -0.7284 -0.2733 -0.3242
  188SAPI  C31721710   1.650   2.233   8.383  0.2359  0.7388  0.3818
  188SAPI  H17X21711   1.711   2.314   8.428  1.3813  0.8146 -1.2000
  188SAPI  H17Y21712   1.712   2.143   8.362 -3.0867 -1.9596  1.3378
  188SAPI  C31821713   1.536   2.191   8.475  0.4166 -0.3345 -0.2851
  188SAPI  H18X21714   1.573   2.204   8.579 -1.3865  0.7392  0.2557
  188SAPI  H18Y21715   1.505   2.085   8.461  1.4507 -0.6707 -0.1488
  188SAPI  H18Z21716   1.446   2.254   8.461 -0.8425 -2.0800 -0.3956
  189POPC     N21717   3.570   0.662  11.041  0.1582  0.0120 -0.0566
  189POPC   C1221718   3.647   0.566  11.135 -0.0761 -0.2477 -0.0414
  189POPC  H12A21719   3.603   0.568  11.233 -0.8828 -1.8441 -0.3328
  189POPC  H12B21720   3.748   0.601  11.153 -0.7372  0.3659  2.8707
  189POPC   C1321721   3.535   0.785  11.117 -0.1056 -0.1356 -0.1823
  189POPC  H13A21722   3.620   0.828  11.167 -0.0998 -0.2432 -0.0979
  189POPC  H13B21723   3.489   0.860  11.054 -1.2455  0.0463  0.8163
  189POPC  H13C21724   3.466   0.763  11.198 -0.3805  0.1703 -0.3269
  189POPC   C1421725   3.643   0.696  10.913 -0.6580  0.5244 -0.1477
  189POPC  H14A21726   3.672   0.602  10.867  0.8593  0.8419  0.1080
  189POPC  H14B21727   3.579   0.754  10.849 -1.5858 -2.2653 -1.9463
  189POPC  H14C21728   3.729   0.755  10.939 -0.8527  0.5802  0.3767
  189POPC   C1521729   3.432   0.601  11.002 -0.5095 -0.0002 -0.5305
  189POPC  H15A21730   3.448   0.499  10.970  0.0152  0.2278 -1.0160
  189POPC  H15B21731   3.387   0.648  10.916 -1.2922  1.1311  0.4755
  189POPC  H15C21732   3.360   0.597  11.082  1.0634  1.8333  1.0670
  189POPC   C1121733   3.637   0.416  11.097 -0.1898  0.1667  0.0915
  189POPC  H11A21734   3.529   0.392  11.101 -0.4673  1.3951  3.5018
  189POPC  H11B21735   3.686   0.352  11.174 -1.6342  1.7525  2.4406
  189POPC     P21736   3.840   0.379  10.937 -0.6323  0.4537 -0.0427
  189POPC   O1321737   3.890   0.252  11.003  0.0555 -0.0465  0.1554
  189POPC   O1421738   3.913   0.497  10.989  0.1456 -0.2091  0.4403
  189POPC   O1221739   3.686   0.397  10.964 -0.0289 -0.1446 -0.2868
  189POPC   O1121740   3.843   0.364  10.775 -0.4207 -0.1189  0.2819
  189POPC    C121741   3.766   0.254  10.721 -0.3891 -0.4586 -0.2209
  189POPC    HA21742   3.717   0.299  10.632  3.0319 -1.4311 -2.8074
  189POPC    HB21743   3.697   0.212  10.797 -0.3957 -1.6191 -0.8457
  189POPC    C221744   3.858   0.144  10.664  0.3795  0.1508  0.3839
  189POPC    HS21745   3.910   0.102  10.753  0.8200 -0.8441 -0.3103
  189POPC   O2121746   3.958   0.187  10.572  0.3877 -0.4930 -0.2226
  189POPC   C2121747   4.057   0.104  10.528 -0.0563 -1.0835  0.1892
  189POPC   O2221748   4.071  -0.008  10.563  0.2145 -0.0749 -0.2915
  189POPC   C2221749   4.148   0.181  10.436 -0.4211 -0.2168 -0.1613
  189POPC   H2R21750   4.244   0.197  10.489 -0.4297 -2.3026  0.5705
  189POPC   H2S21751   4.103   0.278  10.404  1.7714  0.0884 -2.7091
  189POPC    C321752   3.777   0.018  10.612  0.1625 -0.1372 -0.0786
  189POPC    HX21753   3.676   0.023  10.658  0.7426  1.2372  1.0928
  189POPC    HY21754   3.839  -0.068  10.646 -1.7803 -1.8589 -0.6475
  189POPC   O3121755   3.776   0.019  10.468  0.0373 -0.0671 -0.0004
  189POPC   C3121756   3.700  -0.082  10.416  0.3511 -0.6971  0.9356
  189POPC   O3221757   3.633  -0.155  10.482  0.0613 -0.2361 -0.0493
  189POPC   C3221758   3.716  -0.082  10.265 -0.1854 -0.3984 -0.0462
  189POPC   H2X21759   3.801  -0.142  10.226  0.4400  0.3534  0.1204
  189POPC   H2Y21760   3.746   0.021  10.235 -0.6226  0.0129  0.8741
  189POPC   C2321761   4.181   0.104  10.307  0.3054  0.1355 -0.1365
  189POPC   H3R21762   4.206  -0.002  10.325 -0.7784 -0.2383 -0.8065
  189POPC   H3S21763   4.269   0.144  10.252  0.1351 -0.7311 -1.0753
  189POPC   C2421764   4.073   0.114  10.203  0.1627  0.1537  0.5279
  189POPC   H4R21765   4.034   0.218  10.196 -1.1318 -0.3863 -0.7018
  189POPC   H4S21766   3.988   0.054  10.239  1.1054 -0.7556  1.2923
  189POPC   C2521767   4.130   0.071  10.063  0.6158 -0.2771 -0.4081
  189POPC   H5R21768   4.160  -0.036  10.066  2.9219  0.2357 -2.4053
  189POPC   H5S21769   4.220   0.132  10.041  1.1006 -1.7748 -3.0479
  189POPC   C2621770   4.027   0.103   9.951 -0.1961  0.0334 -0.3123
  189POPC   H6R21771   3.994   0.209   9.962  1.6742  0.6938 -0.6839
  189POPC   H6S21772   3.932   0.046   9.959  0.4695 -1.6979 -3.1195
  189POPC   C2721773   4.092   0.085   9.820 -0.1215 -0.3290  0.4950
  189POPC   H7R21774   4.107  -0.025   9.807  1.9082 -0.0034 -0.3300
  189POPC   H7S21775   4.194   0.126   9.809  0.1172 -0.5388  1.7582
  189POPC   C2821776   4.004   0.144   9.713  0.3852 -0.5224 -0.3644
  189POPC   H8R21777   3.897   0.126   9.740 -0.3317  2.3330 -0.9485
  189POPC   H8S21778   4.020   0.081   9.623  1.8811 -1.6983  0.6714
  189POPC   C2921779   4.026   0.291   9.691  0.6010 -0.6694  0.7359
  189POPC   H9121780   4.061   0.342   9.782  1.2514  1.4355 -0.6286
  189POPC  C21021781   4.012   0.357   9.572 -0.3529 -0.3802  0.2962
  189POPC  H10121782   4.021   0.466   9.557 -3.2565  0.1253  1.6136
  189POPC  C21121783   3.956   0.285   9.446 -0.0440 -1.3010 -0.7197
  189POPC  H11R21784   3.872   0.233   9.496  0.0847  0.7426  1.8521
  189POPC  H11S21785   4.036   0.229   9.393  1.7224 -2.2873  2.7036
  189POPC  C21221786   3.886   0.372   9.334  0.6529 -0.1203 -1.3110
  189POPC  H12R21787   3.804   0.423   9.388 -0.3159 -1.1029 -1.8134
  189POPC  H12S21788   3.833   0.311   9.258 -0.3604 -1.7188  0.5753
  189POPC  C21321789   3.978   0.466   9.262  0.0308 -0.1730 -0.6366
  189POPC  H13R21790   4.063   0.409   9.219 -0.8850 -2.3792  0.3018
  189POPC  H13S21791   4.020   0.536   9.336  0.5723 -0.1852 -0.9304
  189POPC  C21421792   3.915   0.539   9.138 -0.3743 -0.2090  0.5596
  189POPC  H14R21793   3.831   0.602   9.173 -0.3700 -0.8651  1.8151
  189POPC  H14S21794   3.863   0.462   9.076  2.1650 -1.1293 -0.5637
  189POPC  C21521795   4.025   0.624   9.061  0.4470  0.9451 -0.4402
  189POPC  H15R21796   4.110   0.562   9.025  0.3546 -0.3956  1.4829
  189POPC  H15S21797   4.058   0.703   9.132  1.3384  0.2827 -0.0953
  189POPC  C21621798   3.963   0.708   8.953 -0.3396  0.1173  0.0404
  189POPC  H16R21799   4.027   0.793   8.922 -0.2826  0.5488  1.2940
  189POPC  H16S21800   3.878   0.758   9.005  0.5470  1.4585  0.2223
  189POPC  C21721801   3.929   0.625   8.830 -0.0727  0.2676 -0.1530
  189POPC  H17R21802   3.861   0.539   8.846  1.2516 -0.8623 -0.4363
  189POPC  H17S21803   4.022   0.575   8.797 -0.7007 -0.8680 -0.2740
  189POPC  C21821804   3.860   0.714   8.725  0.2923 -0.2840  0.2407
  189POPC  H18R21805   3.931   0.783   8.675 -0.5500 -0.3617 -1.1130
  189POPC  H18S21806   3.775   0.771   8.768 -0.1200 -0.6725 -0.0614
  189POPC  H18T21807   3.820   0.655   8.640 -0.2741  0.5983 -0.1182
  189POPC   C3321808   3.590  -0.117  10.181  0.3971  0.4542 -0.3926
  189POPC   H3X21809   3.510  -0.043  10.202  1.0352  0.5856  1.8129
  189POPC   H3Y21810   3.537  -0.208  10.218 -1.4350  2.1952  1.6289
  189POPC   C3421811   3.614  -0.131  10.034  0.1496 -0.7540  0.4062
  189POPC   H4X21812   3.699  -0.199  10.012  2.1845  1.6416  0.3111
  189POPC   H4Y21813   3.647  -0.034   9.990 -1.0476 -0.3506  0.3477
  189POPC   C3521814   3.489  -0.175   9.953 -0.0900 -0.6596 -0.3204
  189POPC   H5X21815   3.398  -0.114   9.968 -1.1150 -2.0863 -0.4467
  189POPC   H5Y21816   3.472  -0.272  10.006 -0.0880  0.8682  2.7046
  189POPC   C3621817   3.518  -0.190   9.805 -1.1344 -0.2793  0.2026
  189POPC   H6X21818   3.417  -0.224   9.775 -2.1813  1.1037  1.9518
  189POPC   H6Y21819   3.599  -0.261   9.777  1.2335  2.3160  0.0055
  189POPC   C3721820   3.558  -0.054   9.736  0.1424  0.0029  0.1568
  189POPC   H7X21821   3.659  -0.011   9.757 -0.2104  0.8630  0.1530
  189POPC   H7Y21822   3.496   0.023   9.787 -0.2249 -1.0558  1.3312
  189POPC   C3821823   3.525  -0.058   9.585  1.0207 -0.5708 -0.4839
  189POPC   H8X21824   3.432  -0.001   9.561  0.7940 -1.4519 -1.8403
  189POPC   H8Y21825   3.493  -0.161   9.556  1.0027 -1.0088  1.0089
  189POPC   C3921826   3.633   0.007   9.487  0.7733 -0.0867 -0.3996
  189POPC   H9X21827   3.723  -0.058   9.494  0.6873 -0.3135 -1.2392
  189POPC   H9Y21828   3.636   0.113   9.520 -1.1320 -0.1602  0.1442
  189POPC  C31021829   3.574   0.005   9.347 -0.2596 -0.1329 -0.1601
  189POPC  H10X21830   3.468   0.039   9.354 -0.8014 -0.9733 -3.0866
  189POPC  H10Y21831   3.572  -0.097   9.304 -0.9218 -0.7050  1.1875
  189POPC  C31121832   3.643   0.105   9.252  0.4115  0.2035  0.3186
  189POPC  H11X21833   3.749   0.073   9.241 -0.5922 -4.1641  1.5062
  189POPC  H11Y21834   3.634   0.199   9.311 -1.1283  0.3271 -0.0742
  189POPC  C31221835   3.574   0.115   9.119 -0.1947  0.5530  0.1507
  189POPC  H12X21836   3.480   0.170   9.141 -0.3251 -0.4827  2.5034
  189POPC  H12Y21837   3.544   0.022   9.065  1.6236  0.0622 -0.0655
  189POPC  C31321838   3.658   0.197   9.024 -0.6605  0.2629  0.0804
  189POPC  H13X21839   3.703   0.281   9.079  0.6380 -0.6373  0.4332
  189POPC  H13Y21840   3.584   0.237   8.950 -2.2279  0.7648  1.8420
  189POPC  C31421841   3.758   0.118   8.933  0.6705 -0.8206 -0.3835
  189POPC  H14X21842   3.715   0.023   8.894 -0.1605 -0.5479 -0.1616
  189POPC  H14Y21843   3.847   0.096   8.996  0.9528  0.4938 -0.2836
  189POPC  C31521844   3.797   0.208   8.814  0.2514  0.2679  0.6976
  189POPC  H15X21845   3.868   0.283   8.856  1.8277 -0.7882  0.0313
  189POPC  H15Y21846   3.716   0.268   8.767 -0.8670 -1.7746 -0.0825
  189POPC  C31621847   3.872   0.120   8.704  0.3026 -0.1363 -1.2598
  189POPC  H16X21848   3.939   0.186   8.645  0.5469  0.3283 -0.4907
  189POPC  H16Y21849   3.793   0.074   8.642 -0.2920 -0.0500 -0.5817
  189POPC  H16Z21850   3.935   0.053   8.767 -0.1464  1.0433  0.5424
  190POPC     N21851   6.148   5.711  11.229 -0.2307 -1.2377  0.0446
  190POPC   C1221852   6.209   5.707  11.085  0.4896 -0.2191  0.0330
  190POPC  H12A21853   6.171   5.794  11.033 -1.1686  1.2379  3.3657
  190POPC  H12B21854   6.159   5.624  11.039 -1.0881 -0.4688  2.0768
  190POPC   C1321855   6.001   5.737  11.218 -0.1377 -0.4002  0.0129
  190POPC  H13A21856   5.968   5.775  11.313  0.0682  0.1769 -0.1379
  190POPC  H13B21857   5.985   5.809  11.139  1.2343 -1.1294 -0.9731
  190POPC  H13C21858   5.950   5.645  11.195 -1.1595 -0.6070  2.7485
  190POPC   C1421859   6.164   5.576  11.295 -0.7328 -0.4306  0.0994
  190POPC  H14A21860   6.113   5.497  11.241  1.5219 -1.6408 -0.4163
  190POPC  H14B21861   6.265   5.538  11.293 -0.7295 -0.4313 -1.7686
  190POPC  H14C21862   6.116   5.580  11.391 -1.2128  0.8207 -0.1760
  190POPC   C1521863   6.220   5.812  11.314 -0.1923  0.5170  0.1039
  190POPC  H15A21864   6.208   5.813  11.422  1.7342  0.0767  0.3578
  190POPC  H15B21865   6.195   5.911  11.279 -3.8411 -1.0862 -2.4259
  190POPC  H15C21866   6.327   5.802  11.305 -0.2065 -0.8412  1.1155
  190POPC   C1121867   6.361   5.700  11.075 -0.0519 -0.5057 -0.2767
  190POPC  H11A21868   6.417   5.787  11.116 -0.8607 -0.2054  0.2088
  190POPC  H11B21869   6.391   5.710  10.969 -2.2014 -0.6542 -0.9437
  190POPC     P21870   6.439   5.451  11.078  0.0975  0.1235  0.2924
  190POPC   O1321871   6.314   5.380  11.065  0.0889  0.0398  0.6414
  190POPC   O1421872   6.548   5.387  11.153  0.4036 -0.5789 -0.2402
  190POPC   O1221873   6.408   5.583  11.143 -0.2033 -0.2339  0.2883
  190POPC   O1121874   6.489   5.480  10.932 -0.2124  0.1142  0.0224
  190POPC    C121875   6.553   5.387  10.850  0.5181  0.6220  0.2654
  190POPC    HA21876   6.493   5.358  10.761 -0.0414  0.5720  0.6479
  190POPC    HB21877   6.570   5.291  10.905 -1.7164 -0.6006 -1.0088
  190POPC    C221878   6.683   5.443  10.792 -0.1362 -0.1100 -0.4738
  190POPC    HS21879   6.747   5.461  10.880  2.1261  0.0672 -2.0637
  190POPC   O2121880   6.649   5.566  10.715  0.0835  0.4576 -0.0957
  190POPC   C2121881   6.746   5.646  10.679  0.2234 -0.1790  0.3853
  190POPC   O2221882   6.864   5.643  10.716 -0.1547  0.4169 -0.1245
  190POPC   C2221883   6.677   5.746  10.582 -0.5550  0.0723 -0.1571
  190POPC   H2R21884   6.677   5.838  10.645 -1.7516  0.6103 -0.8974
  190POPC   H2S21885   6.569   5.721  10.575 -0.9144  0.5607  2.5444
  190POPC    C321886   6.766   5.335  10.713  0.6510  0.5846 -0.0630
  190POPC    HX21887   6.783   5.253  10.786  0.8152  0.6744 -0.0006
  190POPC    HY21888   6.859   5.382  10.675 -0.7127  1.3460 -2.7585
  190POPC   O3121889   6.681   5.282  10.605 -0.1377 -0.5770 -0.7937
  190POPC   C3121890   6.691   5.343  10.488  0.3965  0.7523  0.3004
  190POPC   O3221891   6.773   5.432  10.462 -0.1708  0.0241 -0.9986
  190POPC   C3221892   6.603   5.275  10.387  0.6127 -0.2022  0.4039
  190POPC   H2X21893   6.505   5.257  10.437  0.1211 -0.1695 -0.5129
  190POPC   H2Y21894   6.650   5.179  10.356 -0.9368 -0.1249 -2.5705
  190POPC   C2321895   6.747   5.755  10.450  0.9697 -0.1819 -0.2194
  190POPC   H3R21896   6.742   5.658  10.395 -1.1268  0.3071 -0.9884
  190POPC   H3S21897   6.856   5.759  10.467  0.8036  0.2634  0.7959
  190POPC   C2421898   6.703   5.866  10.359  0.2907  0.7007 -0.9223
  190POPC   H4R21899   6.700   5.960  10.418  1.2491 -0.3643  0.9191
  190POPC   H4S21900   6.605   5.839  10.313  0.2601 -1.9815  0.5522
  190POPC   C2521901   6.797   5.881  10.238  0.3714 -0.0028 -0.2370
  190POPC   H5R21902   6.898   5.913  10.270 -1.1052  2.6719  2.2937
  190POPC   H5S21903   6.758   5.969  10.184 -0.3718  0.2569  0.6890
  190POPC   C2621904   6.790   5.754  10.151  0.3080  0.0293 -0.1511
  190POPC   H6R21905   6.685   5.724  10.131  0.1571  0.6246 -0.2794
  190POPC   H6S21906   6.850   5.673  10.198 -0.1553  0.5597  1.4097
  190POPC   C2721907   6.857   5.766  10.018  0.2506 -0.1011  0.0083
  190POPC   H7R21908   6.966   5.764  10.042  0.6866 -0.0379 -1.8022
  190POPC   H7S21909   6.832   5.862   9.969 -2.6881 -1.5752 -1.6862
  190POPC   C2821910   6.821   5.657   9.919  0.3384 -0.3937  0.0886
  190POPC   H8R21911   6.735   5.691   9.858  0.1479  0.0999  0.6261
  190POPC   H8S21912   6.781   5.564   9.964  2.6007 -2.6217 -2.1832
  190POPC   C2921913   6.935   5.637   9.817  0.4904 -0.2472 -0.0287
  190POPC   H9121914   7.013   5.569   9.856  1.1153  0.8177  0.6354
  190POPC  C21021915   6.936   5.678   9.693  0.1561  0.0422  0.2270
  190POPC  H10121916   7.020   5.656   9.625  0.4354  3.0124 -0.5565
  190POPC  C21121917   6.830   5.761   9.620  0.1297 -0.3353 -0.2708
  190POPC  H11R21918   6.867   5.859   9.583  0.7258  0.3643  2.0524
  190POPC  H11S21919   6.754   5.794   9.694 -1.3188  0.6183 -2.1114
  190POPC  C21221920   6.759   5.698   9.501  0.6642  0.5629 -0.5365
  190POPC  H12R21921   6.666   5.753   9.475  0.4748 -0.7240 -2.8422
  190POPC  H12S21922   6.729   5.596   9.533 -2.4797  0.8587 -2.1246
  190POPC  C21321923   6.847   5.689   9.378  0.2581 -0.6243 -0.8728
  190POPC  H13R21924   6.794   5.613   9.317 -2.1594 -0.8596  1.3204
  190POPC  H13S21925   6.949   5.661   9.413 -0.0588  0.5556  1.1893
  190POPC  C21421926   6.859   5.831   9.311  0.2843 -0.4180 -0.1954
  190POPC  H14R21927   6.924   5.901   9.368 -3.0298  0.9950  2.1546
  190POPC  H14S21928   6.755   5.870   9.315 -0.1702 -1.6694  1.2113
  190POPC  C21521929   6.893   5.838   9.160 -0.1781  0.0310  0.0018
  190POPC  H15R21930   6.836   5.918   9.107  2.3211  0.3162 -2.5159
  190POPC  H15S21931   6.862   5.747   9.104 -2.1964  1.2103 -0.9339
  190POPC  C21621932   7.040   5.874   9.125  0.2498 -0.0080  0.9987
  190POPC  H16R21933   7.092   5.780   9.152  0.3747  0.5886  2.9564
  190POPC  H16S21934   7.066   5.949   9.203 -1.7124  0.5151  1.2029
  190POPC  C21721935   7.083   5.921   8.989 -0.1124 -0.3561 -0.1768
  190POPC  H17R21936   7.193   5.930   8.999 -0.3124  0.8693  1.5798
  190POPC  H17S21937   7.043   6.024   8.975  4.6328  1.9722  1.4410
  190POPC  C21821938   7.043   5.827   8.874 -0.0340  0.3288 -0.3526
  190POPC  H18R21939   6.942   5.857   8.838  0.1261  1.0211 -0.2496
  190POPC  H18S21940   7.041   5.721   8.907 -0.6639  0.4024 -0.1368
  190POPC  H18T21941   7.107   5.838   8.783  0.5599 -0.6021 -0.0605
  190POPC   C3321942   6.579   5.361  10.260 -0.7875  0.1003  0.0732
  190POPC   H3X21943   6.667   5.359  10.193  0.9010  1.1646  2.1606
  190POPC   H3Y21944   6.554   5.465  10.289 -3.2363 -0.3502 -0.1374
  190POPC   C3421945   6.459   5.314  10.180  0.1425  0.1522  0.5943
  190POPC   H4X21946   6.359   5.338  10.224 -0.2023 -0.4252  0.1393
  190POPC   H4Y21947   6.449   5.204  10.169  2.2717  0.0331 -0.6366
  190POPC   C3521948   6.470   5.374  10.041 -0.5969  0.3664  0.1561
  190POPC   H5X21949   6.557   5.333   9.986 -1.9585 -1.7190 -0.5751
  190POPC   H5Y21950   6.464   5.485  10.040 -0.4929  0.4262  2.0649
  190POPC   C3621951   6.366   5.332   9.939  0.0731  0.5524  0.2721
  190POPC   H6X21952   6.268   5.354   9.986  0.4436 -0.0256  1.3500
  190POPC   H6Y21953   6.370   5.221   9.925  0.5640  0.7094 -0.9651
  190POPC   C3721954   6.369   5.395   9.797  0.0851 -0.9686 -0.0104
  190POPC   H7X21955   6.361   5.503   9.824  1.3217 -1.1739  1.2882
  190POPC   H7Y21956   6.277   5.368   9.741 -1.9518  2.2477  1.4375
  190POPC   C3821957   6.492   5.357   9.716  0.7166 -1.2347  0.0272
  190POPC   H8X21958   6.497   5.248   9.694  0.5908 -1.0536 -0.9543
  190POPC   H8Y21959   6.578   5.380   9.782  1.3512  0.1798 -1.2595
  190POPC   C3921960   6.508   5.442   9.592 -0.3900 -0.2240  0.1013
  190POPC   H9X21961   6.602   5.411   9.541 -1.4026 -1.4387 -1.1346
  190POPC   H9Y21962   6.521   5.546   9.628  0.3764  0.3535 -1.6959
  190POPC  C31021963   6.400   5.435   9.484  0.0875  1.1350 -0.8887
  190POPC  H10X21964   6.304   5.476   9.522 -0.4446  0.8205 -1.8507
  190POPC  H10Y21965   6.388   5.331   9.446  0.4574  0.7607 -0.0043
  190POPC  C31121966   6.428   5.537   9.371 -0.3429 -0.2297  0.9329
  190POPC  H11X21967   6.529   5.502   9.341 -0.0453 -0.2760  1.9697
  190POPC  H11Y21968   6.439   5.638   9.417 -0.9557  0.8691 -1.1895
  190POPC  C31221969   6.316   5.526   9.270  0.7864 -0.1028  0.2451
  190POPC  H12X21970   6.217   5.557   9.310  0.8004 -1.2466  1.2347
  190POPC  H12Y21971   6.294   5.418   9.255  0.0151 -0.6223  3.9461
  190POPC  C31321972   6.335   5.610   9.141 -0.3088  0.1428 -0.7995
  190POPC  H13X21973   6.419   5.566   9.083  0.2421  1.2909 -0.9034
  190POPC  H13Y21974   6.366   5.711   9.176 -1.9245  0.1662  0.7034
  190POPC  C31421975   6.215   5.611   9.059 -0.1141  0.0614 -0.4705
  190POPC  H14X21976   6.146   5.683   9.109  0.2402  0.9535 -1.2349
  190POPC  H14Y21977   6.159   5.516   9.071  0.4691  0.0380  4.0055
  190POPC  C31521978   6.257   5.636   8.912  0.8129  1.1666 -0.1229
  190POPC  H15X21979   6.165   5.611   8.855 -0.5762  1.6449  1.8055
  190POPC  H15Y21980   6.322   5.554   8.875  0.6453  1.3803 -0.9072
  190POPC  C31621981   6.306   5.779   8.875  0.1241  0.5773  0.0249
  190POPC  H16X21982   6.326   5.785   8.766 -1.2869 -4.1737 -0.7308
  190POPC  H16Y21983   6.401   5.802   8.928  0.1405  2.1763 -0.6439
  190POPC  H16Z21984   6.223   5.847   8.905  1.4641  1.3916  2.1828
  191POPC     N21985   0.083   3.281   6.004  0.2349 -0.5620 -0.4347
  191POPC   C1221986   0.154   3.285   6.137  0.1658  0.4601 -0.5252
  191POPC  H12A21987   0.258   3.264   6.115 -0.0625 -0.9690 -0.3296
  191POPC  H12B21988   0.123   3.199   6.194 -0.0748  0.1160 -1.1658
  191POPC   C1321989   0.110   3.149   5.938 -0.5451  0.3328  0.3362
  191POPC  H13A21990   0.060   3.143   5.843 -0.9907  0.7470  0.5420
  191POPC  H13B21991   0.217   3.139   5.926 -0.3624  0.3032  1.7310
  191POPC  H13C21992   0.075   3.067   6.000 -1.2223  1.5116  1.5662
  191POPC   C1421993  -0.066   3.291   6.036  0.2547  0.1042 -0.3792
  191POPC  H14A21994  -0.098   3.371   6.100 -1.3939 -1.4299  0.8087
  191POPC  H14B21995  -0.116   3.297   5.941  2.8625  1.8058 -1.7833
  191POPC  H14C21996  -0.098   3.210   6.099  0.5734  0.5102  0.3142
  191POPC   C1521997   0.130   3.378   5.908 -0.4107 -1.0231 -0.2363
  191POPC  H15A21998   0.066   3.392   5.822 -1.1194 -0.4917  0.3579
  191POPC  H15B21999   0.232   3.352   5.885 -0.4938  0.1071 -2.0790
  191POPC  H15C22000   0.140   3.474   5.958  1.4677  0.4352 -3.1356
  191POPC   C1122001   0.137   3.414   6.223  0.0841 -0.4038 -0.0545
  191POPC  H11A22002   0.160   3.409   6.331  0.3724 -0.7052 -0.1296
  191POPC  H11B22003   0.029   3.440   6.229 -0.3731 -1.6948 -1.8401
  191POPC     P22004   0.356   3.560   6.213 -0.0024 -0.2657  0.7138
  191POPC   O1322005   0.367   3.710   6.219 -0.2081  0.0088 -0.3171
  191POPC   O1422006   0.454   3.488   6.124  0.1290  0.1483  0.0906
  191POPC   O1222007   0.207   3.530   6.167 -0.6733  0.0615 -0.2303
  191POPC   O1122008   0.374   3.500   6.359 -0.4569  0.5925  0.4029
  191POPC    C122009   0.445   3.372   6.364  0.6809  0.1857 -0.2337
  191POPC    HA22010   0.539   3.373   6.304  0.6108 -1.4825 -0.4253
  191POPC    HB22011   0.393   3.287   6.312 -1.3598  1.7390 -0.8713
  191POPC    C222012   0.467   3.337   6.518 -0.2159 -0.4535  0.0106
  191POPC    HS22013   0.487   3.229   6.534 -0.6243 -0.4931  0.2482
  191POPC   O2122014   0.344   3.360   6.588  0.2645  0.3615 -0.2000
  191POPC   C2122015   0.234   3.301   6.553  0.3402 -0.4890 -0.6218
  191POPC   O2222016   0.225   3.198   6.489 -0.4334  0.4107 -0.7853
  191POPC   C2222017   0.119   3.382   6.617 -0.2992 -0.2202 -0.5004
  191POPC   H2R22018   0.024   3.384   6.561 -1.3857  0.6657  1.2832
  191POPC   H2S22019   0.159   3.485   6.624 -0.7867 -0.0324 -0.4975
  191POPC    C322020   0.589   3.430   6.574  0.2210 -0.3402  0.3701
  191POPC    HX22021   0.592   3.527   6.520 -1.3822 -0.4806 -0.0318
  191POPC    HY22022   0.677   3.378   6.532 -1.8070 -2.2974 -1.7957
  191POPC   O3122023   0.598   3.454   6.715  0.6898  0.2579  0.0494
  191POPC   C3122024   0.554   3.566   6.769 -0.2462 -0.0771  0.5484
  191POPC   O3222025   0.514   3.664   6.703  0.1638  0.1588 -0.8247
  191POPC   C3222026   0.545   3.562   6.924 -1.0868  0.2589  0.8171
  191POPC   H2X22027   0.628   3.502   6.968  1.4947  1.1226 -2.4602
  191POPC   H2Y22028   0.455   3.501   6.945  0.6584 -1.7516  3.0786
  191POPC   C2322029   0.077   3.333   6.759  0.4281  0.6181 -0.1337
  191POPC   H3R22030   0.025   3.235   6.749 -2.0752  1.8338  0.1551
  191POPC   H3S22031   0.003   3.394   6.815  0.9013 -0.4483  1.7348
  191POPC   C2422032   0.183   3.323   6.867 -0.2148  0.2517 -0.2324
  191POPC   H4R22033   0.245   3.413   6.844 -1.3276  1.3517  0.8765
  191POPC   H4S22034   0.244   3.232   6.848 -1.0431 -0.2785 -0.3997
  191POPC   C2522035   0.131   3.317   7.017 -0.0171 -0.4287 -0.1782
  191POPC   H5R22036   0.054   3.397   7.011 -0.5063 -0.9469 -1.0863
  191POPC   H5S22037   0.211   3.339   7.091  2.7847 -1.4798 -2.6716
  191POPC   C2622038   0.059   3.185   7.048 -0.5439 -0.1978  0.4516
  191POPC   H6R22039   0.138   3.109   7.029  0.0607  0.0840  1.7311
  191POPC   H6S22040  -0.023   3.165   6.975 -0.1395 -2.3299  0.5141
  191POPC   C2722041   0.018   3.186   7.197 -0.4883 -0.0385  0.1593
  191POPC   H7R22042  -0.036   3.283   7.209 -0.3592 -0.1928  2.4931
  191POPC   H7S22043   0.112   3.199   7.255  0.5381 -1.2106 -1.1704
  191POPC   C2822044  -0.069   3.075   7.245  0.3932  0.5747 -0.1300
  191POPC   H8R22045  -0.167   3.080   7.193  0.0171 -1.1077  0.3437
  191POPC   H8S22046  -0.098   3.102   7.349  1.4418 -1.1116  0.6351
  191POPC   C2922047   0.005   2.943   7.228 -0.2875  0.4015 -0.0543
  191POPC   H9122048  -0.026   2.879   7.144 -2.3349 -1.6083  2.0771
  191POPC  C21022049   0.102   2.901   7.310 -0.4995  0.4127 -0.2173
  191POPC  H10122050   0.132   2.795   7.318  0.8701  0.7416 -0.8277
  191POPC  C21122051   0.150   2.970   7.433  0.6223  0.2605 -0.2358
  191POPC  H11R22052   0.131   3.079   7.426  0.5433  0.1852 -1.3212
  191POPC  H11S22053   0.258   2.947   7.449  0.0030 -1.5487  1.9481
  191POPC  C21222054   0.060   2.920   7.553 -0.0298  0.7768  0.3392
  191POPC  H12R22055   0.074   2.811   7.565  1.8152  1.2492  4.4844
  191POPC  H12S22056  -0.048   2.938   7.532 -0.8325 -1.5755  2.0228
  191POPC  C21322057   0.084   2.996   7.683 -0.5864  0.5345  0.8560
  191POPC  H13R22058   0.069   3.102   7.655 -1.3477  0.3019  0.3621
  191POPC  H13S22059   0.192   2.993   7.708 -0.8767 -0.2385  2.1437
  191POPC  C21422060  -0.007   2.954   7.795 -0.1496  0.0441  0.9642
  191POPC  H14R22061   0.023   2.854   7.831  3.6771  0.9054  0.5569
  191POPC  H14S22062  -0.112   2.962   7.760 -0.1458  0.1680  0.9802
  191POPC  C21522063  -0.000   3.056   7.905  0.0288 -0.0587  0.1240
  191POPC  H15R22064  -0.022   3.159   7.869  1.0736 -0.1815 -0.9390
  191POPC  H15S22065   0.107   3.057   7.934  0.8363 -1.5657 -2.4996
  191POPC  C21622066  -0.094   3.036   8.028  0.1380 -0.6081 -0.4144
  191POPC  H16R22067  -0.082   2.935   8.074 -0.5384 -2.2987 -3.6617
  191POPC  H16S22068  -0.193   3.040   7.978  0.9428  1.9078 -1.9781
  191POPC  C21722069  -0.094   3.155   8.125  0.5301  0.2274  0.7644
  191POPC  H17R22070  -0.098   3.249   8.066 -1.6960  0.6428  1.4803
  191POPC  H17S22071   0.005   3.158   8.174  0.9184  1.2246 -0.0414
  191POPC  C21822072  -0.205   3.159   8.228 -0.4539  0.1731  0.1135
  191POPC  H18R22073  -0.219   3.066   8.288 -3.6440  0.3205 -0.2554
  191POPC  H18S22074  -0.297   3.208   8.192 -1.1973  0.1884  1.9124
  191POPC  H18T22075  -0.158   3.228   8.301  0.3800 -1.5907  1.3467
  191POPC   C3322076   0.526   3.700   6.998  0.1568 -0.0627 -0.0731
  191POPC   H3X22077   0.437   3.753   6.959 -0.0430 -0.3080  0.0451
  191POPC   H3Y22078   0.611   3.770   6.983  0.7038 -0.7620 -0.3178
  191POPC   C3422079   0.517   3.684   7.153  0.8812  0.5612  0.4009
  191POPC   H4X22080   0.589   3.610   7.195 -0.1772 -1.5478 -1.2957
  191POPC   H4Y22081   0.427   3.619   7.161  0.3139  1.1516 -0.8829
  191POPC   C3522082   0.505   3.809   7.231  0.2623 -0.1147 -0.0240
  191POPC   H5X22083   0.435   3.876   7.177 -1.2936 -0.3651  1.5998
  191POPC   H5Y22084   0.599   3.869   7.228 -1.0241  2.1145  1.4356
  191POPC   C3622085   0.483   3.778   7.380  0.8343 -0.1078  0.0107
  191POPC   H6X22086   0.554   3.706   7.426 -0.1763 -0.2502  1.4238
  191POPC   H6Y22087   0.381   3.733   7.380  1.2220 -1.1891  2.7484
  191POPC   C3722088   0.478   3.912   7.468  0.5994  0.6324  0.5099
  191POPC   H7X22089   0.415   3.982   7.408 -0.6949 -1.4936 -0.7410
  191POPC   H7Y22090   0.577   3.961   7.472  1.0457  0.1085 -2.0178
  191POPC   C3822091   0.421   3.896   7.609 -0.0814  0.1654 -0.0420
  191POPC   H8X22092   0.311   3.891   7.592 -0.0827 -0.3051  0.0932
  191POPC   H8Y22093   0.458   3.991   7.651  0.3077  1.0169 -2.1683
  191POPC   C3922094   0.467   3.780   7.700 -0.2664  0.0071 -0.2863
  191POPC   H9X22095   0.572   3.749   7.684  0.4401  1.4533  1.2598
  191POPC   H9Y22096   0.394   3.699   7.680 -2.5252  1.8761 -0.0847
  191POPC  C31022097   0.458   3.821   7.850  0.6168 -0.3796  0.3325
  191POPC  H10X22098   0.540   3.893   7.873  0.0560 -0.4189  2.7409
  191POPC  H10Y22099   0.476   3.732   7.914  0.7245 -0.5002  0.1361
  191POPC  C31122100   0.325   3.890   7.895  0.1742  0.0295  0.4723
  191POPC  H11X22101   0.295   3.972   7.826  2.3228  0.8203  0.3903
  191POPC  H11Y22102   0.351   3.939   7.991 -0.3372 -0.1744  0.7212
  191POPC  C31222103   0.213   3.785   7.911  0.8321  0.1773 -0.3833
  191POPC  H12X22104   0.250   3.686   7.945 -1.4310 -1.2938 -1.8905
  191POPC  H12Y22105   0.160   3.757   7.818 -0.1039 -2.2009  0.7723
  191POPC  C31322106   0.107   3.822   8.011  0.1098 -0.4112 -0.6271
  191POPC  H13X22107   0.027   3.747   8.024  1.5927 -1.6408  2.4578
  191POPC  H13Y22108   0.061   3.918   7.977 -0.6864  0.7994  3.3112
  191POPC  C31422109   0.169   3.855   8.152 -0.1601  0.9694 -0.2750
  191POPC  H14X22110   0.244   3.937   8.149  0.5562  0.4106  1.1453
  191POPC  H14Y22111   0.218   3.765   8.195 -1.8744  0.4161  0.6169
  191POPC  C31522112   0.061   3.889   8.263 -0.4582  0.8727  0.2531
  191POPC  H15X22113   0.113   3.897   8.361 -0.8113  1.7987  0.3765
  191POPC  H15Y22114   0.006   3.794   8.276  2.3935 -0.6618  2.1863
  191POPC  C31622115  -0.026   4.008   8.238 -0.0249 -0.0556 -0.5259
  191POPC  H16X22116   0.018   4.109   8.248 -3.4051  1.7825 -2.3531
  191POPC  H16Y22117  -0.115   3.995   8.303  1.7254 -2.4180  1.5827
  191POPC  H16Z22118  -0.070   3.997   8.136 -1.3610 -1.4451  0.1671
  192POPC     N22119   3.646   2.426   6.055  0.1616  0.3468 -0.2470
  192POPC   C1222120   3.697   2.537   6.147 -0.6294  0.6335  0.2711
  192POPC  H12A22121   3.732   2.615   6.081  0.4278 -0.8658 -1.0262
  192POPC  H12B22122   3.782   2.497   6.200 -1.0840  0.1212  0.6286
  192POPC   C1322123   3.536   2.467   5.960  0.7061  0.0393  0.3372
  192POPC  H13A22124   3.564   2.548   5.894 -1.8039 -1.1435 -2.4094
  192POPC  H13B22125   3.514   2.383   5.895  0.3080  0.5163 -0.1564
  192POPC  H13C22126   3.445   2.489   6.014 -0.0123 -2.4138  0.2611
  192POPC   C1422127   3.756   2.376   5.972  0.1302  0.2335  0.4951
  192POPC  H14A22128   3.714   2.327   5.884  0.2008  0.9065  0.0793
  192POPC  H14B22129   3.816   2.454   5.927 -1.4423  1.2784  0.1192
  192POPC  H14C22130   3.828   2.319   6.028  0.9408  1.8247  1.1338
  192POPC   C1522131   3.596   2.312   6.136  1.0639 -0.5168 -0.0740
  192POPC  H15A22132   3.554   2.234   6.074  2.8377  0.1301 -2.2246
  192POPC  H15B22133   3.528   2.345   6.214  0.1445 -0.4463 -0.8858
  192POPC  H15C22134   3.673   2.260   6.191  0.7904 -1.0056 -0.1534
  192POPC   C1122135   3.593   2.585   6.252  0.3934 -0.1974 -0.0605
  192POPC  H11A22136   3.647   2.622   6.341  2.2999 -1.6139 -0.5660
  192POPC  H11B22137   3.535   2.500   6.294  0.9403 -0.2279  0.6450
  192POPC     P22138   3.555   2.832   6.176  0.1099  0.4963 -0.0325
  192POPC   O1322139   3.451   2.925   6.130 -0.1326  0.2315  0.7553
  192POPC   O1422140   3.684   2.826   6.107  0.2427  0.0266  0.3348
  192POPC   O1222141   3.505   2.684   6.195 -0.2531  0.1399 -0.1231
  192POPC   O1122142   3.580   2.878   6.316  0.2844 -0.3312  0.4452
  192POPC    C122143   3.713   2.889   6.374  0.7388  0.1087  1.2928
  192POPC    HA22144   3.769   2.978   6.337  1.4217 -0.8143  0.0298
  192POPC    HB22145   3.774   2.798   6.353  1.8399  0.8003  1.3913
  192POPC    C222146   3.698   2.896   6.530  0.7808  0.0992  0.4373
  192POPC    HS22147   3.607   2.838   6.554  0.6540  0.0363 -0.1851
  192POPC   O2122148   3.699   3.034   6.575  0.2335 -0.0618  0.0305
  192POPC   C2122149   3.585   3.082   6.628  0.3827 -0.1664 -0.7676
  192POPC   O2222150   3.483   3.015   6.656 -0.0772  0.5474 -0.0741
  192POPC   C2222151   3.595   3.230   6.659 -0.0200 -0.2687  0.5905
  192POPC   H2R22152   3.505   3.267   6.713 -0.0049 -0.9506  1.0850
  192POPC   H2S22153   3.601   3.280   6.560  3.0674  3.3051  2.3110
  192POPC    C322154   3.824   2.823   6.581  0.1464  0.2107 -0.2045
  192POPC    HX22155   3.909   2.858   6.518 -0.5217 -0.4068 -1.5016
  192POPC    HY22156   3.815   2.714   6.561  2.5534 -0.2523  0.8384
  192POPC   O3122157   3.850   2.848   6.723  0.5712 -0.3033  0.3237
  192POPC   C3122158   3.772   2.764   6.804 -0.8888  0.3033 -0.0330
  192POPC   O3222159   3.693   2.680   6.770 -0.2761  0.2874 -0.2229
  192POPC   C3222160   3.800   2.800   6.947 -0.3486 -0.3676 -1.0513
  192POPC   H2X22161   3.760   2.900   6.975 -0.6776 -1.2634  2.0554
  192POPC   H2Y22162   3.910   2.815   6.941 -0.7615  3.8420 -0.9959
  192POPC   C2322163   3.729   3.270   6.731  0.6695  0.3968  0.0146
  192POPC   H3R22164   3.740   3.381   6.724 -0.2689  0.4533 -0.8334
  192POPC   H3S22165   3.813   3.230   6.672 -0.2399  0.6742 -1.5315
  192POPC   C2422166   3.740   3.216   6.874 -0.3591 -0.2774 -0.1691
  192POPC   H4R22167   3.689   3.117   6.874 -0.5959 -0.2159 -2.7878
  192POPC   H4S22168   3.675   3.282   6.936  1.1057 -0.0907  1.2310
  192POPC   C2522169   3.881   3.219   6.928 -0.8732  0.3477  0.1155
  192POPC   H5R22170   3.938   3.313   6.910  0.4684 -0.4541  0.0355
  192POPC   H5S22171   3.948   3.143   6.882 -0.6412  0.3612  0.4280
  192POPC   C2622172   3.881   3.171   7.079 -1.0721 -0.4437  0.1974
  192POPC   H6R22173   3.826   3.076   7.098 -0.4974 -0.5587  1.3852
  192POPC   H6S22174   3.838   3.251   7.143 -0.5276 -1.1672  1.5148
  192POPC   C2722175   4.032   3.149   7.124 -0.0260  0.7400  0.4433
  192POPC   H7R22176   4.057   3.221   7.205 -0.2664 -0.7336  1.8814
  192POPC   H7S22177   4.108   3.155   7.043 -0.9899 -0.6177 -0.6013
  192POPC   C2822178   4.050   3.017   7.202  0.2173 -0.1122  0.8259
  192POPC   H8R22179   3.992   2.943   7.144  0.9213  0.2605 -0.4024
  192POPC   H8S22180   3.994   3.032   7.297  0.6446  1.6347  0.8430
  192POPC   C2922181   4.189   2.961   7.227  0.0772 -0.4079 -0.7446
  192POPC   H9122182   4.230   2.907   7.140 -0.6569  1.1070 -2.0836
  192POPC  C21022183   4.272   3.004   7.322  1.3148  0.5751  0.8705
  192POPC  H10122184   4.368   2.952   7.329  1.0328 -0.2361 -0.8025
  192POPC  C21122185   4.238   3.109   7.432  0.2399  0.0396  0.0625
  192POPC  H11R22186   4.156   3.174   7.393 -0.2681 -1.9761 -2.5144
  192POPC  H11S22187   4.327   3.172   7.451  1.5685 -1.3029 -1.3862
  192POPC  C21222188   4.193   3.039   7.562  0.5142  0.2828 -0.0934
  192POPC  H12R22189   4.096   2.992   7.539  0.7857  0.5158 -1.8658
  192POPC  H12S22190   4.175   3.127   7.627 -2.0778 -0.4875  0.3271
  192POPC  C21322191   4.313   2.955   7.619 -0.4315 -0.3010 -0.2104
  192POPC  H13R22192   4.411   3.006   7.609  0.5076 -1.8268  0.7353
  192POPC  H13S22193   4.328   2.866   7.554  0.2554  0.7497 -1.5569
  192POPC  C21422194   4.305   2.900   7.764  0.5531  0.1874  0.2644
  192POPC  H14R22195   4.212   2.843   7.787  1.3226 -0.3672  2.2061
  192POPC  H14S22196   4.281   2.995   7.816 -0.3803  0.5494 -0.7786
  192POPC  C21522197   4.428   2.831   7.819 -1.0541 -0.9670  0.5917
  192POPC  H15R22198   4.421   2.842   7.929 -0.3558  1.3129  0.4507
  192POPC  H15S22199   4.521   2.881   7.782 -2.3316  0.5825 -0.6602
  192POPC  C21622200   4.434   2.675   7.810  0.6940 -0.0936 -0.5964
  192POPC  H16R22201   4.433   2.643   7.703 -1.5115  1.2199 -1.0352
  192POPC  H16S22202   4.341   2.635   7.857  0.9115  2.0608  1.9117
  192POPC  C21722203   4.559   2.615   7.879  0.1837  0.4381 -0.3736
  192POPC  H17R22204   4.580   2.668   7.974  1.6661 -0.9532  0.1124
  192POPC  H17S22205   4.649   2.628   7.816  1.6646  0.8238  1.7221
  192POPC  C21822206   4.529   2.469   7.926  0.6084 -1.0927  0.8349
  192POPC  H18R22207   4.503   2.401   7.842  3.0393 -1.4460  0.2814
  192POPC  H18S22208   4.446   2.466   8.001 -0.0475 -0.7148  0.1316
  192POPC  H18T22209   4.620   2.432   7.979  1.0121  0.1197  1.0253
  192POPC   C3322210   3.751   2.692   7.043  0.0071 -0.0448 -0.0676
  192POPC   H3X22211   3.812   2.598   7.038  2.2296  1.3545 -3.0754
  192POPC   H3Y22212   3.645   2.662   7.032 -0.3752 -0.0015  2.9043
  192POPC   C3422213   3.776   2.748   7.181  0.1025 -0.3112 -0.5216
  192POPC   H4X22214   3.877   2.794   7.186 -0.6848  1.5182 -0.4602
  192POPC   H4Y22215   3.774   2.656   7.243 -2.8332 -0.4841 -0.7454
  192POPC   C3522216   3.674   2.842   7.235  0.0009  0.3530  0.4366
  192POPC   H5X22217   3.589   2.781   7.273  0.3873 -0.6371 -0.2401
  192POPC   H5Y22218   3.630   2.917   7.166 -0.1350  0.2997  0.4639
  192POPC   C3622219   3.722   2.921   7.355  0.0476 -0.2315 -0.1927
  192POPC   H6X22220   3.774   3.017   7.332 -0.1416  0.3956  1.7842
  192POPC   H6Y22221   3.787   2.862   7.422 -0.1963  0.2798  0.5137
  192POPC   C3722222   3.612   2.963   7.451  0.2800 -0.1830 -0.4389
  192POPC   H7X22223   3.555   2.870   7.475 -0.0247  0.1451  0.1300
  192POPC   H7Y22224   3.542   3.032   7.399  2.0642  1.1183 -1.1710
  192POPC   C3822225   3.662   3.030   7.575 -0.1476 -0.4796 -0.5549
  192POPC   H8X22226   3.714   3.123   7.544  0.7104 -0.3236  1.2084
  192POPC   H8Y22227   3.729   2.953   7.621  1.9389  2.4924  1.7861
  192POPC   C3922228   3.553   3.051   7.688  0.5483 -0.0296  0.6150
  192POPC   H9X22229   3.492   2.958   7.694 -1.5962  1.0877 -1.6616
  192POPC   H9Y22230   3.481   3.128   7.652  0.9540  1.1212  2.1650
  192POPC  C31022231   3.619   3.093   7.820 -0.2607  0.2816 -0.3190
  192POPC  H10X22232   3.678   3.187   7.821  1.3352 -0.6813  0.3930
  192POPC  H10Y22233   3.688   3.011   7.849 -0.5767 -0.5332 -1.8325
  192POPC  C31122234   3.519   3.102   7.932 -0.0475  0.7484  0.2711
  192POPC  H11X22235   3.464   3.009   7.958  0.8930 -0.7572 -2.6186
  192POPC  H11Y22236   3.455   3.190   7.908 -0.2824  1.3043  2.6371
  192POPC  C31222237   3.597   3.148   8.060  0.3029  0.8853 -0.4972
  192POPC  H12X22238   3.659   3.236   8.035  1.7152  0.7759  2.2602
  192POPC  H12Y22239   3.672   3.067   8.074  1.0453  1.1598 -2.5885
  192POPC  C31322240   3.520   3.175   8.183  0.4319  0.7062 -0.2615
  192POPC  H13X22241   3.466   3.088   8.227 -0.4985  0.6686 -1.4233
  192POPC  H13Y22242   3.439   3.247   8.156 -0.2469 -1.3426 -4.6186
  192POPC  C31422243   3.614   3.238   8.284  0.1527 -0.3129 -0.8845
  192POPC  H14X22244   3.649   3.329   8.231  1.2585  0.2890  0.8172
  192POPC  H14Y22245   3.705   3.175   8.298  1.7262  1.9311 -0.5382
  192POPC  C31522246   3.559   3.248   8.423 -0.4076 -0.1526 -0.3323
  192POPC  H15X22247   3.646   3.259   8.491 -1.0032 -0.4075  0.4847
  192POPC  H15Y22248   3.505   3.156   8.454 -3.5734  1.0755 -1.7588
  192POPC  C31622249   3.471   3.369   8.449  0.5613 -0.6199  0.1070
  192POPC  H16X22250   3.507   3.466   8.407 -1.2530  0.2078  0.3889
  192POPC  H16Y22251   3.460   3.398   8.556  0.8266  3.3385 -0.7818
  192POPC  H16Z22252   3.367   3.355   8.414  0.3607 -3.2603  1.5383
  193SOD    SOD22253   1.296   2.726  14.750 -0.0319  0.2581  0.3467
  194SOD    SOD22254   5.633   3.334   6.153  0.4551  0.4611  0.0893
  195SOD    SOD22255   3.041   4.363  10.796 -0.2500 -0.0195 -0.0561
  196SOD    SOD22256   2.906   4.969  11.192 -0.8395 -0.0198 -0.2481
  197SOD    SOD22257   6.701   4.910  10.841  0.2817 -0.1899  0.1269
  198SOD    SOD22258   5.538   3.051   0.266  0.3893  0.2576 -0.1115
  199SOD    SOD22259   0.038   0.557   6.472 -0.1448  0.0101  0.6498
  200SOD    SOD22260   3.819   0.044  14.931 -0.2998  0.3546 -0.1079
  201SOD    SOD22261   5.255   5.212   1.382  0.1610  0.5694  0.3890
  202SOD    SOD22262   0.091   4.258  11.186  0.1675 -0.3730  0.0804
  203SOD    SOD22263   4.372   1.404   0.637 -0.4307  0.3655 -0.6432
  204SOD    SOD22264   0.837   3.749   6.131 -0.1931  0.1293 -0.1976
  205SOD    SOD22265   1.406   6.732  12.421 -0.5576 -0.1583  0.5625
  206SOD    SOD22266   6.087   1.285  11.810 -0.0734 -0.4758  0.1169
  207SOD    SOD22267   6.261   4.730  12.559 -0.9598 -0.0141  0.0324
  208SOD    SOD22268   2.023   1.320  11.490  0.0824  0.1184 -0.1782
  209SOD    SOD22269   6.678   6.157   3.920  0.3902 -0.0217  0.4485
  210SOD    SOD22270   5.255   1.651  15.108 -0.2539  0.0069 -0.4344
  211SOD    SOD22271   1.445   2.429   2.769 -0.3875 -0.1692  0.2297
  212SOD    SOD22272   4.006   5.059   5.953 -0.2880  0.0462  0.2928
  213SOD    SOD22273   4.436   3.577  12.954  0.2540  0.3776  0.3668
  214SOD    SOD22274   5.077   4.829   1.758 -0.2165  0.2452 -0.1655
  215SOD    SOD22275   0.403   5.631   4.190 -0.6607 -0.2095 -0.4131
  216SOD    SOD22276   4.159   1.265   6.050 -0.0573  0.2144 -0.0628
  217SOD    SOD22277   2.079   0.715   5.435  0.2110 -0.0357  0.0452
  218SOD    SOD22278   5.259   3.604   2.943 -0.4353 -0.2734 -0.2872
  219SOD    SOD22279   6.591   2.211   4.703  0.1005  0.6980 -0.1642
  220SOD    SOD22280   0.869   0.978  15.496 -0.4435 -0.3084 -0.1053
  221SOD    SOD22281   1.504   0.691   0.382 -0.4803  0.2027  0.3154
  222SOD    SOD22282   6.244   3.508  10.646  0.3827  0.6402  0.1861
  223SOD    SOD22283   4.461   4.582   2.687  0.3087  0.2505  0.0344
  224SOD    SOD22284   0.218   0.747   0.434 -0.0520 -0.4031  0.3008
  225SOD    SOD22285   6.681   6.644  15.108 -0.4428  0.3509  0.0686
  226SOD    SOD22286   3.600   5.406   5.120  0.3393 -0.2631 -0.3090
  227SOD    SOD22287   5.093   5.267   6.747  0.1830  0.3657  0.1321
  228SOD    SOD22288   3.566   4.215  10.911 -0.0948 -0.2460  0.4117
  229SOD    SOD22289   4.836   5.816  15.055 -0.3195  0.7398 -0.7079
  230SOD    SOD22290   5.659   0.735  11.286  0.0369  0.0527  0.5199
  231SOD    SOD22291   6.548   0.252   0.290 -0.3191 -0.4579  0.2139
  232SOD    SOD22292   1.672   6.468  14.348 -0.4342  0.3864 -0.4464
  233SOD    SOD22293   1.267   5.302  14.131 -0.3816 -0.0305 -0.2892
  234SOD    SOD22294   2.822   3.004   0.255  0.0076  0.0962 -0.3532
  235SOD    SOD22295   6.099   0.380   3.727 -0.0280 -0.1018 -0.4432
  236SOD    SOD22296   1.059   3.589  16.829  0.3387 -0.0070 -0.0272
  237SOD    SOD22297   4.477   5.628  11.119  0.3600  0.1599  0.5557
  238SOD    SOD22298   4.499   2.942  13.573  0.5170 -0.2220 -0.2038
  239SOD    SOD22299   0.352   1.910  10.849  0.0160  0.0057  0.1738
  240SOD    SOD22300   3.267   3.118  11.360  0.3046  0.0487 -0.0388
  241SOD    SOD22301   6.224   3.449  13.790  0.1759  0.3265  0.0992
  242SOD    SOD22302   5.673   5.317   5.595 -0.5858 -0.3289  0.4679
  243SOD    SOD22303   5.029   0.907  10.434 -0.6550 -0.2363 -0.0797
  244SOD    SOD22304   2.866   2.528  12.008  0.1723  0.3187 -0.6675
  245SOD    SOD22305   2.897   0.511   1.862 -0.0182 -0.0582  0.0906
  246SOD    SOD22306   5.294   2.184   3.803  0.5283  0.0266 -0.1550
  247SOD    SOD22307   2.523   3.924  17.166 -0.1644  0.7843 -0.1434
  248SOD    SOD22308   0.309   2.830  12.531  0.3561 -0.1960  0.3212
  249SOD    SOD22309   0.305   0.995   3.518  0.0123  0.3266  0.0528
  250SOD    SOD22310   4.985   5.495   2.533 -0.5212 -0.0968 -0.0350
  251SOD    SOD22311   2.608   6.224  12.654 -0.0648 -0.2823 -0.7148
  252SOD    SOD22312   3.664   5.298  15.648 -0.2519  0.4307 -0.3714
  253SOD    SOD22313   4.792   1.922   4.763 -0.2205 -0.3108  0.3524
  254SOD    SOD22314   4.583   4.025   6.256 -0.4551  0.6138  0.0199
  255SOD    SOD22315   3.983   5.539   1.800  0.0391 -0.1240 -0.0993
  256SOD    SOD22316   1.718   1.554   1.737  0.1747  0.1282 -0.0500
  257SOD    SOD22317   1.567   5.247   2.063 -0.1730 -0.0490 -0.6540
  258SOD    SOD22318   4.526   5.095   4.436  0.4992 -0.1087  0.2734
  259SOD    SOD22319   5.625   6.099  14.618 -0.0010 -0.1244 -0.7219
  260SOD    SOD22320   6.729   2.309   5.582 -0.2140  0.4358 -0.3042
  261SOD    SOD22321   6.636   5.881  11.351  0.2062  0.0273 -0.5391
  262SOD    SOD22322   4.224   1.278   3.014 -0.3092  0.1230  0.1692
  263SOD    SOD22323   5.799   3.269  13.936  0.7087  0.3044 -0.1720
  264SOD    SOD22324   5.267   3.678  11.740  0.4658  0.3530 -0.0928
  265SOD    SOD22325   3.446   0.105   6.035  0.4449 -0.0054 -0.3702
  266SOD    SOD22326   6.070   2.474  11.140  0.1969 -0.5233 -0.0535
  267SOD    SOD22327   2.337   0.297  11.569 -0.4308  0.0276  0.5159
  268SOD    SOD22328   6.806   2.032   6.256 -0.0715 -0.4925 -0.1781
  269SOD    SOD22329   5.340   6.673   5.570 -0.8602  0.3506  0.3433
  270CLA    CLA22330   3.323   4.376  15.067  0.2151 -0.1762 -0.0634
  271CLA    CLA22331   1.257   6.779  11.573  0.1628  0.0983  0.0128
  272CLA    CLA22332   4.348   1.908   5.484 -0.2140 -0.2190 -0.5852
  273CLA    CLA22333   6.556   1.340  12.122  0.0251 -0.0052 -0.2531
  274CLA    CLA22334   6.506   6.330  16.599 -0.0391  0.1319  0.0324
  275CLA    CLA22335   2.135   6.450  12.412  0.5583 -0.2574  0.3230
  276CLA    CLA22336   4.402   0.449   0.872 -0.3548  0.2187 -0.4152
  277CLA    CLA22337   2.709   2.628   1.474  0.1761  0.0140 -0.0347
  278CLA    CLA22338   0.518   6.383  16.357 -0.2447  0.2500  0.0440
  279CLA    CLA22339   4.195   5.272  14.580 -0.0190  0.3112 -0.4552
  280CLA    CLA22340   0.309   1.687   3.622 -0.2811 -0.4592  0.0735
  281CLA    CLA22341   2.135   5.710   2.977  0.3358  0.0411  0.2440
  282CLA    CLA22342   4.940   2.277   3.520 -0.3154  0.1487  0.0747
  283CLA    CLA22343   2.958   1.019  13.750 -0.2038  0.2937 -0.1881
  284CLA    CLA22344   4.351   4.688   1.965  0.1850 -0.2965 -0.2417
  285CLA    CLA22345   0.423   2.758   0.418 -0.0005 -0.0462  0.0520
  286CLA    CLA22346   1.738   1.080   1.954 -0.4424  0.0966  0.2117
  287CLA    CLA22347   6.091   3.048  13.017  0.2797 -0.0417 -0.0153
  288CLA    CLA22348   0.574   0.835  14.844 -0.1380 -0.1425 -0.2073
  289CLA    CLA22349   6.303   2.117   5.263  0.0424  0.0789  0.4930
  290CLA    CLA22350   3.047   5.919   1.462  0.2262 -0.5255 -0.2405
  291CLA    CLA22351   5.145   6.321  13.977  0.2340 -0.2976  0.0175
  292CLA    CLA22352   6.729   1.150   2.229  0.7385  0.4358  0.1455
  293CLA    CLA22353   3.590   5.222  13.422  0.0008  0.4102  0.2603
  294CLA    CLA22354   6.230   1.418  15.825 -0.1680  0.3847 -0.2919
  295CLA    CLA22355   4.816   5.759   3.498 -0.2669  0.4745 -0.1562
  296CLA    CLA22356   4.910   0.361  15.052  0.2182  0.0301 -0.5152
  297CLA    CLA22357   2.746   0.020  12.468 -0.0353 -0.3311 -0.0421
  298CLA    CLA22358   5.796   5.484  12.556 -0.0585  0.1801 -0.2022
  299CLA    CLA22359   6.790   5.885   2.789  0.0335  0.1935 -0.0677
  300CLA    CLA22360   1.259   2.481  12.800  0.0133  0.0293 -0.3646
  301CLA    CLA22361   5.344   4.226  12.961  0.0736  0.1071 -0.5490
  302CLA    CLA22362   5.044   2.286   1.572 -0.0329  0.3584 -0.1308
  303CLA    CLA22363   6.112   5.798   1.067  0.4922  0.1697  0.2934
  304CLA    CLA22364   5.929   0.010   4.502  0.3796  0.3395  0.2299
  305CLA    CLA22365   3.846   1.350   1.211  0.2482 -0.3568  0.1824
  306CLA    CLA22366   2.881   5.762  13.994  0.2774 -0.3503  0.1286
  307CLA    CLA22367   1.811   2.684  14.677 -0.1653 -0.0692  0.0949
  308CLA    CLA22368   4.988   5.032   3.540 -0.0363 -0.2656 -0.4510
  309CLA    CLA22369   4.798   3.869   0.225 -0.3740 -0.1771  0.1826
  310CLA    CLA22370   4.559   0.312   1.755  0.1585 -0.1675 -0.1684
  311CLA    CLA22371   0.794   4.523   4.977  0.1282 -0.3744 -0.2750
  312CLA    CLA22372   1.113   0.408  15.402 -0.0110  0.0576 -0.0277
  313CLA    CLA22373   6.794   5.488  11.961  0.1397  0.0701  0.2241
  314CLA    CLA22374   2.930   0.365  15.450 -0.0687  0.0481 -0.0490
  315CLA    CLA22375   2.817   2.432  12.636 -0.0120 -0.0559  0.2564
  316CLA    CLA22376   6.000   1.563  15.182  0.3247 -0.0219 -0.4127
  317CLA    CLA22377   4.885   3.382  15.768 -0.6161  0.4768 -0.1235
  318CLA    CLA22378   4.124   3.441  14.492  0.4332  0.0960  0.0044
  319CLA    CLA22379   1.781   5.507   3.383 -0.1787  0.3368 -0.0386
  320CLA    CLA22380   5.689   3.898  12.734 -0.3237 -0.5771  0.1183
  321CLA    CLA22381   6.475   1.281   4.634 -0.3470  0.1275 -0.1403
  322CLA    CLA22382   6.702   1.071   0.677  0.0318  0.0422 -0.4951
  323TIP3   OH222383   3.234   0.546   4.368 -0.9264  0.3047  0.2412
  323TIP3    H122384   3.276   0.631   4.380  0.2828 -0.2347  0.0137
  323TIP3    H222385   3.210   0.543   4.275 -0.3856  0.1422  0.1063
  324TIP3   OH222386   0.007   4.625   0.081 -0.0178  0.5004 -0.7377
  324TIP3    H122387   0.070   4.610   0.011 -1.8779 -1.0298 -2.1781
  324TIP3    H222388  -0.039   4.705   0.056  0.4500  0.8860 -0.3744
  325TIP3   OH222389   1.570   3.991   5.013 -0.2436 -0.3088  0.2007
  325TIP3    H122390   1.514   3.992   5.091 -0.7088 -0.8925 -0.1194
  325TIP3    H222391   1.593   4.083   4.999 -1.6606  0.0296 -0.0470
  326TIP3   OH222392   1.960   2.065  10.635 -0.4828  0.3360  0.1780
  326TIP3    H122393   1.897   2.017  10.581 -0.6272 -0.6042  1.1570
  326TIP3    H222394   1.921   2.065  10.723  0.6578  0.1503  0.6977
  327TIP3   OH222395   0.441   0.519   1.079  0.3895  0.0284  0.3213
  327TIP3    H122396   0.422   0.579   1.152  1.6525  1.0577 -0.1609
  327TIP3    H222397   0.431   0.572   1.001  0.8596 -0.5797 -0.1630
  328TIP3   OH222398   6.112   1.464   0.619 -0.3340 -0.1988 -0.0119
  328TIP3    H122399   6.167   1.509   0.683 -1.1532  1.6746 -0.5695
  328TIP3    H222400   6.171   1.401   0.577  1.0071  0.7411  0.4028
  329TIP3   OH222401   3.432   2.808  14.929 -0.2659  0.7487 -0.0968
  329TIP3    H122402   3.355   2.865  14.927  0.7635  2.3816  2.1741
  329TIP3    H222403   3.428   2.765  15.014  1.6759  1.4677  0.4212
  330TIP3   OH222404   6.687   3.254  12.796 -0.1484  0.2643 -0.7907
  330TIP3    H122405   6.677   3.206  12.878  1.6281  0.3853 -0.4626
  330TIP3    H222406   6.607   3.235  12.747 -2.0842  1.5699  1.6435
  331TIP3   OH222407   6.026   1.503   0.068  0.1645 -0.1206 -0.1567
  331TIP3    H122408   6.058   1.594   0.073 -0.4348  0.1885 -1.5738
  331TIP3    H222409   6.085   1.461   0.006 -0.7010 -0.1872 -0.9482
  332TIP3   OH222410   1.255   1.957  15.388 -0.1086  0.2938 -0.2761
  332TIP3    H122411   1.223   1.970  15.299  2.9276 -1.3450 -1.7681
  332TIP3    H222412   1.336   1.906  15.378  1.6140  1.9288  3.2313
  333TIP3   OH222413   6.208   2.890  12.175  0.0564  0.2967  0.1318
  333TIP3    H122414   6.116   2.897  12.202  0.0136 -1.5046  0.5400
  333TIP3    H222415   6.211   2.811  12.122  0.7078  2.1936 -2.9292
  334TIP3   OH222416   5.821   4.700  11.039  0.0258  0.2056  0.5407
  334TIP3    H122417   5.902   4.716  11.087  1.4467 -1.6841 -1.0463
  334TIP3    H222418   5.769   4.780  11.051  2.1243  1.4922  1.5499
  335TIP3   OH222419   6.752   1.613  14.872  0.4961 -0.1919  0.4351
  335TIP3    H122420   6.782   1.701  14.848 -0.4604  0.0104 -0.0564
  335TIP3    H222421   6.697   1.585  14.799  0.4531 -1.0342  0.7782
  336TIP3   OH222422   2.346   6.653   2.705  0.3187 -0.2531 -0.0907
  336TIP3    H122423   2.427   6.690   2.740 -0.3483  0.0657  1.1712
  336TIP3    H222424   2.355   6.559   2.721  0.6418 -0.2736 -0.3837
  337TIP3   OH222425   5.462   2.322   5.265 -0.1776 -0.0338  0.2462
  337TIP3    H122426   5.460   2.231   5.295  0.6754 -0.5993 -1.2889
  337TIP3    H222427   5.514   2.319   5.185 -3.5028  1.1117 -2.1702
  338TIP3   OH222428   2.362   6.096   4.762  0.0686 -0.2524  0.3330
  338TIP3    H122429   2.279   6.054   4.784 -0.4980  0.8839  0.4743
  338TIP3    H222430   2.376   6.159   4.834  1.3303 -0.7993  0.5925
  339TIP3   OH222431   0.104   5.950   1.595  0.0163 -0.0520 -0.3551
  339TIP3    H122432   0.037   5.906   1.542 -0.3165  1.4080 -1.1839
  339TIP3    H222433   0.187   5.929   1.552 -0.0093 -0.8930 -0.0105
  340TIP3   OH222434   3.108   6.390   6.188  0.4200 -0.2615  0.1534
  340TIP3    H122435   3.040   6.396   6.121  2.0285  1.4810 -1.4573
  340TIP3    H222436   3.061   6.396   6.271 -1.4221  0.4677 -0.8919
  341TIP3   OH222437   4.393   0.609   3.705 -0.4351 -0.1766  0.2237
  341TIP3    H122438   4.410   0.701   3.721 -0.9617 -0.0311 -0.0250
  341TIP3    H222439   4.299   0.604   3.688 -0.4095 -0.7542  0.2101
  342TIP3   OH222440   2.275   4.169  12.751  0.2288  0.3709 -0.1826
  342TIP3    H122441   2.229   4.227  12.812  1.3693 -0.3611  1.4500
  342TIP3    H222442   2.206   4.130  12.698 -0.6951  1.9210 -0.1754
  343TIP3   OH222443   4.030   1.917   2.771  0.0772  0.5817  0.4319
  343TIP3    H122444   4.034   1.845   2.834  0.4134 -0.7112 -1.0190
  343TIP3    H222445   4.091   1.982   2.805 -0.2922  0.2364  1.8177
  344TIP3   OH222446   6.666   5.582   0.499  0.6582 -0.4142 -0.4103
  344TIP3    H122447   6.744   5.631   0.527 -0.0969  0.4231  0.3112
  344TIP3    H222448   6.632   5.632   0.425  1.0430 -1.0238 -1.0039
  345TIP3   OH222449   0.703   0.101   0.116  0.5956 -0.6222  0.0755
  345TIP3    H122450   0.663   0.014   0.129 -0.1721 -0.2235  0.4286
  345TIP3    H222451   0.724   0.104   0.023 -2.2435 -0.0172 -0.6332
  346TIP3   OH222452   0.439   3.163  13.583 -0.2539  0.2195 -0.4137
  346TIP3    H122453   0.490   3.186  13.660  0.0489  0.0504 -0.5627
  346TIP3    H222454   0.447   3.238  13.524 -0.4617  0.3366 -0.2948
  347TIP3   OH222455   6.635   4.889   3.337  0.4716  0.3270  0.1755
  347TIP3    H122456   6.612   4.980   3.318 -1.8781 -0.0295  0.9309
  347TIP3    H222457   6.720   4.894   3.379  0.1476  2.2356  0.7083
  348TIP3   OH222458   1.572   2.569   0.275 -0.3599 -0.7715  0.2441
  348TIP3    H122459   1.537   2.489   0.235 -1.1853 -0.4965  0.4008
  348TIP3    H222460   1.648   2.539   0.326  1.1358 -1.0494 -1.9961
  349TIP3   OH222461   2.409   6.014   3.696  0.2699 -0.2219 -0.0254
  349TIP3    H122462   2.416   6.025   3.601  1.5973  1.4824  0.2256
  349TIP3    H222463   2.315   6.013   3.713  0.0136 -0.4553 -1.3296
  350TIP3   OH222464   3.981   6.336  14.341  0.4644  0.4738  0.1059
  350TIP3    H122465   3.907   6.382  14.301 -0.0240  0.1600  0.6367
  350TIP3    H222466   3.976   6.359  14.434 -0.3324 -1.3339  0.5619
  351TIP3   OH222467   5.582   3.767   1.641  0.1600 -0.2141  0.5590
  351TIP3    H122468   5.649   3.727   1.585 -0.0307  1.8353 -1.2668
  351TIP3    H222469   5.623   3.847   1.674 -1.2320  0.9091 -0.3176
  352TIP3   OH222470   4.459   6.771  11.641  0.0646 -0.2952 -0.7579
  352TIP3    H122471   4.475   6.795  11.732 -1.3928 -0.0713 -0.5429
  352TIP3    H222472   4.545   6.747  11.607  0.6265 -0.3726  0.6727
  353TIP3   OH222473   0.937   4.982   0.713 -0.0206 -0.3562 -0.6289
  353TIP3    H122474   0.983   5.018   0.637  0.6456  0.8442  0.3060
  353TIP3    H222475   0.885   5.054   0.747  0.9984 -0.3456  1.0337
  354TIP3   OH222476   1.413   6.318   1.518 -0.0580  0.2805 -0.2904
  354TIP3    H122477   1.440   6.335   1.428  0.1146  2.4922  0.1315
  354TIP3    H222478   1.474   6.369   1.571  0.4939 -1.7791  1.1683
  355TIP3   OH222479   1.829   4.824   0.217  0.5025  0.1636 -0.1818
  355TIP3    H122480   1.905   4.814   0.160  0.3281 -0.2914 -0.3415
  355TIP3    H222481   1.794   4.910   0.195  0.9111  0.3323 -0.1800
  356TIP3   OH222482   2.023   3.993   0.201  0.1916 -0.1793 -0.1259
  356TIP3    H122483   2.051   4.023   0.287  0.5652 -3.1738  0.9169
  356TIP3    H222484   2.102   3.991   0.148  0.0358  1.2325 -0.4617
  357TIP3   OH222485   1.506   1.970   0.462  0.3630 -0.3001 -0.0456
  357TIP3    H122486   1.427   1.929   0.497  0.7444 -0.7088  0.3385
  357TIP3    H222487   1.548   1.901   0.410  1.4190 -0.6789  1.2452
  358TIP3   OH222488   3.328   3.374  13.717 -0.4432 -0.0343  0.2089
  358TIP3    H122489   3.410   3.401  13.675 -1.1631  0.8065 -0.7055
  358TIP3    H222490   3.282   3.322  13.651 -1.4332  1.0080  0.0371
  359TIP3   OH222491   5.022   1.107  14.782  0.3745 -0.3952 -0.1114
  359TIP3    H122492   5.109   1.068  14.793  0.3850 -0.5582 -0.7435
  359TIP3    H222493   4.962   1.032  14.786  0.1539 -0.1607  1.4987
  360TIP3   OH222494   3.226   0.223   5.057  0.0515 -0.4582  0.5766
  360TIP3    H122495   3.206   0.154   4.993 -0.5473 -1.0395  1.3640
  360TIP3    H222496   3.145   0.273   5.064 -0.0559 -0.7168  1.2516
  361TIP3   OH222497   5.480   2.977   4.724 -0.4539 -0.4275 -0.5881
  361TIP3    H122498   5.489   2.941   4.812  0.8719  0.3399 -0.3960
  361TIP3    H222499   5.399   3.027   4.727  0.3787  0.9192  0.6914
  362TIP3   OH222500   1.242   5.612  15.935 -0.4989  0.2728 -0.4046
  362TIP3    H122501   1.295   5.539  15.903 -0.6344  0.1810 -0.4163
  362TIP3    H222502   1.278   5.689  15.889  0.6237  0.4403  0.7137
  363TIP3   OH222503   2.473   1.749   1.855  0.1044  0.1913  0.1644
  363TIP3    H122504   2.468   1.731   1.761  0.1619  0.3471  0.1296
  363TIP3    H222505   2.384   1.777   1.878  0.4489  1.6907 -0.1799
  364TIP3   OH222506   1.591   4.447  12.319  0.5970 -0.4110  0.3046
  364TIP3    H122507   1.548   4.405  12.244  1.8102  0.3722 -0.8773
  364TIP3    H222508   1.682   4.458  12.292  0.6753  1.5395  1.1624
  365TIP3   OH222509   0.980   0.149  12.770 -0.3513 -0.1287 -0.5495
  365TIP3    H122510   1.047   0.163  12.703  0.8049  1.3768  0.8443
  365TIP3    H222511   0.907   0.206  12.743 -0.5154 -0.6954 -1.3224
  366TIP3   OH222512   5.430   0.005   2.516 -0.1348  0.4078 -0.0479
  366TIP3    H122513   5.432  -0.054   2.440  3.2087 -0.4173  0.4776
  366TIP3    H222514   5.356  -0.025   2.568  0.2588 -2.0780 -0.7833
  367TIP3   OH222515   3.378   1.933   3.149 -0.2028 -0.6293  0.2451
  367TIP3    H122516   3.470   1.959   3.145 -0.7171  1.2187 -0.5270
  367TIP3    H222517   3.368   1.870   3.077  0.1642  0.1580 -0.5029
  368TIP3   OH222518   4.667   1.798  13.078 -0.0377 -0.3598 -0.3363
  368TIP3    H122519   4.700   1.887  13.086  0.5102 -0.6273  0.4655
  368TIP3    H222520   4.582   1.808  13.035 -0.1534  0.5787  0.0856
  369TIP3   OH222521   2.397   4.871  13.775 -0.0624 -0.1434 -0.7940
  369TIP3    H122522   2.339   4.826  13.835  2.3557 -1.1391  0.9756
  369TIP3    H222523   2.458   4.804  13.745  0.7146  0.9840 -1.8683
  370TIP3   OH222524   6.753   6.311  12.052  0.7987  0.2308  0.3804
  370TIP3    H122525   6.723   6.315  12.143  0.3704  1.3060  0.2065
  370TIP3    H222526   6.769   6.402  12.028  1.8548 -0.1244 -0.3265
  371TIP3   OH222527   1.793   2.915  13.200  0.8372 -0.4713  0.2576
  371TIP3    H122528   1.784   2.901  13.295  0.0405 -1.4040  0.0601
  371TIP3    H222529   1.875   2.871  13.178  0.4248 -1.2883  0.3278
  372TIP3   OH222530   6.557   1.864  13.580 -0.5450  0.0858  0.1233
  372TIP3    H122531   6.643   1.889  13.548 -0.4546  0.9729  1.0084
  372TIP3    H222532   6.527   1.797  13.519  1.1659 -0.9120  0.3181
  373TIP3   OH222533   4.682   5.483   5.214 -0.1436 -1.0538 -0.6159
  373TIP3    H122534   4.667   5.425   5.139  2.0235  0.8086 -2.6379
  373TIP3    H222535   4.640   5.565   5.190  1.4784 -0.0943 -0.3406
  374TIP3   OH222536   5.566   2.123  12.535  0.3612  0.5224  0.4064
  374TIP3    H122537   5.653   2.109  12.572 -0.0430  0.4835  1.3917
  374TIP3    H222538   5.550   2.047  12.481  0.4461 -0.0945  1.2274
  375TIP3   OH222539   2.423   2.784   4.485 -0.2755 -0.3629  0.2525
  375TIP3    H122540   2.410   2.829   4.568  1.4154 -1.5033  1.2049
  375TIP3    H222541   2.353   2.720   4.481 -0.6972  0.0713  0.5199
  376TIP3   OH222542   3.734   0.329  14.004  0.4660  0.1156  0.4675
  376TIP3    H122543   3.735   0.412  14.052 -1.3539 -0.4598  1.5809
  376TIP3    H222544   3.707   0.354  13.915  0.5800  0.7880  0.6139
  377TIP3   OH222545   2.499   5.490   5.108  0.1637 -0.5199  0.5639
  377TIP3    H122546   2.464   5.422   5.166 -0.8181  0.3352  0.9924
  377TIP3    H222547   2.460   5.571   5.139 -0.0061  0.0263 -0.9921
  378TIP3   OH222548   2.776   5.120  13.098  0.4719 -0.4381 -0.0573
  378TIP3    H122549   2.765   5.053  13.031 -1.3479 -0.1149 -0.1413
  378TIP3    H222550   2.800   5.071  13.177  1.0978 -0.9771 -0.5738
  379TIP3   OH222551   2.161   3.771  10.503 -0.4644 -0.3206 -0.0903
  379TIP3    H122552   2.202   3.848  10.543  0.0004  0.2423 -1.5856
  379TIP3    H222553   2.196   3.698  10.553  2.2843  0.1411 -1.0994
  380TIP3   OH222554   1.035   1.927   6.421  0.0772  0.5670  0.1490
  380TIP3    H122555   1.113   1.918   6.367  0.0100  1.9247 -0.2068
  380TIP3    H222556   0.971   1.971   6.365 -1.3569 -1.4716  0.0573
  381TIP3   OH222557   2.399   3.323  16.620 -0.2242  0.1355 -0.1953
  381TIP3    H122558   2.462   3.393  16.602 -0.0794  0.4391  1.3615
  381TIP3    H222559   2.314   3.363  16.601 -0.0867  0.4829 -0.1035
  382TIP3   OH222560   0.719   3.404  13.648  0.1479  0.0488 -0.2881
  382TIP3    H122561   0.659   3.453  13.704  0.7001 -0.3055  0.6269
  382TIP3    H222562   0.806   3.425  13.682  0.5907  0.8601 -1.8374
  383TIP3   OH222563   3.268   0.100   2.953 -0.3034  0.1390  0.0236
  383TIP3    H122564   3.261   0.194   2.938 -0.5232  0.3507  1.3187
  383TIP3    H222565   3.340   0.071   2.898 -2.5039  0.3774 -3.2527
  384TIP3   OH222566   3.825   5.819   4.463 -0.1824 -0.5202  0.0559
  384TIP3    H122567   3.751   5.760   4.480  1.0825 -2.0475  0.4237
  384TIP3    H222568   3.865   5.833   4.549 -1.6451  2.6303  0.3692
  385TIP3   OH222569   4.961   1.591  13.946 -0.2946 -0.3159  0.3480
  385TIP3    H122570   4.958   1.495  13.947 -0.5510 -0.3486 -1.2087
  385TIP3    H222571   4.885   1.617  13.894  0.0959  0.7154  0.2695
  386TIP3   OH222572   0.748   1.974  12.943  0.4700  0.4528  0.2204
  386TIP3    H122573   0.821   1.930  12.901  0.0084  0.9907 -1.2100
  386TIP3    H222574   0.709   1.907  13.000  2.4619  0.3700  1.5573
  387TIP3   OH222575   2.709   3.182  15.955  0.0438 -0.5627 -0.1295
  387TIP3    H122576   2.740   3.104  16.000 -1.6349 -1.0872  0.1536
  387TIP3    H222577   2.617   3.165  15.936 -0.8852  2.0050  1.4726
  388TIP3   OH222578   1.144   5.202   5.466  0.2561 -0.1458  0.2250
  388TIP3    H122579   1.181   5.122   5.504 -0.0530 -0.9030 -1.0086
  388TIP3    H222580   1.152   5.189   5.371 -3.5754 -0.6395 -0.1869
  389TIP3   OH222581   5.013   1.630   3.649  0.1495 -0.0776 -0.0704
  389TIP3    H122582   4.974   1.688   3.583  1.8961  0.4675 -0.6602
  389TIP3    H222583   4.937   1.593   3.695 -1.0687  3.2354  0.8705
  390TIP3   OH222584   3.020   0.318  17.082 -0.0044  0.2828 -0.7227
  390TIP3    H122585   2.965   0.320  17.005 -0.7830 -0.0562 -0.1843
  390TIP3    H222586   2.972   0.264  17.145  0.7666  0.2832 -0.1171
  391TIP3   OH222587   5.585   6.382  16.826 -0.0957  0.5801  0.0871
  391TIP3    H122588   5.637   6.441  16.771 -1.6185 -0.7935 -3.1097
  391TIP3    H222589   5.610   6.294  16.796 -0.7190 -0.2933  1.9643
  392TIP3   OH222590   5.826   6.689   0.196  0.1500 -0.1357 -0.4775
  392TIP3    H122591   5.840   6.768   0.144 -0.6747  0.7189  0.5512
  392TIP3    H222592   5.785   6.720   0.276 -0.4739 -1.6514 -0.1765
  393TIP3   OH222593   2.734   2.239   0.980 -0.2337 -0.3264  0.0655
  393TIP3    H122594   2.646   2.201   0.977 -0.7629  0.8705 -0.2258
  393TIP3    H222595   2.756   2.256   0.888 -0.1408  0.3417  0.2065
  394TIP3   OH222596   4.280   1.544   2.742  0.1107 -0.0059 -0.2022
  394TIP3    H122597   4.233   1.465   2.769 -1.0441  0.1710 -1.6009
  394TIP3    H222598   4.355   1.511   2.692  0.9999 -0.2524  1.2226
  395TIP3   OH222599   1.813   1.310   1.153  0.2469  0.0653 -0.4419
  395TIP3    H122600   1.784   1.342   1.068 -2.8558 -0.3340  0.3654
  395TIP3    H222601   1.826   1.389   1.205  4.7318  0.5428 -1.7862
  396TIP3   OH222602   4.040   6.522   2.528  0.5787  0.0151 -0.0020
  396TIP3    H122603   4.042   6.602   2.474  0.6351 -0.9267 -1.4500
  396TIP3    H222604   4.034   6.554   2.618 -1.4961  1.6313 -0.6382
  397TIP3   OH222605   4.928   0.284   5.717  0.3953  0.0095  0.3261
  397TIP3    H122606   4.901   0.375   5.721 -1.0175 -0.3242 -0.6783
  397TIP3    H222607   4.995   0.275   5.785  1.1875  1.9760 -0.1433
  398TIP3   OH222608   5.215   5.239  11.258 -0.1702  0.0098 -0.5332
  398TIP3    H122609   5.205   5.319  11.206 -2.1625  0.8485  1.0012
  398TIP3    H222610   5.213   5.269  11.349 -0.3300 -1.7301  0.0658
  399TIP3   OH222611   5.279   6.114  11.285 -0.7950  0.5414  0.2805
  399TIP3    H122612   5.369   6.102  11.255 -0.4436  2.8595  0.2221
  399TIP3    H222613   5.229   6.045  11.241  0.8005 -0.3060 -0.2855
  400TIP3   OH222614   2.478   0.674  10.449 -0.3416 -0.5369 -0.0217
  400TIP3    H122615   2.403   0.679  10.509 -0.1841 -1.9989  0.3373
  400TIP3    H222616   2.451   0.724  10.372 -0.7319  0.9981  1.0605
  401TIP3   OH222617   0.839   3.834   2.263  0.1248  0.3139  0.0645
  401TIP3    H122618   0.761   3.865   2.309 -1.2884 -0.7051 -1.5278
  401TIP3    H222619   0.831   3.738   2.264  2.4848  0.0534  1.6939
  402TIP3   OH222620   3.681   6.259   4.751  0.8586 -0.3235  0.6031
  402TIP3    H122621   3.724   6.345   4.753 -0.7604  0.5711 -0.9522
  402TIP3    H222622   3.635   6.254   4.835 -0.5919  1.2071 -0.0447
  403TIP3   OH222623   6.578   2.189  12.398 -0.6396 -0.4825  0.0865
  403TIP3    H122624   6.526   2.269  12.396  2.0979  1.5173  1.7390
  403TIP3    H222625   6.530   2.130  12.456 -3.5974 -0.9072 -2.4945
  404TIP3   OH222626   4.678   6.390  12.401  0.0392 -0.1236 -0.0552
  404TIP3    H122627   4.655   6.472  12.445 -0.6757 -1.0243  1.3320
  404TIP3    H222628   4.771   6.399  12.380  0.8832 -0.2120  3.0972
  405TIP3   OH222629   2.671   1.744   3.555  0.0632 -0.0153  0.2572
  405TIP3    H122630   2.668   1.797   3.634  0.0341 -3.6795  2.9905
  405TIP3    H222631   2.735   1.788   3.499  0.1461  2.7357  2.3216
  406TIP3   OH222632   4.271   6.303   1.244 -0.2156  0.7702 -0.0489
  406TIP3    H122633   4.302   6.335   1.328  0.7073 -0.3661  0.0732
  406TIP3    H222634   4.216   6.373   1.210 -1.9221  0.6415  2.2134
  407TIP3   OH222635   5.653   6.649  13.004  0.0407  0.0907  0.8727
  407TIP3    H122636   5.696   6.565  12.992 -0.0449  0.3586 -2.3548
  407TIP3    H222637   5.574   6.630  13.055 -1.2021 -2.2919 -1.7002
  408TIP3   OH222638   0.886   2.390  13.722 -0.2612 -0.1378 -0.3363
  408TIP3    H122639   0.897   2.315  13.663 -2.0658 -1.0015  0.3248
  408TIP3    H222640   0.975   2.415  13.746  0.4882 -3.8102  1.4873
  409TIP3   OH222641   0.646   3.832  16.931  0.6124 -0.3178  0.2349
  409TIP3    H122642   0.592   3.841  17.010  0.5455  0.2108  0.1333
  409TIP3    H222643   0.632   3.914  16.883 -2.6166 -2.0926 -2.3760
  410TIP3   OH222644   0.241   2.752   5.898 -0.3803  0.5898  0.2036
  410TIP3    H122645   0.186   2.738   5.821  0.2099  1.0325 -0.2963
  410TIP3    H222646   0.223   2.676   5.954  0.0650 -0.3412 -0.8859
  411TIP3   OH222647   0.198   2.107  13.150  0.2698  0.2931 -0.0963
  411TIP3    H122648   0.158   2.144  13.071  2.1978  2.5179 -0.1340
  411TIP3    H222649   0.292   2.106  13.131  0.5275 -2.5256  0.8720
  412TIP3   OH222650   0.152   0.229  12.226 -0.4081 -0.5245 -0.4203
  412TIP3    H122651   0.207   0.173  12.171  3.0868  1.2436  0.9501
  412TIP3    H222652   0.119   0.297  12.166  1.9340  0.4032 -0.7512
  413TIP3   OH222653   2.609   0.245   2.191 -0.4569  0.2523 -0.3140
  413TIP3    H122654   2.681   0.249   2.254 -0.4316  1.7555 -0.3993
  413TIP3    H222655   2.531   0.227   2.244 -0.1461 -0.6280 -0.1350
  414TIP3   OH222656   3.159   5.321  13.371 -0.1044  0.5705 -0.0978
  414TIP3    H122657   3.183   5.233  13.341  0.2495  0.8352 -0.6132
  414TIP3    H222658   3.227   5.377  13.336 -0.3152  1.0505  0.2540
  415TIP3   OH222659   4.798   3.197  14.566 -0.4805  0.7823 -0.2697
  415TIP3    H122660   4.839   3.130  14.512  2.0500 -0.7637  3.1676
  415TIP3    H222661   4.746   3.148  14.630  2.3045  1.7439  3.0375
  416TIP3   OH222662   1.404   0.059  17.168 -1.0073 -0.5284 -0.1382
  416TIP3    H122663   1.415   0.097  17.255 -0.3344  1.2750 -0.9732
  416TIP3    H222664   1.383   0.133  17.112  0.7900 -1.2742 -1.9092
  417TIP3   OH222665   2.971   5.430  12.963 -0.3035 -0.0088 -0.2171
  417TIP3    H122666   2.965   5.503  13.026 -2.3489  0.3431 -0.7455
  417TIP3    H222667   3.029   5.463  12.894 -0.4431  0.7607  0.0201
  418TIP3   OH222668   6.261   5.553   1.685 -0.1245 -0.2161  0.3072
  418TIP3    H122669   6.337   5.597   1.723 -0.6604  0.5028  0.5648
  418TIP3    H222670   6.189   5.615   1.696 -0.8508 -1.0632  0.4727
  419TIP3   OH222671   3.317   0.493   5.211  0.5170  0.5327  0.3551
  419TIP3    H122672   3.346   0.495   5.302 -0.0528  0.8712  0.5370
  419TIP3    H222673   3.291   0.402   5.196  1.3629  0.2993  0.2826
  420TIP3   OH222674   1.042   4.038  12.627  0.9684  0.4257 -0.4421
  420TIP3    H122675   1.032   3.986  12.547 -0.6742  1.4648 -0.9394
  420TIP3    H222676   1.133   4.067  12.625  1.1430 -0.1434 -1.5561
  421TIP3   OH222677   4.968   1.714   5.365  0.4478 -0.1002 -0.6917
  421TIP3    H122678   4.939   1.693   5.453  2.6165  1.0594  0.3875
  421TIP3    H222679   5.050   1.665   5.354  1.6190  1.8250 -0.9737
  422TIP3   OH222680   6.237   3.393  16.631  0.1106 -0.0863  0.2173
  422TIP3    H122681   6.268   3.395  16.722  2.1400 -1.1469 -0.3837
  422TIP3    H222682   6.203   3.304  16.619 -0.9142  0.3016  0.1452
  423TIP3   OH222683   4.846   5.757  13.500  0.1137  0.3316  0.3991
  423TIP3    H122684   4.799   5.699  13.441  0.7511 -1.1346  1.2949
  423TIP3    H222685   4.778   5.790  13.560  0.0708 -1.1301  1.1774
  424TIP3   OH222686   0.279   5.760  16.721  0.2882 -0.0540 -0.7448
  424TIP3    H122687   0.189   5.794  16.728  0.7637  0.9922  0.6976
  424TIP3    H222688   0.268   5.665  16.722 -0.8720  0.0484 -1.6491
  425TIP3   OH222689   0.312   2.911  16.604  0.0052 -0.5523 -0.0451
  425TIP3    H122690   0.302   2.821  16.572 -0.3379 -1.2471  1.8382
  425TIP3    H222691   0.268   2.910  16.689  0.8212  1.1618  0.4314
  426TIP3   OH222692   4.015   5.010   5.020 -0.5411  0.7849 -0.0847
  426TIP3    H122693   4.097   5.034   5.063  0.3616  0.8036 -1.7200
  426TIP3    H222694   4.040   4.995   4.929 -2.4479  1.2692 -0.7286
  427TIP3   OH222695   0.978   4.739   2.966 -0.1971  0.2509 -0.6885
  427TIP3    H122696   1.042   4.766   3.032 -0.8689  1.3087 -0.4659
  427TIP3    H222697   0.933   4.664   3.006  1.5238 -1.1653 -1.2321
  428TIP3   OH222698   1.295   0.439   4.108  0.3292 -0.0966  0.0958
  428TIP3    H122699   1.344   0.520   4.092 -0.5749  0.7279  1.2654
  428TIP3    H222700   1.327   0.408   4.193 -1.8394  1.0516  1.4259
  429TIP3   OH222701   4.372   3.543  13.210  0.4280 -0.6261  0.2009
  429TIP3    H122702   4.277   3.544  13.210  0.4238 -1.1339  0.2991
  429TIP3    H222703   4.396   3.515  13.298  0.6688 -0.6420  0.1306
  430TIP3   OH222704   1.679   4.106  16.477 -0.4036 -0.0274 -0.3436
  430TIP3    H122705   1.624   4.030  16.495 -0.2426 -0.0642  0.0006
  430TIP3    H222706   1.626   4.181  16.503  0.8469 -0.1729  3.1197
  431TIP3   OH222707   2.684   4.722  13.697  0.2668  0.1358 -0.4081
  431TIP3    H122708   2.650   4.659  13.760  0.3055 -0.7749 -1.2828
  431TIP3    H222709   2.727   4.788  13.751  0.5511 -0.7712  0.5086
  432TIP3   OH222710   1.298   6.461   4.112  0.1304  0.2008  0.6526
  432TIP3    H122711   1.258   6.505   4.186 -1.0248 -1.0920  0.8288
  432TIP3    H222712   1.259   6.502   4.035  0.4363  0.7173  0.7655
  433TIP3   OH222713   4.989   2.437   2.711  0.4536 -0.1881 -0.1014
  433TIP3    H122714   4.985   2.343   2.690  0.3071 -0.8920  2.6307
  433TIP3    H222715   5.080   2.461   2.695  0.6183 -0.9297 -0.3407
  434TIP3   OH222716   0.711   5.848   2.546 -0.1949  0.4673  0.0028
  434TIP3    H122717   0.790   5.850   2.492 -0.9681 -0.2238 -1.1877
  434TIP3    H222718   0.736   5.797   2.623  0.2067 -0.7537 -0.9023
  435TIP3   OH222719   0.246   0.060  11.132 -0.3151  0.2835  0.3907
  435TIP3    H122720   0.276   0.127  11.070 -2.6293  0.3783 -0.7180
  435TIP3    H222721   0.257  -0.023  11.085 -0.8853  0.2328  0.3458
  436TIP3   OH222722   1.948   4.422   1.335 -0.5991 -0.0603  0.3457
  436TIP3    H122723   1.865   4.438   1.379 -0.1207  0.6132  1.0254
  436TIP3    H222724   1.985   4.345   1.379 -0.8295 -0.3364  0.0688
  437TIP3   OH222725   0.572   6.651  10.775  0.4562 -0.1568 -0.5390
  437TIP3    H122726   0.566   6.590  10.848  0.5742  0.0057 -0.3920
  437TIP3    H222727   0.576   6.738  10.817 -1.7413  0.1068 -0.7840
  438TIP3   OH222728   3.863   1.030  13.942 -0.2530  0.5006 -0.1426
  438TIP3    H122729   3.793   0.965  13.949 -1.9185  2.1591 -0.7186
  438TIP3    H222730   3.885   1.030  13.848  0.3297  0.2087 -0.0121
  439TIP3   OH222731   2.957   6.172  13.298 -0.5308  0.2671 -0.5073
  439TIP3    H122732   2.930   6.138  13.384  0.6717  2.2411  0.7325
  439TIP3    H222733   3.052   6.182  13.305 -0.1748 -1.0812 -2.7047
  440TIP3   OH222734   5.666   1.747  12.544  0.4471 -0.1301 -0.9400
  440TIP3    H122735   5.619   1.813  12.492  2.2456  1.7307 -0.3234
  440TIP3    H222736   5.646   1.770  12.635  1.9928  0.3093 -0.6942
  441TIP3   OH222737   2.061   3.709  16.198 -0.7559  0.1557 -0.1806
  441TIP3    H122738   2.081   3.695  16.106 -1.1958 -0.8752 -0.1284
  441TIP3    H222739   2.038   3.802  16.204  0.5317  0.5288 -0.8631
  442TIP3   OH222740   5.367   4.537   2.231  0.5559  0.8209  0.4797
  442TIP3    H122741   5.283   4.553   2.275  0.0021 -3.2104  1.2789
  442TIP3    H222742   5.347   4.471   2.165  2.8447  0.9477 -0.4064
  443TIP3   OH222743   3.040   6.751  16.549 -0.0269  0.3973  0.1537
  443TIP3    H122744   3.051   6.845  16.541  0.2174  0.2299 -1.9445
  443TIP3    H222745   2.955   6.733  16.509  0.8695 -0.4857 -1.4324
  444TIP3   OH222746   4.664   1.882   0.126  0.2421  0.9453  0.1123
  444TIP3    H122747   4.590   1.903   0.182  0.7819  2.5983  0.2518
  444TIP3    H222748   4.658   1.787   0.113 -0.8362  0.7755  1.5988
  445TIP3   OH222749   2.805   0.694  14.451 -0.3531 -0.2755  0.0963
  445TIP3    H122750   2.815   0.617  14.507 -0.8141 -0.9665 -0.7381
  445TIP3    H222751   2.777   0.658  14.366  1.8543  0.5792 -1.0836
  446TIP3   OH222752   4.424   4.009  13.708 -0.0032  0.0885 -0.1715
  446TIP3    H122753   4.487   4.024  13.778  0.3455  0.6892 -0.6035
  446TIP3    H222754   4.365   4.084  13.711 -0.9821 -0.6952  0.5160
  447TIP3   OH222755   6.070   5.335  13.855  0.0603 -0.0262 -0.2316
  447TIP3    H122756   6.137   5.404  13.858 -0.4091  0.7099 -3.2787
  447TIP3    H222757   6.110   5.265  13.803 -0.8615 -0.3782 -0.4891
  448TIP3   OH222758   1.678   0.124  11.297 -0.2369  0.0309  0.2228
  448TIP3    H122759   1.727   0.125  11.380  1.3654 -1.8240 -0.6189
  448TIP3    H222760   1.715   0.196  11.246 -0.1280  0.1918  0.5267
  449TIP3   OH222761   5.940   4.629   1.101 -0.4591  0.0989 -0.6417
  449TIP3    H122762   6.032   4.608   1.118 -0.7964 -0.9737 -0.0155
  449TIP3    H222763   5.940   4.670   1.014  0.7067  0.9164 -0.2707
  450TIP3   OH222764   4.914   2.926  16.236  0.1782  0.2298 -0.3738
  450TIP3    H122765   4.937   2.834  16.220 -0.2164  0.2732 -1.2974
  450TIP3    H222766   4.934   2.941  16.328  2.2102 -0.2025 -0.7128
  451TIP3   OH222767   1.695   1.852  16.581  0.2286 -0.1095 -0.2733
  451TIP3    H122768   1.647   1.861  16.499 -0.3206  1.2743  0.1770
  451TIP3    H222769   1.771   1.910  16.571  0.6146 -0.5887 -0.1345
  452TIP3   OH222770   0.450   5.182  16.104 -0.5553  0.3910  0.3743
  452TIP3    H122771   0.513   5.202  16.174 -0.7243 -1.2089  1.0252
  452TIP3    H222772   0.459   5.255  16.043  3.4430 -0.7478 -0.6737
  453TIP3   OH222773   6.088   6.127  16.125 -0.3292  0.2929 -0.0362
  453TIP3    H122774   6.010   6.174  16.153 -0.6370 -1.0283  1.5019
  453TIP3    H222775   6.065   6.089  16.040 -1.4718 -0.2547  0.4983
  454TIP3   OH222776   1.021   2.189  16.952 -0.3565  0.1288 -0.8178
  454TIP3    H122777   1.097   2.185  17.010 -0.3006  0.0304 -0.8989
  454TIP3    H222778   1.012   2.100  16.917  0.1401  0.3976 -1.6526
  455TIP3   OH222779   0.240   6.063   0.177 -0.0720 -0.5103  0.0830
  455TIP3    H122780   0.172   6.015   0.224 -0.0620  0.3480  0.9968
  455TIP3    H222781   0.312   6.069   0.240  1.3735 -2.4574 -1.2550
  456TIP3   OH222782   6.602   5.443  11.420  0.0578  0.0340 -0.3291
  456TIP3    H122783   6.695   5.435  11.442 -0.2355  0.3893  1.1137
  456TIP3    H222784   6.596   5.406  11.332  1.5050 -0.2913 -0.3266
  457TIP3   OH222785   5.145   3.542  15.481 -0.3782  0.0853 -0.1939
  457TIP3    H122786   5.205   3.534  15.407  1.4180  0.7433  1.1285
  457TIP3    H222787   5.137   3.453  15.515 -0.9709 -0.1696 -0.9710
  458TIP3   OH222788   5.628   4.517  13.648 -0.6526 -1.0639 -0.5333
  458TIP3    H122789   5.560   4.497  13.583  0.5850  0.1918 -2.3029
  458TIP3    H222790   5.710   4.507  13.601  0.2953  0.0556  0.8031
  459TIP3   OH222791   3.993   0.711  12.366  0.1605 -0.0088  0.6311
  459TIP3    H122792   3.924   0.777  12.355 -0.0415 -0.2710  0.2822
  459TIP3    H222793   4.015   0.714  12.459 -2.2928 -1.8470  1.3986
  460TIP3   OH222794   3.831   5.314   0.477  0.5643 -0.0789 -0.5186
  460TIP3    H122795   3.759   5.315   0.414 -0.4572 -0.5017  0.6103
  460TIP3    H222796   3.804   5.251   0.544  1.3000  0.8480  0.6999
  461TIP3   OH222797   4.733   4.448  15.193 -0.3839 -0.1222  0.4496
  461TIP3    H122798   4.769   4.361  15.212 -2.2104 -0.9269  0.4037
  461TIP3    H222799   4.638   4.436  15.193 -0.6904  1.8752  0.3874
  462TIP3   OH222800   2.033   3.667   3.427 -0.2563  0.4064  0.1110
  462TIP3    H122801   1.969   3.607   3.390 -2.0160  2.6744 -0.7194
  462TIP3    H222802   2.117   3.637   3.392 -1.0432 -1.5473 -0.2329
  463TIP3   OH222803   1.960   0.148   3.460 -0.0423 -0.4584 -0.6012
  463TIP3    H122804   2.016   0.129   3.385  2.1773 -1.0984  1.1178
  463TIP3    H222805   1.933   0.062   3.492  0.5044 -0.2793  0.3671
  464TIP3   OH222806   2.321   1.834  13.911  0.1483 -0.3839  0.1260
  464TIP3    H122807   2.352   1.819  14.001  0.2037 -1.8150 -0.1133
  464TIP3    H222808   2.261   1.762  13.895  2.0486 -1.6495 -1.8532
  465TIP3   OH222809   3.734   3.663   1.097  0.4941  0.1216  0.0552
  465TIP3    H122810   3.659   3.703   1.052  0.1631 -0.1512  0.3578
  465TIP3    H222811   3.810   3.705   1.058  0.1734  0.5981 -0.0701
  466TIP3   OH222812   0.764   6.221  14.896 -0.1052 -0.2022  0.5313
  466TIP3    H122813   0.831   6.201  14.961  0.6480  0.9498  0.1295
  466TIP3    H222814   0.781   6.160  14.824 -0.5023 -0.9988  1.0978
  467TIP3   OH222815   3.503   2.911   5.171  0.0668 -0.1197 -0.1344
  467TIP3    H122816   3.419   2.869   5.155 -0.1902 -0.0547  0.9472
  467TIP3    H222817   3.567   2.855   5.126 -0.3734 -1.1801  0.5051
  468TIP3   OH222818   6.495   4.067   4.095 -0.4184  0.4355 -0.0549
  468TIP3    H122819   6.534   3.999   4.150 -0.1840  1.1567  0.6927
  468TIP3    H222820   6.569   4.114   4.057 -0.5202  1.7314  1.2757
  469TIP3   OH222821   3.948   3.466   0.184 -0.3024  0.4296 -0.0475
  469TIP3    H122822   3.876   3.406   0.166  0.8458 -2.0197  2.6930
  469TIP3    H222823   4.025   3.425   0.146 -0.0657  2.5077 -2.0451
  470TIP3   OH222824   5.651   4.315  11.591 -0.4104 -0.0831 -0.4733
  470TIP3    H122825   5.639   4.410  11.584 -2.3008 -0.3246 -1.1596
  470TIP3    H222826   5.672   4.301  11.683  2.0308  1.1571 -0.7605
  471TIP3   OH222827   6.325   3.780  13.281 -0.3875 -0.2405 -0.0877
  471TIP3    H122828   6.419   3.760  13.280 -0.3271  0.0710 -0.8402
  471TIP3    H222829   6.282   3.698  13.257 -0.2289 -0.0003 -1.2449
  472TIP3   OH222830   5.419   6.115  13.709 -0.3836  0.3504 -0.0380
  472TIP3    H122831   5.451   6.132  13.620 -2.0151 -0.4890 -0.8481
  472TIP3    H222832   5.353   6.182  13.724 -1.2917 -0.4844 -0.1575
  473TIP3   OH222833   4.262   2.937  12.737  0.2519  0.2220 -0.3612
  473TIP3    H122834   4.189   2.901  12.687  0.6022  0.5835 -1.1405
  473TIP3    H222835   4.322   2.972  12.672  2.3075 -2.1431  0.0537
  474TIP3   OH222836   3.857   0.319  11.842  0.2580 -0.0328 -0.2687
  474TIP3    H122837   3.886   0.367  11.764  0.6310 -1.7407 -1.2421
  474TIP3    H222838   3.834   0.232  11.809 -0.6879 -0.4495  1.3699
  475TIP3   OH222839   0.774   4.545  15.656 -0.1567  0.2164  0.0321
  475TIP3    H122840   0.727   4.479  15.707 -1.4324  1.1531  0.1249
  475TIP3    H222841   0.705   4.598  15.616  0.8258  0.4727 -1.4048
  476TIP3   OH222842   3.854   0.066  11.715  0.8054  0.0682  0.3324
  476TIP3    H122843   3.813  -0.013  11.752 -1.1215  0.0893 -1.5098
  476TIP3    H222844   3.946   0.043  11.707  0.4191 -1.7579  0.5126
  477TIP3   OH222845   3.231   5.800  14.754  0.2396  0.0475  0.2217
  477TIP3    H122846   3.277   5.849  14.685  0.9369 -1.2222 -0.2357
  477TIP3    H222847   3.186   5.868  14.805 -1.7846  0.9343 -2.4989
  478TIP3   OH222848   5.875   6.488  13.990  0.0916  0.1788 -0.2520
  478TIP3    H122849   5.814   6.415  14.003  1.3121 -0.6375  1.1703
  478TIP3    H222850   5.840   6.559  14.045  0.1206 -0.1094  0.1453
  479TIP3   OH222851   4.160   6.717  11.883 -0.3537  0.3827 -0.2266
  479TIP3    H122852   4.120   6.642  11.838  1.9883 -0.2553 -1.4292
  479TIP3    H222853   4.173   6.782  11.814 -1.5624  1.6210  0.6442
  480TIP3   OH222854   3.825   5.669   3.942 -0.0516 -0.6277  0.4715
  480TIP3    H122855   3.814   5.719   4.023  2.4100  1.1995 -0.1918
  480TIP3    H222856   3.770   5.715   3.878  0.5641 -0.0467  0.3553
  481TIP3   OH222857   0.567   1.784   1.091 -0.5691  0.7238  0.5310
  481TIP3    H122858   0.626   1.770   1.165 -0.8957  0.2207  0.7013
  481TIP3    H222859   0.622   1.771   1.014  0.1066  2.6312  0.6587
  482TIP3   OH222860   4.157   5.479  16.748 -0.0203 -0.0573  0.2988
  482TIP3    H122861   4.187   5.512  16.663  0.8493 -1.3486  0.0731
  482TIP3    H222862   4.186   5.545  16.811  0.8795  0.0603 -0.2233
  483TIP3   OH222863   5.767   0.107   4.049  0.3287  0.5201 -0.3345
  483TIP3    H122864   5.744   0.037   4.109 -2.3177  0.5632 -1.1628
  483TIP3    H222865   5.836   0.071   3.994  0.5178 -0.6420  0.6446
  484TIP3   OH222866   2.807   1.064   2.219  0.3803 -0.3721 -0.0742
  484TIP3    H122867   2.881   1.097   2.271 -0.1203 -1.2239  1.2399
  484TIP3    H222868   2.734   1.121   2.243  0.0361 -1.0532  0.5446
  485TIP3   OH222869   4.510   5.489  16.301 -0.3449 -0.3592 -0.7314
  485TIP3    H122870   4.573   5.436  16.251  0.5937 -0.3496  0.3990
  485TIP3    H222871   4.440   5.509  16.238  0.2593 -1.2621 -1.7253
  486TIP3   OH222872   6.344   0.399   5.758  0.4509  0.4455  0.0695
  486TIP3    H122873   6.330   0.384   5.851 -0.4009 -0.3132 -0.1589
  486TIP3    H222874   6.382   0.486   5.752 -0.4552  0.9318  1.0589
  487TIP3   OH222875   2.553   5.136   5.926 -0.2082  0.5142  0.0085
  487TIP3    H122876   2.600   5.162   6.004  0.1112  1.2855 -0.4315
  487TIP3    H222877   2.462   5.160   5.943 -0.1957  0.3832  0.2646
  488TIP3   OH222878   0.092   1.149  11.440 -0.3980  0.3575  0.2312
  488TIP3    H122879   0.084   1.198  11.522 -2.4743  1.6460 -0.6567
  488TIP3    H222880   0.121   1.062  11.467 -1.0717  0.7350  2.3511
  489TIP3   OH222881   5.948   3.390   4.657  0.5951  0.1376  0.0854
  489TIP3    H122882   5.935   3.476   4.616  2.0013  0.2828 -0.1180
  489TIP3    H222883   5.909   3.399   4.744 -0.7882  0.4193 -0.5440
  490TIP3   OH222884   2.160   0.454  16.862 -0.7985 -0.2472 -0.1841
  490TIP3    H122885   2.166   0.368  16.820  2.9464 -0.1605 -0.2070
  490TIP3    H222886   2.121   0.510  16.795 -0.1689 -1.2680 -1.4594
  491TIP3   OH222887   3.655   4.170  13.433  0.0931  0.3477  0.1643
  491TIP3    H122888   3.675   4.216  13.352  0.4820 -0.2154 -0.0642
  491TIP3    H222889   3.577   4.118  13.413 -0.6594  1.2944  0.5764
  492TIP3   OH222890   2.797   5.950  16.243  0.3413 -0.5572  0.7609
  492TIP3    H122891   2.803   5.857  16.222 -0.9520 -0.4931  0.0152
  492TIP3    H222892   2.886   5.983  16.233  0.9462 -1.8451  1.7110
  493TIP3   OH222893   6.033   3.649   0.605  0.0093  0.7349  1.1691
  493TIP3    H122894   6.000   3.608   0.525 -0.5465 -1.4449  2.4574
  493TIP3    H222895   6.035   3.743   0.584 -2.3675  0.4826 -0.5878
  494TIP3   OH222896   6.288   5.640  14.074 -0.2793 -0.6375 -0.6329
  494TIP3    H122897   6.305   5.729  14.043 -1.7197 -0.4884 -1.0404
  494TIP3    H222898   6.332   5.636  14.159  2.0428 -0.4069 -1.7316
  495TIP3   OH222899   0.532   4.081  12.510  0.3605 -0.4120 -0.5037
  495TIP3    H122900   0.505   4.171  12.529  2.5254 -0.2227  2.3188
  495TIP3    H222901   0.615   4.089  12.464  0.7641 -0.9246  0.1121
  496TIP3   OH222902   0.081   6.264  12.927  0.5593 -0.2309  0.4832
  496TIP3    H122903   0.022   6.269  13.002  0.8133 -1.6952  0.8103
  496TIP3    H222904   0.098   6.170  12.916  2.7062  0.1231  0.3022
  497TIP3   OH222905   0.099   0.511   6.025  0.2116  0.0047  0.3929
  497TIP3    H122906   0.013   0.507   5.983 -0.8075  0.4832  2.3164
  497TIP3    H222907   0.110   0.426   6.067  1.1200 -0.3848 -0.5757
  498TIP3   OH222908   2.921   0.435  13.577 -0.2352 -0.4105  0.1520
  498TIP3    H122909   2.849   0.436  13.514  0.2557  0.3713 -0.4167
  498TIP3    H222910   2.917   0.521  13.620  0.7802 -0.0811 -0.3836
  499TIP3   OH222911   1.774   1.558  11.028  0.7332 -0.3112 -0.2045
  499TIP3    H122912   1.730   1.558  11.113 -1.0768 -0.6627 -1.1058
  499TIP3    H222913   1.711   1.520  10.967  1.8680  0.1951 -1.7811
  500TIP3   OH222914   3.016   3.042  15.732  0.2285 -0.2530 -0.3924
  500TIP3    H122915   3.095   3.007  15.692  0.6472  0.1066  0.0966
  500TIP3    H222916   3.033   3.039  15.826  0.9553  2.6705 -0.3148
  501TIP3   OH222917   6.405   5.634  15.529 -0.2956 -0.0768 -0.2077
  501TIP3    H122918   6.371   5.683  15.455  0.2957  1.4875  0.5083
  501TIP3    H222919   6.395   5.693  15.604 -1.6354 -1.8928  1.1508
  502TIP3   OH222920   6.481   1.229   1.894  0.0673  0.6174 -0.3938
  502TIP3    H122921   6.511   1.149   1.937  0.3040  0.9840  0.1339
  502TIP3    H222922   6.436   1.199   1.815  0.3591 -0.0200 -0.3180
  503TIP3   OH222923   3.309   6.727  12.315 -0.0984  0.4762  0.4061
  503TIP3    H122924   3.306   6.788  12.241 -1.4978 -0.9866 -0.8119
  503TIP3    H222925   3.221   6.690  12.320  0.6930 -1.4637  1.0830
  504TIP3   OH222926   3.756   4.241   3.585 -0.1623  0.2696 -0.0296
  504TIP3    H122927   3.660   4.244   3.589 -0.1428  0.5318  0.2922
  504TIP3    H222928   3.776   4.152   3.556 -0.5115  0.3131 -0.4184
  505TIP3   OH222929   4.611   4.947   4.877 -0.1335 -0.4574 -0.4099
  505TIP3    H122930   4.667   4.953   4.954 -0.2411 -1.8275 -0.2015
  505TIP3    H222931   4.660   4.891   4.816 -0.7401 -0.6977 -0.6929
  506TIP3   OH222932   3.364   2.953   3.923  0.6197  0.7004  0.1018
  506TIP3    H122933   3.412   3.034   3.910 -1.2040  1.8435  0.1233
  506TIP3    H222934   3.365   2.911   3.837  1.6955  0.6416  0.1276
  507TIP3   OH222935   2.293   0.173  17.149  0.1463 -0.3823  0.4450
  507TIP3    H122936   2.372   0.175  17.203  0.8650 -0.2998 -0.5684
  507TIP3    H222937   2.318   0.119  17.074 -0.1835  1.0937 -0.7630
  508TIP3   OH222938   4.922   0.573   0.552 -0.2107  0.0274  0.3554
  508TIP3    H122939   4.869   0.607   0.624 -1.8268  0.0440 -0.7816
  508TIP3    H222940   4.937   0.649   0.495  0.7045 -0.0736  0.4353
  509TIP3   OH222941   4.249   5.536   0.913 -0.1050 -0.1407  0.0356
  509TIP3    H122942   4.305   5.482   0.969 -0.4767 -1.2070 -0.5827
  509TIP3    H222943   4.304   5.558   0.839  0.5884  1.8034  1.0702
  510TIP3   OH222944   2.593   1.015   1.847  0.2142  0.0779 -0.1543
  510TIP3    H122945   2.639   1.098   1.859  0.4189 -0.1583  0.8834
  510TIP3    H222946   2.501   1.035   1.867  0.1481  0.2039 -0.5914
  511TIP3   OH222947   2.852   1.224  15.082 -0.1149 -0.1288 -0.5833
  511TIP3    H122948   2.797   1.148  15.064 -1.9630  1.0801 -0.2928
  511TIP3    H222949   2.920   1.221  15.014  0.5793 -2.6237  0.0918
  512TIP3   OH222950   0.001   6.413   2.309 -0.4040 -0.5441 -0.4992
  512TIP3    H122951  -0.050   6.402   2.389  0.0740 -1.0238 -0.2547
  512TIP3    H222952   0.001   6.326   2.269  0.1225 -0.5171 -0.5577
  513TIP3   OH222953   1.563   3.680  15.825  0.1043 -0.5702 -0.1658
  513TIP3    H122954   1.468   3.672  15.834 -0.0837 -0.0417 -1.4293
  513TIP3    H222955   1.581   3.772  15.841  0.2237 -0.4034 -1.1946
  514TIP3   OH222956   4.470   1.535   3.226 -0.6091  0.2907  0.0352
  514TIP3    H122957   4.393   1.586   3.200  0.3256  1.1574 -1.1185
  514TIP3    H222958   4.499   1.575   3.308 -0.3172  1.1387 -0.4801
  515TIP3   OH222959   4.031   0.141   1.707  0.2323  0.6178  0.0440
  515TIP3    H122960   4.068   0.086   1.777 -0.9446  0.9754  0.9874
  515TIP3    H222961   4.008   0.223   1.751 -1.9938  0.2857 -0.3643
  516TIP3   OH222962   2.549   0.279  13.681  0.5614  0.3110  0.0287
  516TIP3    H122963   2.508   0.305  13.763  0.7354  2.7470 -0.5718
  516TIP3    H222964   2.536   0.185  13.676 -0.2276  0.2316  2.4060
  517TIP3   OH222965   2.305   3.080   1.143 -0.0316 -0.3911  0.1107
  517TIP3    H122966   2.294   3.049   1.053  0.3973 -1.7033  0.4836
  517TIP3    H222967   2.341   3.005   1.190  2.1169  1.0039  0.8514
  518TIP3   OH222968   2.620   5.535   3.786 -0.1661  0.3811  0.3749
  518TIP3    H122969   2.602   5.527   3.879 -0.4518  1.0703  0.3850
  518TIP3    H222970   2.658   5.451   3.761 -3.9561 -1.4885  0.2119
  519TIP3   OH222971   6.558   3.009  11.756 -0.7962 -0.2588 -0.2851
  519TIP3    H122972   6.527   2.949  11.687  1.5816 -2.2632  0.2616
  519TIP3    H222973   6.617   2.956  11.810 -2.6574  1.1377  3.4980
  520TIP3   OH222974   4.927   6.388  11.755 -0.6682 -0.4001 -0.1618
  520TIP3    H122975   4.980   6.381  11.676  1.3138  2.0768  0.8056
  520TIP3    H222976   4.869   6.463  11.738  0.4952  0.8355  1.0133
  521TIP3   OH222977   5.358   0.017  15.992  0.1214  0.5901 -0.2877
  521TIP3    H122978   5.351  -0.038  16.070 -0.0503 -0.6936 -1.1832
  521TIP3    H222979   5.443   0.059  16.000  0.6344 -0.4674  0.0020
  522TIP3   OH222980   6.543   3.605  14.388  0.3808  0.2104  0.2305
  522TIP3    H122981   6.621   3.633  14.436  0.8206 -2.0039  0.9577
  522TIP3    H222982   6.471   3.618  14.449  0.1773  2.0075 -0.3446
  523TIP3   OH222983   6.578   3.863   4.263  0.1784 -0.2854 -0.4711
  523TIP3    H122984   6.506   3.801   4.252 -0.1127 -0.0342  0.0197
  523TIP3    H222985   6.656   3.809   4.266 -0.3038 -1.0551  3.7711
  524TIP3   OH222986   4.762   1.075   1.674  0.5143  0.5446  0.1202
  524TIP3    H122987   4.727   1.164   1.671 -3.6116 -0.8832 -2.9243
  524TIP3    H222988   4.783   1.055   1.583 -1.3186 -2.4037  0.2277
  525TIP3   OH222989   5.519   3.208  11.799 -0.1514  0.2933 -0.1508
  525TIP3    H122990   5.502   3.117  11.821  0.3817 -0.2054 -1.7130
  525TIP3    H222991   5.593   3.232  11.855  0.1263 -0.4298 -0.1958
  526TIP3   OH222992   2.370   1.560   4.948  0.0673 -0.5011 -0.0149
  526TIP3    H122993   2.387   1.653   4.957  0.1729 -0.2879 -1.8873
  526TIP3    H222994   2.424   1.518   5.014  1.7186  0.6520 -0.5742
  527TIP3   OH222995   3.710   0.323   3.171  0.2340 -0.0922  0.3172
  527TIP3    H122996   3.790   0.281   3.201  0.7792  0.8621  0.2359
  527TIP3    H222997   3.731   0.356   3.083 -0.9997 -1.9004 -0.7359
  528TIP3   OH222998   1.983   4.554  14.499 -0.3071  0.2109  0.1118
  528TIP3    H122999   1.901   4.510  14.521 -0.4832 -0.0931 -1.0874
  528TIP3    H223000   1.956   4.636  14.458 -0.0367 -0.2548 -1.0268
  529TIP3   OH223001   1.510   3.028   4.156 -1.0600  0.1898  0.8724
  529TIP3    H123002   1.420   3.048   4.129 -0.7816  2.1664  1.2320
  529TIP3    H223003   1.559   3.024   4.074 -1.5579 -1.6118  0.6172
  530TIP3   OH223004   6.511   6.699   1.438  0.0242 -0.3503  0.2639
  530TIP3    H123005   6.449   6.739   1.377 -0.8495  0.1026  1.4119
  530TIP3    H223006   6.538   6.618   1.394  0.3690  0.5383 -1.2524
  531TIP3   OH223007   6.649   0.859   0.148 -0.0447  0.1622 -0.1223
  531TIP3    H123008   6.604   0.943   0.161 -4.7793 -1.8111 -1.6261
  531TIP3    H223009   6.653   0.849   0.053  1.1050 -1.0480  0.0318
  532TIP3   OH223010   6.646   0.514  12.585 -0.1976  0.0602  0.4733
  532TIP3    H123011   6.673   0.556  12.503  0.5717  0.4544  0.9170
  532TIP3    H223012   6.703   0.437  12.593  0.0539  0.2837  0.8675
  533TIP3   OH223013   1.248   6.699  14.284 -0.4165 -0.3985  0.0913
  533TIP3    H123014   1.208   6.641  14.219 -1.5529  2.0913 -1.6433
  533TIP3    H223015   1.191   6.776  14.285  0.9446  0.6954  2.2908
  534TIP3   OH223016   4.795   4.754  13.477 -0.1327  0.1203  0.5135
  534TIP3    H123017   4.724   4.802  13.433  0.0515 -0.7341 -0.7552
  534TIP3    H223018   4.849   4.721  13.406  0.7850 -0.4068  1.4350
  535TIP3   OH223019   4.036   4.705  15.532  0.2685 -0.1342  0.4696
  535TIP3    H123020   4.081   4.703  15.617 -0.9104  0.1276  1.1354
  535TIP3    H223021   4.034   4.614  15.504  0.1859 -0.2989  0.9974
  536TIP3   OH223022   3.701   3.132  12.025  1.0445  0.2230  0.4507
  536TIP3    H123023   3.641   3.200  11.993  2.0112  0.7021 -0.4023
  536TIP3    H223024   3.739   3.169  12.105  1.0973  0.4264  0.3316
  537TIP3   OH223025   6.718   3.633  14.587  0.2843  0.6557  0.0415
  537TIP3    H123026   6.725   3.727  14.603  2.9212  0.7899 -1.3177
  537TIP3    H223027   6.757   3.592  14.664  0.4386  0.7234 -0.0015
  538TIP3   OH223028   6.161   3.032  13.785  0.0424  0.4116 -0.6205
  538TIP3    H123029   6.197   3.093  13.849 -0.4183 -0.9382  0.9751
  538TIP3    H223030   6.235   2.974  13.763 -0.2023 -0.1142 -0.0820
  539TIP3   OH223031   0.136   2.398   5.546  0.0266 -0.4454 -0.1524
  539TIP3    H123032   0.180   2.483   5.553 -0.0223 -0.4826  0.7094
  539TIP3    H223033   0.169   2.361   5.464  2.2131 -0.8116  0.8109
  540TIP3   OH223034   2.347   3.339  12.028 -0.0157 -0.1383  0.1793
  540TIP3    H123035   2.312   3.423  12.001 -2.1074 -0.7355  0.8310
  540TIP3    H223036   2.282   3.275  11.999 -0.6179 -1.1165  3.2826
  541TIP3   OH223037   2.655   0.566  16.368 -0.1899 -0.3688 -0.2494
  541TIP3    H123038   2.731   0.563  16.425 -0.3772 -0.6831 -0.0144
  541TIP3    H223039   2.613   0.481  16.379 -0.7233 -0.1006 -0.1704
  542TIP3   OH223040   3.947   0.840  15.959 -0.1076  0.2725 -0.4987
  542TIP3    H123041   3.944   0.790  16.040 -2.0044  2.6853  1.0844
  542TIP3    H223042   3.879   0.801  15.904  1.1426 -1.3347 -0.9462
  543TIP3   OH223043   0.403   3.051   4.778  0.9230  0.7794 -0.1025
  543TIP3    H123044   0.345   3.106   4.726 -1.3754  0.4898  1.9493
  543TIP3    H223045   0.421   3.103   4.857  1.0513 -0.2638  0.5812
  544TIP3   OH223046   2.969   4.171  10.950 -0.0808 -0.1882 -0.1521
  544TIP3    H123047   2.886   4.167  10.998  0.3926  3.6541  1.2886
  544TIP3    H223048   3.010   4.086  10.966 -3.2811 -1.8851 -0.1783
  545TIP3   OH223049   4.226   4.857  15.271  0.1783 -0.7510 -0.1053
  545TIP3    H123050   4.131   4.848  15.259 -0.0935  0.2890  1.0981
  545TIP3    H223051   4.250   4.779  15.321 -0.5465  0.3239  2.0160
  546TIP3   OH223052   2.915   3.683  16.554 -0.7386 -0.6772 -0.0842
  546TIP3    H123053   2.978   3.732  16.501  0.2545 -1.5603  0.2401
  546TIP3    H223054   2.843   3.745  16.570  0.0389  0.3495 -0.4764
  547TIP3   OH223055   2.524   4.776  13.473 -0.3971 -0.5335  0.2347
  547TIP3    H123056   2.559   4.757  13.560  2.1835  0.1873 -0.5480
  547TIP3    H223057   2.446   4.828  13.490  0.1329 -0.2767  2.1339
  548TIP3   OH223058   2.430   6.565   0.976 -0.0762  0.6778  0.6226
  548TIP3    H123059   2.352   6.514   0.995  0.0853 -0.0824 -0.6857
  548TIP3    H223060   2.398   6.645   0.934 -0.1215 -0.1481 -0.9878
  549TIP3   OH223061   0.680   6.720  11.333  0.7329 -0.2908  0.2675
  549TIP3    H123062   0.703   6.627  11.330 -0.0734 -0.4855 -0.2135
  549TIP3    H223063   0.585   6.721  11.346  0.8423  0.4780  1.0723
  550TIP3   OH223064   5.971   2.829   4.868 -0.4393 -0.2166  0.3470
  550TIP3    H123065   5.937   2.912   4.904 -0.3779  0.1006 -0.3187
  550TIP3    H223066   5.901   2.795   4.814 -0.9077 -1.1983  1.5142
  551TIP3   OH223067   2.595   0.918  12.173 -0.2882  0.0553  0.2647
  551TIP3    H123068   2.503   0.895  12.173  0.0404 -1.4195 -1.3097
  551TIP3    H223069   2.625   0.901  12.083  1.7937 -0.7731  1.0397
  552TIP3   OH223070   4.825   0.497  15.331 -0.1030 -0.2036  0.0377
  552TIP3    H123071   4.853   0.474  15.242 -0.0504  1.1165 -0.3128
  552TIP3    H223072   4.888   0.453  15.388  1.0418  0.4674 -0.6593
  553TIP3   OH223073   4.595   3.216  15.790  0.4662 -0.0113  0.3244
  553TIP3    H123074   4.685   3.231  15.821  0.2091  0.8182  0.6951
  553TIP3    H223075   4.583   3.281  15.721  0.6824 -1.1728 -0.8551
  554TIP3   OH223076   0.788   3.553  14.525 -0.4487 -0.5695 -0.2596
  554TIP3    H123077   0.696   3.578  14.525 -0.1090  0.7582 -0.5435
  554TIP3    H223078   0.824   3.595  14.447  1.0328  1.4513  1.4247
  555TIP3   OH223079   3.525   5.718   4.520 -0.1331 -0.3305  0.2299
  555TIP3    H123080   3.457   5.781   4.544  0.7265  0.1547  1.4829
  555TIP3    H223081   3.501   5.638   4.568 -0.5586 -0.6037 -0.4173
  556TIP3   OH223082   0.288   3.470  11.860  0.4305  0.2920 -0.2925
  556TIP3    H123083   0.353   3.424  11.914 -1.6079 -1.6467  0.6532
  556TIP3    H223084   0.330   3.554  11.840  2.5402 -0.1620  1.6792
  557TIP3   OH223085   4.816   5.028   2.059 -0.0817  0.3507 -0.3559
  557TIP3    H123086   4.728   5.063   2.073  0.9748  2.4602  1.4385
  557TIP3    H223087   4.872   5.078   2.117  2.1893 -1.6964 -0.6120
  558TIP3   OH223088   5.251   5.083  15.972 -0.1909 -0.0838  0.2622
  558TIP3    H123089   5.212   5.013  15.919 -1.3885 -0.7002  1.8730
  558TIP3    H223090   5.228   5.164  15.925  1.0859 -0.7131 -1.5421
  559TIP3   OH223091   4.118   4.222   5.878 -0.3196 -0.3891 -0.0076
  559TIP3    H123092   4.210   4.224   5.905 -0.2647  0.9056 -0.2247
  559TIP3    H223093   4.110   4.145   5.822  0.6119 -0.5496  0.0746
  560TIP3   OH223094   1.244   5.366   3.130 -0.1093  0.1162  0.1807
  560TIP3    H123095   1.171   5.351   3.069  0.9147  1.5663 -1.4787
  560TIP3    H223096   1.207   5.425   3.196 -1.6852 -2.6557  2.0058
  561TIP3   OH223097   2.046   3.737   4.292  0.1088 -0.1441  0.7678
  561TIP3    H123098   1.989   3.660   4.300 -0.3598  0.1251  0.1023
  561TIP3    H223099   2.132   3.706   4.322 -0.1101 -0.8854  0.6493
  562TIP3   OH223100   5.173   3.109  14.714 -0.7799 -0.4005  0.1999
  562TIP3    H123101   5.253   3.101  14.765 -1.1257 -1.2909  0.6225
  562TIP3    H223102   5.124   3.180  14.755  1.6058  3.2153 -2.5829
  563TIP3   OH223103   4.240   0.217   1.061  0.3794 -0.0873 -0.5340
  563TIP3    H123104   4.317   0.162   1.071  0.1365 -0.3700 -0.1929
  563TIP3    H223105   4.268   0.289   1.004  1.0475  0.1072  0.0373
  564TIP3   OH223106   4.850   4.095  11.147 -0.2015 -0.2915 -0.0094
  564TIP3    H123107   4.814   4.102  11.235 -1.4526 -0.4373 -0.4929
  564TIP3    H223108   4.904   4.016  11.150  0.9754  0.5014  1.0085
  565TIP3   OH223109   0.513   5.925  10.554  0.0575  0.5110  0.3924
  565TIP3    H123110   0.436   5.876  10.529 -0.2092  0.7391  0.7545
  565TIP3    H223111   0.516   5.918  10.650 -0.4645  1.8900  0.5327
  566TIP3   OH223112   4.488   0.968   2.944  0.0962 -0.1778  0.1439
  566TIP3    H123113   4.570   1.001   2.981  0.2006 -2.1654  1.8449
  566TIP3    H223114   4.485   1.007   2.856  1.7228  1.7149  0.8358
  567TIP3   OH223115   5.154   3.706   1.966 -0.4714  0.0811  0.4308
  567TIP3    H123116   5.134   3.714   1.873 -0.3400  1.2940  0.4881
  567TIP3    H223117   5.250   3.707   1.970 -0.3717 -2.4516  0.4137
  568TIP3   OH223118   6.230   6.176  16.715 -0.4367 -0.3820  0.6247
  568TIP3    H123119   6.324   6.191  16.700 -0.5453  0.9334  1.1357
  568TIP3    H223120   6.209   6.101  16.659  0.3004  1.1018 -1.7959
  569TIP3   OH223121   4.430   1.026   1.537  0.0320  0.0789  0.4350
  569TIP3    H123122   4.493   0.959   1.562  0.1197  0.7349  2.1310
  569TIP3    H223123   4.478   1.083   1.477 -0.4547 -2.0521 -2.1684
  570TIP3   OH223124   3.138   6.658   6.488 -0.1974  0.4979 -0.4896
  570TIP3    H123125   3.210   6.597   6.475 -0.2173  0.6832 -1.6729
  570TIP3    H223126   3.059   6.606   6.471 -0.2314  0.7536 -1.1531
  571TIP3   OH223127   6.670   5.718   3.042 -0.3661 -0.1094  0.0449
  571TIP3    H123128   6.660   5.763   3.126 -1.2081  1.8320 -1.0298
  571TIP3    H223129   6.704   5.784   2.982  0.1551 -1.4256 -1.2001
  572TIP3   OH223130   5.869   6.046   3.045  0.6637 -0.4146 -0.1535
  572TIP3    H123131   5.889   6.089   2.962  2.0766  0.2492  0.4944
  572TIP3    H223132   5.790   5.995   3.028  1.1717 -0.6259 -2.0163
  573TIP3   OH223133   5.518   2.955  13.836  0.0844 -0.5295 -0.2052
  573TIP3    H123134   5.608   2.987  13.828  0.8409 -2.9366 -3.0962
  573TIP3    H223135   5.520   2.896  13.911  0.7365 -0.0497  0.1661
  574TIP3   OH223136   6.593   6.696  17.115  0.2519 -0.1422  0.2679
  574TIP3    H123137   6.654   6.661  17.050  0.6840  1.2649 -0.1176
  574TIP3    H223138   6.644   6.759  17.165 -1.1496  2.0381 -0.8959
  575TIP3   OH223139   0.565   3.464   3.204 -0.3223 -0.0293 -0.0555
  575TIP3    H123140   0.578   3.459   3.110 -0.6882  0.5117 -0.1437
  575TIP3    H223141   0.651   3.450   3.242 -0.1504 -0.1163 -0.4795
  576TIP3   OH223142   0.561   5.094   2.351 -0.2890  0.4209  0.2954
  576TIP3    H123143   0.538   5.012   2.395  0.0249  0.8140  1.2215
  576TIP3    H223144   0.484   5.149   2.361 -0.0037  0.7223  0.8907
  577TIP3   OH223145   2.799   0.058  10.892  0.1024 -0.1166 -0.0137
  577TIP3    H123146   2.720   0.006  10.879  0.1668 -0.1806 -0.1525
  577TIP3    H223147   2.856   0.034  10.819 -0.7145  1.7743 -1.3440
  578TIP3   OH223148   3.987   5.063   1.124  0.2342 -0.2018 -0.2573
  578TIP3    H123149   4.012   5.155   1.130  0.3284 -0.1007 -1.8453
  578TIP3    H223150   3.971   5.048   1.031 -1.2144 -1.4338  0.1579
  579TIP3   OH223151   4.171   1.611  11.217  0.2171  0.0149 -0.5163
  579TIP3    H123152   4.197   1.697  11.248 -1.1439  0.8580 -1.6247
  579TIP3    H223153   4.112   1.578  11.284  0.9555 -0.2091  0.0458
  580TIP3   OH223154   6.567   6.520  13.783  0.9418 -0.3222  0.3962
  580TIP3    H123155   6.504   6.479  13.843 -1.6595  0.7560 -1.4428
  580TIP3    H223156   6.582   6.455  13.715 -0.5408  0.4776 -0.7279
  581TIP3   OH223157   0.116   1.610   4.618 -1.1127 -0.0736  0.3111
  581TIP3    H123158   0.043   1.607   4.556 -1.1757 -0.7686  0.4105
  581TIP3    H223159   0.152   1.698   4.610 -1.1616 -0.1397 -0.6736
  582TIP3   OH223160   1.777   1.174  13.591 -0.7622  0.7487 -0.0689
  582TIP3    H123161   1.738   1.118  13.524  0.3866  2.0366 -1.9351
  582TIP3    H223162   1.856   1.209  13.549  0.8179  0.4982  2.5098
  583TIP3   OH223163   4.870   1.606   4.215 -0.1577  0.5009  0.0138
  583TIP3    H123164   4.877   1.536   4.150  0.0539 -0.4066  0.9764
  583TIP3    H223165   4.813   1.569   4.283 -1.2819  1.8280 -0.1454
  584TIP3   OH223166   4.220   4.619  16.398 -0.3062  0.2232  0.2663
  584TIP3    H123167   4.229   4.599  16.305  0.0108  2.0730 -0.1316
  584TIP3    H223168   4.206   4.714  16.401 -0.1666  0.2107  2.1067
  585TIP3   OH223169   3.561   5.463  11.101  0.1471 -0.1123 -0.0452
  585TIP3    H123170   3.470   5.432  11.096  0.3165 -0.5816 -0.2231
  585TIP3    H223171   3.585   5.480  11.010 -0.2171  1.3549  0.1105
  586TIP3   OH223172   4.124   2.487   2.981 -0.0954 -0.2650  0.2268
  586TIP3    H123173   4.147   2.463   2.891  0.2044 -1.1173  0.5179
  586TIP3    H223174   4.063   2.560   2.971  0.1735 -0.1421 -0.6568
  587TIP3   OH223175   0.898   4.873  14.491 -0.4229  0.3705 -0.1786
  587TIP3    H123176   0.832   4.877  14.422 -0.0811  0.8942 -0.4826
  587TIP3    H223177   0.855   4.911  14.568 -0.2923  1.2678 -0.5336
  588TIP3   OH223178   0.517   2.968  12.908  0.4780 -0.0740 -0.2135
  588TIP3    H123179   0.555   2.887  12.940 -1.3138 -0.7280  0.3989
  588TIP3    H223180   0.445   2.940  12.851 -0.5067  1.0585  0.4198
  589TIP3   OH223181   4.199   1.851   2.127 -0.4341  0.2675  0.0444
  589TIP3    H123182   4.112   1.885   2.105 -0.4443 -0.0702 -0.4644
  589TIP3    H223183   4.212   1.778   2.066  1.2481  1.8672 -1.6394
  590TIP3   OH223184   3.442   4.257   1.160  0.2777  0.0645 -0.1381
  590TIP3    H123185   3.504   4.329   1.154 -1.9537  2.0865 -0.9311
  590TIP3    H223186   3.398   4.257   1.074 -2.1006  0.0739  0.9873
  591TIP3   OH223187   3.816   3.355  11.887  0.4954 -0.0858 -0.0565
  591TIP3    H123188   3.837   3.335  11.978  0.2921  0.0580  0.0221
  591TIP3    H223189   3.892   3.325  11.838  0.4748 -0.4430  0.1301
  592TIP3   OH223190   5.544   3.665  15.837  0.1717  0.4724  0.1598
  592TIP3    H123191   5.571   3.580  15.873  2.2868  1.1567  0.2837
  592TIP3    H223192   5.456   3.649  15.803  0.1145 -1.5020  1.0929
  593TIP3   OH223193   5.481   3.285   3.243  0.4581 -0.2965  0.5630
  593TIP3    H123194   5.451   3.306   3.332 -1.7710 -0.4838 -0.0663
  593TIP3    H223195   5.405   3.243   3.203  0.8571  1.2127 -1.9387
  594TIP3   OH223196   3.863   6.552  15.466  0.0586  0.1578  0.1645
  594TIP3    H123197   3.911   6.497  15.404 -1.4902  1.2469 -2.1681
  594TIP3    H223198   3.800   6.493  15.507 -0.6904 -0.1060 -1.3098
  595TIP3   OH223199   4.630   0.271  16.688 -0.6295  0.2286 -0.0627
  595TIP3    H123200   4.567   0.294  16.756 -2.0106  1.1194 -1.5389
  595TIP3    H223201   4.716   0.285  16.728 -1.3782  0.2346  1.6208
  596TIP3   OH223202   0.363   6.008  14.455 -0.7542  0.4313  0.5555
  596TIP3    H123203   0.384   6.087  14.505 -0.0395 -0.1965  1.2840
  596TIP3    H223204   0.420   6.013  14.378  0.0032  0.1703  1.0812
  597TIP3   OH223205   4.163   3.191   5.722  0.1405  0.2634  0.7480
  597TIP3    H123206   4.159   3.130   5.648 -1.8361 -0.3345  1.2873
  597TIP3    H223207   4.239   3.247   5.703 -1.0390  0.9898 -2.4266
  598TIP3   OH223208   1.981   3.497  13.409 -0.0946  0.1486 -1.1367
  598TIP3    H123209   1.977   3.510  13.503  2.6607 -3.3252 -0.3171
  598TIP3    H223210   1.948   3.408  13.396  0.4130  0.2140 -3.3066
  599TIP3   OH223211   1.634   5.777  14.760 -0.1601 -0.3792 -0.1420
  599TIP3    H123212   1.575   5.734  14.698 -0.8604  0.5124 -0.1184
  599TIP3    H223213   1.597   5.756  14.846 -0.8511  0.7182 -0.1499
  600TIP3   OH223214   4.535   2.283  14.474 -0.5808  0.4115 -0.8749
  600TIP3    H123215   4.490   2.338  14.538 -1.5504 -0.3012 -0.9256
  600TIP3    H223216   4.544   2.198  14.517  0.3061  0.4095 -1.0452
  601TIP3   OH223217   4.286   0.380   0.041 -0.5547  0.4718  0.4149
  601TIP3    H123218   4.274   0.362   0.135 -0.1539 -0.8039  0.2421
  601TIP3    H223219   4.297   0.293   0.002 -4.3117  0.6314 -1.3940
  602TIP3   OH223220   2.316   6.688  14.178 -0.1378 -0.2241 -0.2632
  602TIP3    H123221   2.267   6.680  14.260 -1.7001 -1.4559 -1.2646
  602TIP3    H223222   2.253   6.725  14.116  1.0088  0.6516 -0.9330
  603TIP3   OH223223   0.788   6.600  15.001 -0.3247 -0.0167  0.1416
  603TIP3    H123224   0.857   6.548  15.042  1.3106  2.1449  0.3484
  603TIP3    H223225   0.709   6.579  15.050  0.3608 -1.8040  0.5670
  604TIP3   OH223226   2.991   1.666   5.233 -0.6463 -0.3009  0.1992
  604TIP3    H123227   3.072   1.687   5.186 -0.9851  1.4582  0.3310
  604TIP3    H223228   2.998   1.572   5.252  2.8047  0.2648  2.8598
  605TIP3   OH223229   6.507   0.546   0.045 -0.2142 -0.7658  0.1468
  605TIP3    H123230   6.538   0.531   0.135  0.8141  0.5906  0.0416
  605TIP3    H223231   6.420   0.583   0.055  0.1747  0.0491  0.6309
  606TIP3   OH223232   5.391   3.373   1.896 -0.0008 -0.1593  0.2227
  606TIP3    H123233   5.342   3.427   1.834  1.4748  0.6406 -0.2950
  606TIP3    H223234   5.346   3.288   1.895 -1.3741  0.5481 -0.1851
  607TIP3   OH223235   0.918   1.963  16.260 -0.0433 -0.2508 -0.4496
  607TIP3    H123236   0.956   2.036  16.211 -0.1405 -1.0602 -1.7858
  607TIP3    H223237   0.957   1.885  16.220 -2.5330 -1.0832 -1.4324
  608TIP3   OH223238   1.389   1.760  14.951  0.1308  0.2282  0.2187
  608TIP3    H123239   1.396   1.841  14.901 -0.3312  0.1467  0.0207
  608TIP3    H223240   1.462   1.764  15.013 -0.9985  1.7090  1.5405
  609TIP3   OH223241   6.774   1.015   0.976 -0.3515 -0.0889 -0.1611
  609TIP3    H123242   6.751   1.067   0.899  0.9442  0.0683 -0.4709
  609TIP3    H223243   6.693   0.969   0.999 -0.8265  0.0330 -1.4826
  610TIP3   OH223244   6.255   3.944  12.898 -0.0020 -0.3072 -0.3622
  610TIP3    H123245   6.223   3.857  12.876  1.3488 -0.9523  0.1235
  610TIP3    H223246   6.207   3.968  12.977 -1.1901 -0.1050 -1.1107
  611TIP3   OH223247   0.288   5.784   0.023  0.1623 -0.2724 -0.2069
  611TIP3    H123248   0.327   5.837  -0.046  2.1568 -2.7881 -1.1537
  611TIP3    H223249   0.203   5.757  -0.013  0.6474 -0.5549 -1.1777
  612TIP3   OH223250   6.373   3.792  15.005  0.8423 -0.1874 -0.1344
  612TIP3    H123251   6.318   3.857  15.050  0.8058  1.1536 -2.0110
  612TIP3    H223252   6.382   3.721  15.068 -0.4257  0.9500  1.4130
  613TIP3   OH223253   2.984   6.195  11.575  0.5022  0.5698  0.2345
  613TIP3    H123254   2.977   6.100  11.571  0.4980  0.4804  1.6664
  613TIP3    H223255   2.988   6.223  11.484  1.9362 -0.8948 -0.2009
  614TIP3   OH223256   5.882   5.139  16.985  0.3340 -0.0262 -0.6089
  614TIP3    H123257   5.927   5.201  16.928 -0.4150  0.5205 -0.6366
  614TIP3    H223258   5.793   5.133  16.949 -0.1396  0.2895  0.4462
  615TIP3   OH223259   1.892   2.634  15.910  0.3907  0.0989 -0.1259
  615TIP3    H123260   1.830   2.634  15.982 -0.6705 -0.5358 -1.0089
  615TIP3    H223261   1.914   2.542  15.896  3.3684  0.3979  1.6514
  616TIP3   OH223262   4.657   5.188  13.758 -0.0144 -0.4315  0.2637
  616TIP3    H123263   4.713   5.254  13.798 -0.2145 -0.6287  0.8826
  616TIP3    H223264   4.568   5.220  13.771 -0.0565 -0.0536 -0.8331
  617TIP3   OH223265   4.720   3.155   1.878  0.1704  0.0426 -0.2073
  617TIP3    H123266   4.658   3.163   1.805  2.6829 -2.1561 -2.8487
  617TIP3    H223267   4.764   3.072   1.862  0.7787 -0.6435  4.0426
  618TIP3   OH223268   3.318   2.473   3.723  0.4965  0.5501 -0.2464
  618TIP3    H123269   3.296   2.563   3.748  1.8885  0.6042  0.9725
  618TIP3    H223270   3.242   2.422   3.751 -0.2351  1.3080 -0.7793
  619TIP3   OH223271   2.803   2.275   3.131 -0.7075 -0.2445 -0.3439
  619TIP3    H123272   2.843   2.205   3.183  0.0777  0.2629 -0.2455
  619TIP3    H223273   2.846   2.355   3.162 -0.7346  0.1473 -1.2829
  620TIP3   OH223274   5.247   1.201   3.008 -0.3447  0.1907  0.6384
  620TIP3    H123275   5.228   1.155   2.926  1.9147 -0.3629  0.3515
  620TIP3    H223276   5.234   1.135   3.076  0.0729 -0.0519  0.4893
  621TIP3   OH223277   6.121   4.164  10.966  0.3853 -0.1851 -0.1721
  621TIP3    H123278   6.178   4.101  11.011 -0.7343 -0.4591  0.8930
  621TIP3    H223279   6.112   4.128  10.877 -2.1351 -2.9163  1.0160
  622TIP3   OH223280   0.145   6.122  16.945  0.7466 -0.2999 -0.0072
  622TIP3    H123281   0.185   6.132  16.859  1.8109 -4.2126 -0.1728
  622TIP3    H223282   0.051   6.116  16.928  0.7958  0.6228 -0.6451
  623TIP3   OH223283   1.395   4.596   2.556  0.1551 -0.1579  0.4654
  623TIP3    H123284   1.398   4.624   2.648  0.9921 -1.3515  0.8239
  623TIP3    H223285   1.446   4.663   2.510  0.7853 -0.2058  1.0660
  624TIP3   OH223286   5.761   2.613   5.257  0.5639 -0.3860  0.6956
  624TIP3    H123287   5.768   2.564   5.175  0.5872 -0.7740  0.9267
  624TIP3    H223288   5.683   2.577   5.300 -0.1773  0.6698  0.2818
  625TIP3   OH223289   6.204   0.062  12.963  0.1779  0.1888  0.4865
  625TIP3    H123290   6.229   0.033  13.051 -1.8951  2.1028  1.8043
  625TIP3    H223291   6.251   0.144  12.950  0.6829 -0.2197 -0.3314
  626TIP3   OH223292   5.832   3.864  16.709 -0.5487  0.5068 -0.1639
  626TIP3    H123293   5.885   3.814  16.646  1.9427  2.5767  0.1339
  626TIP3    H223294   5.835   3.812  16.789  1.0608  0.5210 -0.1762
  627TIP3   OH223295   2.153   4.857  11.229  0.1423  0.1434 -0.2748
  627TIP3    H123296   2.190   4.882  11.144  2.2702 -2.0896 -0.1086
  627TIP3    H223297   2.077   4.804  11.208 -0.2360  0.8452 -0.7240
  628TIP3   OH223298   1.693   4.506  14.071  0.0553  0.3200  0.4939
  628TIP3    H123299   1.692   4.465  14.157 -0.6344  0.7619  0.7118
  628TIP3    H223300   1.602   4.535  14.057  0.0323 -0.2251 -0.6140
  629TIP3   OH223301   0.498   5.834  16.226  0.1192  0.1988  0.0113
  629TIP3    H123302   0.503   5.924  16.259 -0.0492  0.0585  0.4317
  629TIP3    H223303   0.581   5.821  16.180 -0.3560  0.9598 -1.0996
  630TIP3   OH223304   4.861   5.723   1.854  0.3062 -0.7180 -0.3287
  630TIP3    H123305   4.834   5.750   1.942  0.6751 -0.8388 -0.1747
  630TIP3    H223306   4.866   5.804   1.804 -0.0501 -0.6643 -0.2789
  631TIP3   OH223307   0.361   2.273   3.693 -0.0424 -0.5538 -0.4229
  631TIP3    H123308   0.288   2.319   3.651 -1.3754 -1.3262  0.9505
  631TIP3    H223309   0.328   2.184   3.707  1.1584 -0.9093  0.2568
  632TIP3   OH223310   5.537   1.319  11.574 -0.6885  0.1940  0.1257
  632TIP3    H123311   5.517   1.366  11.654 -1.0574  0.5757 -0.1897
  632TIP3    H223312   5.558   1.230  11.603 -0.4668  0.4230  0.6730
  633TIP3   OH223313   4.143   2.843   4.319  0.1436  0.3497  0.7367
  633TIP3    H123314   4.220   2.899   4.306  0.2561  0.1719  0.6208
  633TIP3    H223315   4.144   2.784   4.243  0.4645 -0.3155  1.2388
  634TIP3   OH223316   6.509   1.858  17.050  0.7295 -0.9244 -0.0908
  634TIP3    H123317   6.571   1.889  16.983  0.2675 -1.8676 -0.9880
  634TIP3    H223318   6.481   1.772  17.018 -0.3253 -0.9225  0.7837
  635TIP3   OH223319   4.566   1.209   1.350  0.2622 -0.5218  0.7300
  635TIP3    H123320   4.505   1.251   1.290  1.0834 -0.2165  0.0985
  635TIP3    H223321   4.613   1.281   1.392 -0.2845 -0.7324  1.7361
  636TIP3   OH223322   2.994   2.187  13.783 -0.0042  0.4977 -0.3459
  636TIP3    H123323   3.055   2.163  13.713  0.2943  0.6816 -0.1552
  636TIP3    H223324   3.030   2.145  13.862 -1.7217 -1.8805 -0.7096
  637TIP3   OH223325   1.384   0.206   5.447  0.3646  0.5619  0.2228
  637TIP3    H123326   1.307   0.149   5.444 -0.6001  1.8573 -1.1982
  637TIP3    H223327   1.441   0.172   5.378  0.8278 -0.0229  0.8733
  638TIP3   OH223328   3.063   5.679  11.982 -0.5799 -0.1143  0.0168
  638TIP3    H123329   3.025   5.752  11.931  0.7447  1.0147  0.5892
  638TIP3    H223330   3.150   5.710  12.006 -0.3236 -1.5610  1.0320
  639TIP3   OH223331   3.641   3.971  16.988 -0.4942 -0.2215  0.6679
  639TIP3    H123332   3.676   3.927  17.065 -0.3144  0.9171  1.2450
  639TIP3    H223333   3.705   3.952  16.919 -0.8215 -1.5100  0.6910
  640TIP3   OH223334   1.384   3.913   4.803 -0.4813  0.0176 -0.3361
  640TIP3    H123335   1.452   3.936   4.866 -0.1233  2.0525 -1.4050
  640TIP3    H223336   1.302   3.916   4.852 -0.0044 -0.6466  0.5226
  641TIP3   OH223337   2.984   0.585  10.912 -0.2588 -0.6035  0.5587
  641TIP3    H123338   2.973   0.558  10.821  0.8781 -0.4300  0.3629
  641TIP3    H223339   3.034   0.666  10.908 -1.6367  0.3305  1.2685
  642TIP3   OH223340   4.171   6.006   2.789  0.0856  0.6176 -0.7118
  642TIP3    H123341   4.143   6.091   2.758  1.3062  1.1127 -0.5344
  642TIP3    H223342   4.208   6.023   2.876 -2.5837 -0.6114  0.7864
  643TIP3   OH223343   2.654   4.859   2.069  0.0757  0.3241  0.0131
  643TIP3    H123344   2.654   4.911   1.989 -0.0701  0.0093 -0.1902
  643TIP3    H223345   2.741   4.820   2.073 -0.1448 -0.2082 -0.3472
  644TIP3   OH223346   5.701   3.969   5.117  0.6306 -0.4068 -0.3360
  644TIP3    H123347   5.627   3.961   5.057  0.5599  0.9662 -0.4611
  644TIP3    H223348   5.661   3.967   5.204  0.1209  2.4620 -0.4033
  645TIP3   OH223349   1.633   2.233  11.200 -0.0377  0.7235 -0.4622
  645TIP3    H123350   1.687   2.250  11.122  0.9802 -0.1897  0.0180
  645TIP3    H223351   1.601   2.144  11.188  1.6007 -0.1213  0.9683
  646TIP3   OH223352   1.346   0.481  11.607 -0.0061  0.8102  0.0643
  646TIP3    H123353   1.310   0.411  11.552  0.5166  0.8301 -0.3182
  646TIP3    H223354   1.420   0.440  11.653  0.0378  0.9960  0.1628
  647TIP3   OH223355   5.348   1.393  14.079 -0.1102  0.2675  0.2804
  647TIP3    H123356   5.300   1.310  14.076 -1.3886  0.9722  0.4779
  647TIP3    H223357   5.327   1.436  13.997  1.0763  0.1293 -0.1082
  648TIP3   OH223358   5.882   0.975  13.289  0.1591 -1.2902 -0.4650
  648TIP3    H123359   5.793   0.981  13.322  0.3332 -1.4249  0.0273
  648TIP3    H223360   5.881   0.899  13.230  0.0956 -1.6444 -0.0056
  649TIP3   OH223361   2.670   3.713   0.788 -0.1336  0.3490 -0.0201
  649TIP3    H123362   2.698   3.622   0.777  0.0024  0.2243  1.2286
  649TIP3    H223363   2.598   3.708   0.852 -1.7272  0.8848 -1.6728
  650TIP3   OH223364   6.609   5.799  12.818  0.0261 -0.3345  0.1896
  650TIP3    H123365   6.522   5.766  12.795 -0.1965  0.6001 -0.3781
  650TIP3    H223366   6.669   5.752  12.761 -0.2864  0.1989 -0.6075
  651TIP3   OH223367   5.560   2.419  13.295  0.4464 -0.0397  0.7721
  651TIP3    H123368   5.529   2.329  13.286 -0.8928  0.4232  0.5526
  651TIP3    H223369   5.513   2.454  13.370  0.4569  0.6850  0.4504
  652TIP3   OH223370   0.059   0.699   3.771 -0.2344  0.1630 -0.6331
  652TIP3    H123371   0.056   0.788   3.808  0.6103  0.1690 -0.5526
  652TIP3    H223372  -0.011   0.652   3.816  0.8161  0.1394  1.0608
  653TIP3   OH223373   5.613   5.562  14.009 -0.1393  0.1297 -0.3151
  653TIP3    H123374   5.700   5.543  13.975  0.1905  1.4709 -0.2767
  653TIP3    H223375   5.553   5.520  13.947  0.5246 -0.7560 -0.3667
  654TIP3   OH223376   4.040   4.738   4.519  0.3048 -0.3743  0.2838
  654TIP3    H123377   4.042   4.652   4.478  0.6009 -0.7588  1.0830
  654TIP3    H223378   3.993   4.793   4.457 -1.2198 -1.4665  0.4146
  655TIP3   OH223379   4.900   5.370  11.319 -0.3440 -0.1610  0.0009
  655TIP3    H123380   4.942   5.366  11.405  1.0886 -1.1388 -0.6981
  655TIP3    H223381   4.955   5.430  11.268 -1.4777  0.8272 -0.1073
  656TIP3   OH223382   4.908   4.868   1.594 -0.0461  0.0197 -0.4558
  656TIP3    H123383   4.863   4.819   1.526 -0.0322  0.4912 -0.8067
  656TIP3    H223384   4.870   4.955   1.590 -1.4024 -0.4136  1.3896
  657TIP3   OH223385   0.330   4.201   5.855 -0.1001 -0.5150  0.2047
  657TIP3    H123386   0.318   4.180   5.763  0.6429 -1.0678  0.2290
  657TIP3    H223387   0.356   4.293   5.856 -1.0082 -0.2403 -0.0646
  658TIP3   OH223388   0.644   5.575  12.720 -0.1645 -0.1748 -0.2839
  658TIP3    H123389   0.732   5.596  12.751 -0.7355  0.8138  0.7111
  658TIP3    H223390   0.614   5.654  12.675 -1.2571  0.2041  1.0517
  659TIP3   OH223391   0.722   5.187  17.170  0.0853  0.2912 -0.0687
  659TIP3    H123392   0.779   5.247  17.218  0.2753  0.5029 -0.5499
  659TIP3    H223393   0.735   5.102  17.213  1.7750  0.0472 -0.9684
  660TIP3   OH223394   2.915   4.263  14.667  0.3425 -0.0955  0.1423
  660TIP3    H123395   2.945   4.340  14.619  0.0741 -0.0418  0.0571
  660TIP3    H223396   2.990   4.237  14.720  0.7593 -0.3805 -0.5766
  661TIP3   OH223397   3.958   3.769  12.701  0.9608  0.0892  0.4478
  661TIP3    H123398   3.973   3.674  12.706 -0.1808 -0.2836 -1.8667
  661TIP3    H223399   3.913   3.790  12.782  1.7813 -1.2123  1.2880
  662TIP3   OH223400   1.255   1.217  13.219  0.0582  0.4373  0.1429
  662TIP3    H123401   1.314   1.257  13.155 -0.1175 -0.2830 -0.4785
  662TIP3    H223402   1.300   1.229  13.303  2.4497 -2.3938 -0.5621
  663TIP3   OH223403   6.758   4.033   2.730 -0.5365  0.2094 -0.1023
  663TIP3    H123404   6.759   4.121   2.768 -4.5445  2.4223 -4.1099
  663TIP3    H223405   6.827   4.035   2.664 -2.1007  1.4622 -1.8253
  664TIP3   OH223406   3.528   3.480  11.234  0.1031  0.4090 -0.3002
  664TIP3    H123407   3.591   3.501  11.303 -0.3164  0.3233  0.1143
  664TIP3    H223408   3.495   3.564  11.204  0.1402  0.4406 -0.2524
  665TIP3   OH223409   2.744   1.902   6.699  0.3618 -0.5913  0.0235
  665TIP3    H123410   2.757   1.973   6.636 -0.5207 -0.5631 -0.1452
  665TIP3    H223411   2.650   1.880   6.692 -0.0731  0.2739  2.2250
  666TIP3   OH223412   2.886   4.156   1.068 -0.7752  0.1708  0.0058
  666TIP3    H123413   2.837   4.078   1.041  1.0494 -0.3849 -1.9243
  666TIP3    H223414   2.848   4.227   1.016 -1.2211  0.2299  0.4086
  667TIP3   OH223415   2.230   4.580  15.689  0.0330  0.2175 -0.2251
  667TIP3    H123416   2.254   4.613  15.776  1.2268  0.4748 -0.6357
  667TIP3    H223417   2.265   4.491  15.687 -0.4161  0.0389 -0.2787
  668TIP3   OH223418   2.470   0.460   1.006  0.0354  0.8232  0.0517
  668TIP3    H123419   2.548   0.461   1.060  0.6369 -1.0860 -0.7043
  668TIP3    H223420   2.398   0.443   1.067  0.7468 -1.6838  0.2842
  669TIP3   OH223421   4.734   4.639  12.487 -0.0575  0.3066 -0.8388
  669TIP3    H123422   4.705   4.683  12.408  2.1476 -0.0587 -1.9544
  669TIP3    H223423   4.723   4.703  12.557  0.2703  1.5494 -1.9026
  670TIP3   OH223424   3.055   4.435  17.071 -0.2513 -0.6258 -0.1421
  670TIP3    H123425   3.127   4.455  17.131 -1.2553  0.0530  0.8788
  670TIP3    H223426   3.063   4.500  17.002  0.4411 -0.9023 -0.3283
  671TIP3   OH223427   1.691   3.123   4.352 -0.4747  0.3814 -0.2499
  671TIP3    H123428   1.705   3.198   4.295 -1.2802  1.3472  0.7891
  671TIP3    H223429   1.610   3.084   4.321  0.6713 -0.9833 -1.7225
  672TIP3   OH223430   3.901   2.310   3.491  0.2083  0.4434  0.0040
  672TIP3    H123431   3.965   2.306   3.420  1.7657  0.1787  1.3892
  672TIP3    H223432   3.879   2.218   3.508  0.0217  0.4968  0.0580
  673TIP3   OH223433   3.227   1.814  11.308  0.2147 -0.5350 -0.2593
  673TIP3    H123434   3.219   1.820  11.403  1.4651  0.7267 -0.1971
  673TIP3    H223435   3.198   1.900  11.277  0.5318 -0.6805 -0.9652
  674TIP3   OH223436   3.764   4.634  14.981 -0.0361 -0.1136 -0.0740
  674TIP3    H123437   3.816   4.610  14.904 -0.4074 -1.1196 -0.0180
  674TIP3    H223438   3.779   4.564  15.044  0.2716  0.7033  0.7929
  675TIP3   OH223439   5.771   1.351  15.929  0.5708 -0.7643 -0.1340
  675TIP3    H123440   5.858   1.328  15.962  0.4450  1.5229  2.0173
  675TIP3    H223441   5.787   1.422  15.867  0.2541 -0.1289  0.4939
  676TIP3   OH223442   0.732   4.319   5.192 -0.0012 -0.1551 -0.3795
  676TIP3    H123443   0.753   4.389   5.130 -0.3141  0.0891 -0.2167
  676TIP3    H223444   0.644   4.342   5.224 -0.9953 -1.6821 -1.8292
  677TIP3   OH223445   2.158   5.275   3.801  0.3250 -0.4943  0.3413
  677TIP3    H123446   2.199   5.356   3.832  2.4043 -1.2152 -0.3576
  677TIP3    H223447   2.119   5.298   3.717  0.4733 -0.0940  0.3810
  678TIP3   OH223448   6.675   6.384   5.523  0.7146  0.4193 -0.4006
  678TIP3    H123449   6.705   6.295   5.541  2.3460  1.0383  0.1357
  678TIP3    H223450   6.582   6.374   5.503  0.4871 -1.2294  1.1469
  679TIP3   OH223451   5.954   0.751   5.582 -0.1598 -0.3442  0.4689
  679TIP3    H123452   5.966   0.794   5.497  1.5081 -0.2401  0.7276
  679TIP3    H223453   6.013   0.676   5.580 -1.8850 -1.7729  0.6338
  680TIP3   OH223454   0.797   0.298  16.796 -0.3537  0.4638  0.2236
  680TIP3    H123455   0.847   0.326  16.719 -1.8076 -2.0427 -1.7919
  680TIP3    H223456   0.708   0.331  16.780 -0.5370  0.4816  1.2007
  681TIP3   OH223457   3.025   2.815   3.072  0.1686 -0.1026  0.4026
  681TIP3    H123458   2.943   2.802   3.120  1.0498 -0.7755  1.7813
  681TIP3    H223459   3.006   2.787   2.983 -1.7810  2.0149  0.0640
  682TIP3   OH223460   2.229   5.827  16.848  0.2511 -0.1354 -0.1305
  682TIP3    H123461   2.173   5.891  16.891  0.9378 -0.3781  1.1738
  682TIP3    H223462   2.312   5.832  16.895  1.5396  0.5587 -2.3204
  683TIP3   OH223463   0.219   2.502  13.810  0.2294 -0.2356 -0.0143
  683TIP3    H123464   0.265   2.499  13.894  0.2212 -1.7547 -0.0394
  683TIP3    H223465   0.128   2.517  13.833  0.4369  0.9512  0.1338
  684TIP3   OH223466   6.020   6.486   0.136 -0.4322 -0.1362  1.1237
  684TIP3    H123467   5.951   6.551   0.151  0.2579  1.0972 -0.6901
  684TIP3    H223468   5.980   6.422   0.077 -0.2743  0.1872  0.6562
  685TIP3   OH223469   3.339   5.113  13.296 -0.1564  0.1714 -0.0062
  685TIP3    H123470   3.353   5.018  13.292 -1.0947  0.0333 -0.2981
  685TIP3    H223471   3.416   5.146  13.343  1.6329 -0.3979 -2.3004
  686TIP3   OH223472   4.669   5.122   4.232 -0.1178 -0.3325  0.4394
  686TIP3    H123473   4.730   5.117   4.159 -1.7529 -2.8569 -0.8757
  686TIP3    H223474   4.622   5.204   4.218 -1.2939 -1.3540 -2.1967
  687TIP3   OH223475   1.823   1.660   2.725 -0.1256  0.2914 -0.1135
  687TIP3    H123476   1.872   1.612   2.659  0.3200 -0.2366  0.5924
  687TIP3    H223477   1.837   1.752   2.703  1.5388  0.1692  0.3094
  688TIP3   OH223478   0.174   3.111  16.433 -0.5005  0.2096 -0.7792
  688TIP3    H123479   0.247   3.055  16.460  1.3643  2.5285 -0.7905
  688TIP3    H223480   0.211   3.169  16.366 -2.0249  2.2270  0.0417
  689TIP3   OH223481   3.235   3.811   3.311 -0.2109  0.3833 -0.0093
  689TIP3    H123482   3.206   3.902   3.313  0.4012  0.6042 -0.8045
  689TIP3    H223483   3.314   3.812   3.257  0.2383 -0.4968  0.6113
  690TIP3   OH223484   0.543   5.937  14.764 -0.0791 -0.0765  0.1612
  690TIP3    H123485   0.575   5.853  14.729  0.6888  0.2680  0.0047
  690TIP3    H223486   0.606   6.001  14.731 -0.1044  0.4331  1.0874
  691TIP3   OH223487   1.759   6.295  14.238  0.2354 -0.0313  0.4464
  691TIP3    H123488   1.764   6.242  14.159 -1.0602 -0.2217  0.4750
  691TIP3    H223489   1.797   6.240  14.307  1.9136  0.3552 -0.1133
  692TIP3   OH223490   4.535   2.696  14.020 -0.2721 -0.3664 -0.2425
  692TIP3    H123491   4.447   2.677  13.987 -1.3988  2.1401  1.0521
  692TIP3    H223492   4.532   2.672  14.112 -0.2045  1.2448  0.2196
  693TIP3   OH223493   0.419   2.998   0.877 -0.4684 -0.0312  0.0164
  693TIP3    H123494   0.361   3.004   0.801  0.0684 -3.7430 -0.8503
  693TIP3    H223495   0.382   2.929   0.930  1.1083  0.1177  1.3776
  694TIP3   OH223496   0.577   1.609   4.417 -0.1921 -0.6859 -0.5881
  694TIP3    H123497   0.658   1.606   4.467 -1.5561  0.7655  1.9588
  694TIP3    H223498   0.509   1.588   4.481 -2.0520  1.1710 -1.8155
  695TIP3   OH223499   2.805   3.124   3.107 -0.4736 -0.0941  0.7186
  695TIP3    H123500   2.826   3.113   3.014 -0.8790 -2.0474  0.8250
  695TIP3    H223501   2.885   3.162   3.145  0.2838 -0.7728 -0.1438
  696TIP3   OH223502   4.612   4.351  12.971  0.1242  0.0854  0.2852
  696TIP3    H123503   4.689   4.394  13.010 -0.8939  1.4047  0.8977
  696TIP3    H223504   4.583   4.289  13.038 -0.3088  0.7668  0.7353
  697TIP3   OH223505   1.916   4.320  11.555 -0.2275 -0.1615  0.7803
  697TIP3    H123506   1.887   4.270  11.631  0.1588 -0.9492  0.4131
  697TIP3    H223507   2.010   4.303  11.550  0.1891  1.6759  1.4506
  698TIP3   OH223508   0.565   1.880  12.300 -0.6428  0.2238  0.5398
  698TIP3    H123509   0.584   1.950  12.237  1.0036  0.2447  1.0033
  698TIP3    H223510   0.481   1.904  12.338  0.0930  2.2279  1.0251
  699TIP3   OH223511   0.903   1.573   3.122  0.4274 -0.3145 -0.2377
  699TIP3    H123512   0.899   1.557   3.028 -1.3075  1.8387 -0.6139
  699TIP3    H223513   0.925   1.666   3.130 -0.1332 -0.2887  1.4598
  700TIP3   OH223514   6.391   5.088  15.040 -0.1471  1.1019 -0.2647
  700TIP3    H123515   6.425   5.123  15.122  0.3968  1.5881 -0.6843
  700TIP3    H223516   6.310   5.136  15.025  0.4090  1.9693 -0.6489
  701TIP3   OH223517   4.929   5.500  16.607 -0.7429 -0.2928  0.1107
  701TIP3    H123518   4.920   5.460  16.520 -0.6134 -0.3400  0.1199
  701TIP3    H223519   5.005   5.457  16.646  0.0429  0.7130 -0.2857
  702TIP3   OH223520   4.536   3.309  14.724  0.2318  0.1073  0.3140
  702TIP3    H123521   4.472   3.271  14.665  1.2050  0.9841 -1.3646
  702TIP3    H223522   4.507   3.281  14.811 -1.2305 -1.2310 -0.5420
  703TIP3   OH223523   1.305   2.196   3.039  0.0089 -0.0203 -0.7976
  703TIP3    H123524   1.392   2.157   3.029 -0.3332 -1.5044  1.3745
  703TIP3    H223525   1.245   2.130   3.004 -0.3758  0.1586 -0.4837
  704TIP3   OH223526   6.454   0.436   0.668  0.2248 -0.3540  0.3028
  704TIP3    H123527   6.452   0.366   0.603  1.0380 -0.5745  0.5077
  704TIP3    H223528   6.395   0.502   0.634  0.0373 -0.8126 -0.2708
  705TIP3   OH223529   1.030   4.522  13.746  1.0677  0.1905 -0.0845
  705TIP3    H123530   1.032   4.498  13.653 -0.9844  0.4437 -0.2255
  705TIP3    H223531   1.078   4.451  13.789  1.4329 -0.3084 -1.2577
  706TIP3   OH223532   3.993   4.182  13.276  0.2969 -0.2686 -0.2181
  706TIP3    H123533   4.025   4.247  13.339  1.7662 -0.7265 -0.4431
  706TIP3    H223534   4.047   4.196  13.198 -0.1467 -1.0052 -0.6659
  707TIP3   OH223535   4.679   5.713   0.558 -0.0597 -0.1500  0.4539
  707TIP3    H123536   4.602   5.725   0.503 -0.4937 -0.1469  1.0525
  707TIP3    H223537   4.674   5.785   0.622 -0.5270 -1.1693  1.5978
  708TIP3   OH223538   3.973   0.983  16.671 -0.3413 -0.6413 -0.3234
  708TIP3    H123539   4.045   0.965  16.610  0.4498  1.9758 -0.3128
  708TIP3    H223540   4.016   0.995  16.755 -1.3041 -3.0510  0.5883
  709TIP3   OH223541   5.241   2.134   5.490  0.7921  0.4085 -0.0571
  709TIP3    H123542   5.241   2.124   5.395 -0.1242  0.7502 -0.1075
  709TIP3    H223543   5.233   2.044   5.523 -0.5741  0.3983 -0.3549
  710TIP3   OH223544   3.074   6.731  12.884  0.3590 -0.8337  0.3953
  710TIP3    H123545   3.109   6.794  12.948  0.9538 -2.3196  1.6035
  710TIP3    H223546   3.111   6.758  12.800 -0.8061  1.4555  0.5488
  711TIP3   OH223547   6.451   4.549   5.229  0.4625  0.3641  0.1657
  711TIP3    H123548   6.436   4.594   5.146 -2.4643  0.5840  0.6718
  711TIP3    H223549   6.376   4.489   5.238  0.1540  1.0047  3.0041
  712TIP3   OH223550   5.252   4.928  16.522  0.8470  0.6434 -0.4282
  712TIP3    H123551   5.338   4.888  16.534 -0.3471 -1.6900  1.1178
  712TIP3    H223552   5.210   4.876  16.453 -0.5648 -0.6542  1.2969
  713TIP3   OH223553   6.134   0.422  15.059 -0.6413 -0.1220 -0.0447
  713TIP3    H123554   6.213   0.441  15.007 -2.0377  0.7834 -1.9691
  713TIP3    H223555   6.153   0.459  15.145  0.7471  0.7837 -0.6963
  714TIP3   OH223556   5.169   1.194   3.390  0.0997 -0.1178  0.5773
  714TIP3    H123557   5.165   1.099   3.378  0.0264  0.0571 -1.0229
  714TIP3    H223558   5.262   1.214   3.398  0.0709 -0.3980  1.8233
  715TIP3   OH223559   5.592   0.327   1.630  0.1011 -0.5331  0.6676
  715TIP3    H123560   5.540   0.307   1.708 -0.9095  0.5509  0.2955
  715TIP3    H223561   5.532   0.314   1.557  1.6818 -3.9792 -0.2228
  716TIP3   OH223562   3.723   4.142   2.075 -0.6495 -0.2905 -0.4152
  716TIP3    H123563   3.818   4.129   2.066 -0.6469 -1.4669  0.9833
  716TIP3    H223564   3.686   4.054   2.072 -1.5600  0.0530  0.3724
  717TIP3   OH223565   4.397   2.269   5.933 -0.0907 -0.1465 -0.0546
  717TIP3    H123566   4.452   2.192   5.920  0.0374 -0.0050 -0.3774
  717TIP3    H223567   4.310   2.242   5.904  0.4460  0.5442 -2.5522
  718TIP3   OH223568   6.726   1.014   1.569  0.2577  0.5599  0.0291
  718TIP3    H123569   6.695   1.099   1.602 -3.4699 -0.4630 -0.4646
  718TIP3    H223570   6.785   1.037   1.497 -2.9110  2.9001 -2.1006
  719TIP3   OH223571   6.136   3.325  11.990  0.5597  0.6341  0.0813
  719TIP3    H123572   6.219   3.298  11.951  0.1318 -0.0770 -0.3615
  719TIP3    H223573   6.136   3.283  12.076  1.0324  1.3403  0.4378
  720TIP3   OH223574   1.361   3.952  13.260 -0.6677  0.3229 -0.0225
  720TIP3    H123575   1.325   3.867  13.234 -0.9225 -0.5737  2.8881
  720TIP3    H223576   1.306   4.016  13.215 -1.4054 -1.0185 -1.1200
  721TIP3   OH223577   2.721   1.271   3.268 -0.6261 -0.0057 -0.4804
  721TIP3    H123578   2.664   1.214   3.321 -0.7666  0.1671 -0.4478
  721TIP3    H223579   2.722   1.354   3.315  0.4331 -0.3008  0.0480
  722TIP3   OH223580   6.107   3.085  15.002 -0.3063 -0.1989  0.2874
  722TIP3    H123581   6.183   3.084  14.943 -1.2813 -0.3676 -1.0180
  722TIP3    H223582   6.118   3.007  15.057  0.6618 -0.0001  0.3904
  723TIP3   OH223583   2.660   1.900   4.194  0.0040 -0.5390 -0.3105
  723TIP3    H123584   2.568   1.878   4.207  0.4140 -1.0693  2.4178
  723TIP3    H223585   2.704   1.815   4.184  0.2908 -0.3232 -0.9420
  724TIP3   OH223586   3.052   3.033   0.296  0.7268 -0.6101 -0.1756
  724TIP3    H123587   3.064   2.953   0.347  0.4892 -1.1663 -0.9795
  724TIP3    H223588   3.118   3.028   0.227  0.8730  0.0139 -0.0917
  725TIP3   OH223589   5.168   6.412  11.552  0.5382  0.3952 -0.6314
  725TIP3    H123590   5.150   6.357  11.475  1.2844 -0.4268 -0.2518
  725TIP3    H223591   5.261   6.395  11.571 -0.3029 -1.7911  2.2331
  726TIP3   OH223592   2.495   0.362  12.947 -0.6868  0.3511  0.2909
  726TIP3    H123593   2.458   0.277  12.924 -0.0787  0.1384  0.0782
  726TIP3    H223594   2.566   0.342  13.008 -1.9630  0.8735  1.9983
  727TIP3   OH223595   4.798   4.705  13.940 -0.7485 -0.2796  0.4785
  727TIP3    H123596   4.797   4.668  14.029  1.7508 -2.2285 -0.1695
  727TIP3    H223597   4.824   4.796  13.952  1.5008 -0.9986  1.7303
  728TIP3   OH223598   4.855   2.872   1.837 -0.3481  0.5750  0.8032
  728TIP3    H123599   4.822   2.795   1.791  1.2932  0.0325  0.4353
  728TIP3    H223600   4.896   2.836   1.916 -2.8807  1.4635  2.6587
  729TIP3   OH223601   2.337   6.810   0.875 -0.3937  0.6400  0.4885
  729TIP3    H123602   2.344   6.905   0.869  1.7182  0.4755 -0.7075
  729TIP3    H223603   2.287   6.785   0.797 -1.5289  0.7706  1.1453
  730TIP3   OH223604   1.386   4.429  12.633 -0.3536  0.0406  0.2852
  730TIP3    H123605   1.409   4.521  12.649  0.2624 -0.0961  0.2151
  730TIP3    H223606   1.379   4.422  12.538 -1.6677  0.3009  0.3397
  731TIP3   OH223607   2.766   6.396   0.120 -0.1905 -0.2247  0.0577
  731TIP3    H123608   2.803   6.308   0.126 -1.7782 -1.1252 -1.9935
  731TIP3    H223609   2.824   6.442   0.060 -0.0307 -0.2681  0.1781
  732TIP3   OH223610   4.677   3.095  15.024 -0.6247 -0.2987 -0.2314
  732TIP3    H123611   4.744   3.107  14.956  1.3319  1.0284  1.7909
  732TIP3    H223612   4.690   3.006  15.056  0.6148  0.1172  0.5045
  733TIP3   OH223613   5.899   2.789  17.041  0.4254 -0.2264  0.1031
  733TIP3    H123614   5.868   2.701  17.062 -2.6361  0.3217 -1.5086
  733TIP3    H223615   5.941   2.780  16.955  0.3200 -0.1620  0.0439
  734TIP3   OH223616   0.730   0.583  10.446  0.2557  0.3786 -0.1127
  734TIP3    H123617   0.717   0.677  10.458  1.8969  0.6677 -0.2882
  734TIP3    H223618   0.761   0.552  10.531 -3.4159 -0.7099  0.9953
  735TIP3   OH223619   4.795   1.386  15.338 -0.0399 -0.0591 -0.1822
  735TIP3    H123620   4.721   1.337  15.371 -0.7912  1.4310  0.4258
  735TIP3    H223621   4.792   1.470  15.384  1.2775  0.5230 -1.0686
  736TIP3   OH223622   3.045   0.376   3.466 -0.3539  0.2864 -1.1594
  736TIP3    H123623   2.986   0.301   3.476 -0.1713 -0.1050 -2.8067
  736TIP3    H223624   3.003   0.431   3.400 -0.6090  1.8104  0.1761
  737TIP3   OH223625   1.601   0.672   5.269  0.1591 -0.3036  0.0939
  737TIP3    H123626   1.508   0.657   5.284 -0.5496  1.6152 -1.8615
  737TIP3    H223627   1.633   0.591   5.230 -0.5205 -1.1944  1.3200
  738TIP3   OH223628   5.215   5.374   1.205  0.1114 -1.1077  0.0711
  738TIP3    H123629   5.232   5.468   1.192  1.6884 -0.8809  3.0158
  738TIP3    H223630   5.124   5.363   1.178 -0.6579  1.6493  1.1360
  739TIP3   OH223631   6.623   4.629  14.447  0.0955 -0.3590  0.2226
  739TIP3    H123632   6.546   4.668  14.406 -0.7913 -1.2862  0.9836
  739TIP3    H223633   6.697   4.666  14.398 -0.7360  1.6069  0.3612
  740TIP3   OH223634   3.076   3.647  17.143  0.0833  0.0986 -0.6790
  740TIP3    H123635   3.046   3.629  17.054  0.5882 -0.3748 -0.7627
  740TIP3    H223636   3.026   3.587  17.198  0.4508 -0.2904 -0.7574
  741TIP3   OH223637   3.817   6.153  15.170 -0.0557 -0.4258  0.5431
  741TIP3    H123638   3.906   6.182  15.148 -0.5172  0.6453  0.0076
  741TIP3    H223639   3.782   6.119  15.088 -0.4083 -0.1194  0.5633
  742TIP3   OH223640   2.828   5.855  11.924 -0.9894  0.2960  0.4311
  742TIP3    H123641   2.808   5.885  12.013 -1.4683 -0.4466  0.5837
  742TIP3    H223642   2.772   5.778  11.912  2.0764 -2.2098  1.0269
  743TIP3   OH223643   5.409   3.100   1.802 -0.0210 -0.2551  0.4571
  743TIP3    H123644   5.393   3.051   1.883 -0.9215 -1.1728 -0.2498
  743TIP3    H223645   5.504   3.095   1.790  0.3993  1.5123  2.4129
  744TIP3   OH223646   4.834   5.952   2.562 -0.3401 -0.4606 -0.1767
  744TIP3    H123647   4.758   5.936   2.618  0.9042 -0.9365  1.4516
  744TIP3    H223648   4.866   6.038   2.589 -0.9753  0.3004 -1.7186
  745TIP3   OH223649   5.865   3.842  13.021 -0.2335 -0.1103 -0.2263
  745TIP3    H123650   5.862   3.936  13.035 -1.6506 -0.3958  1.6890
  745TIP3    H223651   5.791   3.823  12.964 -1.9620 -0.4041  2.0115
  746TIP3   OH223652   3.551   5.244   3.660 -0.0091  0.2140  0.4308
  746TIP3    H123653   3.611   5.237   3.734 -0.7327 -0.7803  0.9331
  746TIP3    H223654   3.600   5.295   3.594  2.9148 -3.6277 -0.7172
  747TIP3   OH223655   5.286   5.277   6.441  0.0197  0.5106 -0.1549
  747TIP3    H123656   5.368   5.259   6.396  0.8369  1.7303  0.8023
  747TIP3    H223657   5.288   5.371   6.458 -0.7812  0.2743  1.4044
  748TIP3   OH223658   3.129   6.162  11.934 -0.0893  0.0729  0.5457
  748TIP3    H123659   3.041   6.197  11.919 -0.3620 -1.0493 -0.7207
  748TIP3    H223660   3.115   6.086  11.990 -0.3759 -1.9147 -2.0351
  749TIP3   OH223661   3.607   3.590   0.175  0.2913  0.4066  0.2111
  749TIP3    H123662   3.632   3.511   0.128  0.5933  1.0693 -0.7619
  749TIP3    H223663   3.529   3.564   0.225  0.9603 -0.7635  0.6887
  750TIP3   OH223664   3.558   4.973   3.179  0.6924 -0.1471 -0.0980
  750TIP3    H123665   3.601   5.016   3.253 -0.3014  0.4634  0.1455
  750TIP3    H223666   3.465   4.985   3.195  0.4471 -0.3949 -1.2284
  751TIP3   OH223667   5.560   1.393  12.148 -0.0270  0.1483 -0.2354
  751TIP3    H123668   5.478   1.387  12.098 -0.1477 -0.7054  0.0523
  751TIP3    H223669   5.541   1.457  12.217 -0.2133  0.5012 -0.6111
  752TIP3   OH223670   0.172   0.664  11.778  0.1164 -0.2579  0.1052
  752TIP3    H123671   0.081   0.689  11.794  0.2799  0.2826  0.2019
  752TIP3    H223672   0.207   0.644  11.865  0.3348  0.3949  0.1769
  753TIP3   OH223673   4.047   3.398   3.936  0.0167  0.1236 -0.0720
  753TIP3    H123674   4.118   3.343   3.969  1.5566  0.9676 -1.7634
  753TIP3    H223675   4.027   3.458   4.007  1.0777 -0.0775  0.4143
  754TIP3   OH223676   0.787   0.543  10.982  0.5691 -0.1316  0.5350
  754TIP3    H123677   0.864   0.599  10.975  0.9780 -0.6318  0.9378
  754TIP3    H223678   0.819   0.455  10.963 -0.0191 -0.2721  0.1481
  755TIP3   OH223679   1.376   2.467  16.457  0.1960 -0.7430  0.8857
  755TIP3    H123680   1.375   2.480  16.362  1.3275 -1.9339  0.6796
  755TIP3    H223681   1.438   2.534  16.489 -0.7966  0.1969  0.9062
  756TIP3   OH223682   6.556   1.839  16.506 -0.0970  0.4556  0.3250
  756TIP3    H123683   6.603   1.888  16.439 -0.7464  1.4410  0.5613
  756TIP3    H223684   6.573   1.887  16.587 -1.4175  0.8183  0.4245
  757TIP3   OH223685   3.849   2.943  15.649  0.5652  0.4715 -0.6487
  757TIP3    H123686   3.883   2.951  15.738 -0.5825  1.3635 -0.2624
  757TIP3    H223687   3.922   2.908  15.598  1.7776  1.5396  0.3021
  758TIP3   OH223688   6.710   1.351  15.559  0.1370 -0.3760  0.1024
  758TIP3    H123689   6.615   1.361  15.568  0.2111  0.6601 -0.1840
  758TIP3    H223690   6.738   1.316  15.644 -0.1608  2.0434  1.2876
  759TIP3   OH223691   2.194   2.043  12.712  0.7493  0.2643  0.1555
  759TIP3    H123692   2.214   1.979  12.643 -0.8053  0.2338 -0.3030
  759TIP3    H223693   2.137   2.107  12.670 -1.1171 -0.3209  1.6133
  760TIP3   OH223694   3.126   3.016  14.448  0.2520 -0.2656  0.2702
  760TIP3    H123695   3.205   2.962  14.437  0.0077 -0.5470 -0.1406
  760TIP3    H223696   3.072   2.968  14.510  0.3347 -0.1482  0.4348
  761TIP3   OH223697   2.013   4.570  15.411  0.3394  0.5922 -0.0482
  761TIP3    H123698   1.971   4.598  15.492  0.4681  0.2043  0.1572
  761TIP3    H223699   2.089   4.518  15.440  0.2807  0.2972 -0.4124
  762TIP3   OH223700   3.951   3.876  16.604  0.2942 -0.0070 -0.0177
  762TIP3    H123701   3.901   3.826  16.540 -0.6646  0.2311  0.5323
  762TIP3    H223702   4.018   3.921  16.552 -0.6829  0.4651 -0.8920
  763TIP3   OH223703   2.215   6.439   1.090  0.3965 -0.2850 -0.0621
  763TIP3    H123704   2.271   6.395   1.154 -0.5339 -0.2638  0.7846
  763TIP3    H223705   2.137   6.463   1.139  0.3252  1.1561 -0.8193
  764TIP3   OH223706   2.327   2.162  15.932 -0.2238 -0.1232  0.4856
  764TIP3    H123707   2.375   2.079  15.931 -0.0798 -0.0581 -1.0920
  764TIP3    H223708   2.240   2.139  15.966  0.2305 -0.6537  1.3201
  765TIP3   OH223709   2.161   5.628   1.096  0.4799  0.4121  0.7868
  765TIP3    H123710   2.191   5.673   1.017 -0.9744 -0.1390 -0.1125
  765TIP3    H223711   2.186   5.537   1.082 -2.3997 -0.2959 -0.5091
  766TIP3   OH223712   0.511   5.227   3.369  0.0073 -0.1045  0.5749
  766TIP3    H123713   0.547   5.214   3.457 -0.0979  0.6556  0.7387
  766TIP3    H223714   0.555   5.161   3.316  1.0121  0.2382  0.9468
  767TIP3   OH223715   4.425   4.513  12.872  0.2849  0.8470  0.3736
  767TIP3    H123716   4.501   4.473  12.915 -0.5375 -1.5551 -0.2783
  767TIP3    H223717   4.433   4.486  12.780 -2.4553 -1.4065  0.6703
  768TIP3   OH223718   0.274   2.354   6.283  0.5528 -0.7562 -0.2192
  768TIP3    H123719   0.358   2.343   6.329  0.2437 -1.1353  0.2705
  768TIP3    H223720   0.298   2.389   6.197  1.1576 -0.1494  0.1862
  769TIP3   OH223721   3.125   4.813  17.148  0.2199  0.1942  0.6138
  769TIP3    H123722   3.135   4.754  17.073 -1.6581 -0.1075  0.5623
  769TIP3    H223723   3.208   4.806  17.196  0.4983 -1.5156 -0.0711
  770TIP3   OH223724   3.077   6.591   3.491 -0.0056  0.1420 -0.1747
  770TIP3    H123725   3.171   6.573   3.490  0.1457  0.8345  0.3951
  770TIP3    H223726   3.071   6.686   3.486 -0.6794  0.0970 -0.2730
  771TIP3   OH223727   1.936   5.941  14.667  0.6888 -0.1778 -0.7571
  771TIP3    H123728   2.000   6.007  14.697  0.1400  0.5408 -1.1295
  771TIP3    H223729   1.989   5.876  14.621  1.3416 -0.4402  0.3258
  772TIP3   OH223730   5.657   6.076   0.019  0.2496 -0.6610  0.5166
  772TIP3    H123731   5.587   6.070  -0.046 -0.6298  0.1590  1.3550
  772TIP3    H223732   5.678   6.169   0.023 -0.6193 -0.4937  2.2861
  773TIP3   OH223733   4.820   5.669   1.470 -0.0591  0.3035 -0.5411
  773TIP3    H123734   4.827   5.645   1.563 -0.6252  2.2199  0.0419
  773TIP3    H223735   4.898   5.631   1.430 -0.1633 -1.1772  0.5622
  774TIP3   OH223736   6.217   4.278   4.321  0.2803  0.7118 -0.2662
  774TIP3    H123737   6.158   4.210   4.289  0.6776 -0.2552  1.0078
  774TIP3    H223738   6.293   4.273   4.262  1.0989 -1.1996  0.8686
  775TIP3   OH223739   4.146   1.766   4.319  0.2362  0.2752 -0.0468
  775TIP3    H123740   4.168   1.820   4.395  1.1553 -0.8047  0.4883
  775TIP3    H223741   4.076   1.709   4.350 -0.6586  1.0454 -0.5806
  776TIP3   OH223742   2.105   1.386  14.150 -0.8415  0.2432 -0.1064
  776TIP3    H123743   2.041   1.331  14.104 -0.6021 -0.5618  0.5039
  776TIP3    H223744   2.098   1.360  14.241  0.9802 -0.5031 -0.1523
  777TIP3   OH223745   0.635   5.001   4.462  0.4165 -0.3639  0.1705
  777TIP3    H123746   0.562   4.961   4.415 -0.2807  0.4702  0.4993
  777TIP3    H223747   0.674   5.062   4.398 -0.5821  0.8303  0.6583
  778TIP3   OH223748   2.327   0.541   0.161  0.0018  0.0813 -0.4084
  778TIP3    H123749   2.422   0.544   0.174  0.0590  0.9779 -0.9815
  778TIP3    H223750   2.315   0.492   0.080  0.0384  0.7734 -0.8437
  779TIP3   OH223751   5.492   3.194  11.511  0.1980 -0.5164  0.8296
  779TIP3    H123752   5.503   3.100  11.519  2.8024 -0.2909  0.5724
  779TIP3    H223753   5.504   3.228  11.599 -0.7103 -0.3912  0.9178
  780TIP3   OH223754   5.115   1.248   0.067  0.2954  0.8623  0.1508
  780TIP3    H123755   5.111   1.248   0.162  1.2278 -2.3962  0.3156
  780TIP3    H223756   5.082   1.162   0.041 -1.9004  2.3543 -2.6752
  781TIP3   OH223757   0.566   1.149  11.197  0.9446  0.1528  0.9898
  781TIP3    H123758   0.474   1.157  11.224  0.8277  1.2921  0.2891
  781TIP3    H223759   0.568   1.067  11.147 -0.2070  1.2393 -0.9450
  782TIP3   OH223760   6.578   0.558  15.006 -0.3825 -0.2398  0.1666
  782TIP3    H123761   6.505   0.501  14.984  0.0293 -0.1667 -1.5295
  782TIP3    H223762   6.639   0.548  14.933 -0.1170  2.0479  0.0147
  783TIP3   OH223763   6.397   0.070  16.017 -0.3490 -0.1983  0.2666
  783TIP3    H123764   6.327   0.042  15.957  0.2703 -1.2814  0.0203
  783TIP3    H223765   6.447   0.135  15.967 -0.3863 -0.4144 -0.0523
  784TIP3   OH223766   1.633   6.746   2.592  0.0358  0.4048  0.1874
  784TIP3    H123767   1.696   6.679   2.566 -0.1302  0.2664  0.1417
  784TIP3    H223768   1.686   6.813   2.634  0.2962  0.6035 -0.4512
  785TIP3   OH223769   2.472   1.687  14.815  0.0158 -0.5913  0.1772
  785TIP3    H123770   2.550   1.707  14.763 -0.2546  0.4461  0.1511
  785TIP3    H223771   2.494   1.718  14.903 -0.6378  0.4249  0.0013
  786TIP3   OH223772   3.065   6.196   2.403 -0.1064 -0.2831  0.0037
  786TIP3    H123773   3.084   6.238   2.487  1.8050 -0.9037 -0.0679
  786TIP3    H223774   3.066   6.268   2.340  1.6088 -0.1814  0.0993
  787TIP3   OH223775   1.202   3.066  13.095  0.1334  0.3795 -0.4080
  787TIP3    H123776   1.283   3.081  13.144  1.3422  1.1286 -2.5323
  787TIP3    H223777   1.227   3.006  13.025 -1.2733  0.2313 -0.8094
  788TIP3   OH223778   1.064   3.017   2.668  0.4700  0.0716  0.1884
  788TIP3    H123779   1.070   3.053   2.579  1.0942 -2.4598 -0.8770
  788TIP3    H223780   1.008   3.079   2.714  0.2737  1.5846 -1.9031
  789TIP3   OH223781   6.484   4.634  12.685  0.2654  0.0193  0.9190
  789TIP3    H123782   6.487   4.720  12.727 -2.6075  0.1832  0.9573
  789TIP3    H223783   6.443   4.577  12.749 -0.1271 -0.7856 -0.0202
  790TIP3   OH223784   5.232   1.093  16.605  0.1954 -0.2558 -0.0518
  790TIP3    H123785   5.144   1.106  16.570 -1.2593 -1.8162  2.6920
  790TIP3    H223786   5.251   1.175  16.652  0.5652  0.3731 -1.2618
  791TIP3   OH223787   3.360   1.666  14.418 -0.5693  0.2339  0.4899
  791TIP3    H123788   3.420   1.694  14.348 -1.2492 -1.0215 -0.6471
  791TIP3    H223789   3.313   1.746  14.442 -0.6930  0.6028 -0.8869
  792TIP3   OH223790   3.898   0.823   0.683  0.0874 -0.0104  0.2254
  792TIP3    H123791   3.828   0.881   0.715 -0.6585  0.4380 -1.9988
  792TIP3    H223792   3.859   0.780   0.607  2.3717  0.5720 -1.3424
  793TIP3   OH223793   6.444   3.427  16.346 -0.2993 -0.1001  0.3323
  793TIP3    H123794   6.514   3.485  16.315  0.4791 -2.4352 -2.7804
  793TIP3    H223795   6.488   3.365  16.404 -0.9120  1.5161  2.6721
  794TIP3   OH223796   2.549   2.286  15.369 -0.0979  0.4155 -0.0105
  794TIP3    H123797   2.556   2.275  15.464 -0.2137 -1.3652 -0.1713
  794TIP3    H223798   2.455   2.290  15.353 -0.1399 -0.8574 -0.1741
  795TIP3   OH223799   2.402   0.604   5.934  0.2935  0.3766  0.6998
  795TIP3    H123800   2.381   0.561   6.016  0.6748  0.9091  1.0821
  795TIP3    H223801   2.497   0.596   5.926  0.6189  2.5819  1.6258
  796TIP3   OH223802   4.004   3.699   0.333  0.0450 -0.0936  0.2670
  796TIP3    H123803   3.986   3.624   0.276 -0.0551 -0.3604  0.6462
  796TIP3    H223804   4.099   3.702   0.339  0.0670  0.0661 -0.0773
  797TIP3   OH223805   2.204   1.745   4.543  0.0146 -0.5853 -0.2556
  797TIP3    H123806   2.117   1.756   4.505  0.6308  1.2192 -1.2829
  797TIP3    H223807   2.193   1.677   4.609 -1.9106 -1.2214 -1.1521
  798TIP3   OH223808   5.859   0.986  15.013 -0.3276  0.4478  0.1848
  798TIP3    H123809   5.826   1.029  15.091 -0.9246 -0.4944  0.4610
  798TIP3    H223810   5.943   0.948  15.040 -0.1321  0.8374  0.1306
  799TIP3   OH223811   0.949   2.377  13.074 -0.0974  1.4523 -0.6484
  799TIP3    H123812   0.935   2.430  13.153  0.7833 -0.2256  0.7066
  799TIP3    H223813   1.038   2.343  13.084 -0.5346 -0.0565 -1.5826
  800TIP3   OH223814   0.531   0.991  10.500  0.1451 -0.1009  0.0138
  800TIP3    H123815   0.621   0.978  10.531  0.6460  0.8331 -0.9561
  800TIP3    H223816   0.521   0.929  10.428 -0.4550 -1.1275  0.9612
  801TIP3   OH223817   4.661   0.509  16.519  0.0691 -0.3979  0.2312
  801TIP3    H123818   4.753   0.491  16.539 -0.2660  0.0080  2.4004
  801TIP3    H223819   4.614   0.434  16.555 -0.5608  0.1755  0.6184
  802TIP3   OH223820   0.385   1.029  14.674  0.1930 -0.1292  0.0885
  802TIP3    H123821   0.443   0.987  14.738  0.3930 -0.3196 -0.2151
  802TIP3    H223822   0.401   1.123  14.685  1.1711 -0.2162 -0.5690
  803TIP3   OH223823   1.573   0.011   6.362  0.5074 -0.5802  0.1410
  803TIP3    H123824   1.478   0.022   6.364  0.5301 -0.1737 -0.5205
  803TIP3    H223825   1.592  -0.053   6.431 -0.0372  0.7159  1.5444
  804TIP3   OH223826   6.035   2.722   2.694 -0.2041 -0.5515 -0.2614
  804TIP3    H123827   5.976   2.769   2.635  1.9704  0.5315 -1.7238
  804TIP3    H223828   5.986   2.714   2.776 -1.9477  1.2145 -1.0472
  805TIP3   OH223829   2.484   4.466  14.613 -0.1065 -0.1939  0.1731
  805TIP3    H123830   2.404   4.498  14.570 -0.0709 -2.3370 -1.6651
  805TIP3    H223831   2.453   4.403  14.677  0.0523 -0.7486 -0.2818
  806TIP3   OH223832   2.181   0.877   3.467  0.3611 -0.3079  0.0193
  806TIP3    H123833   2.124   0.895   3.393  2.5161  1.3547 -1.3572
  806TIP3    H223834   2.143   0.799   3.508 -0.6163 -1.6931 -3.1767
  807TIP3   OH223835   0.887   4.334   1.969  0.1384  0.5279  0.6345
  807TIP3    H123836   0.972   4.361   1.931 -0.6750  1.0770 -0.8935
  807TIP3    H223837   0.910   4.267   2.033  1.5814 -1.0125 -1.3685
  808TIP3   OH223838   3.273   0.674   2.381 -0.4191  0.8468 -0.0026
  808TIP3    H123839   3.227   0.736   2.325  0.0182  1.2145  0.0461
  808TIP3    H223840   3.361   0.669   2.345 -0.4928  0.1220 -0.1123
  809TIP3   OH223841   1.773   2.927   5.513  0.5306 -0.0086 -0.4187
  809TIP3    H123842   1.862   2.963   5.509 -0.7846  3.5151 -3.5266
  809TIP3    H223843   1.763   2.877   5.432 -0.0290 -1.4581  0.4928
  810TIP3   OH223844   4.190   5.253  11.193  0.1854  0.1580  0.7049
  810TIP3    H123845   4.271   5.235  11.240  0.3975 -0.3946  0.1531
  810TIP3    H223846   4.211   5.232  11.101 -0.4857  0.3211  0.5105
  811TIP3   OH223847   5.597   2.411   2.375  0.2010  0.4461  0.5174
  811TIP3    H123848   5.621   2.472   2.305  2.8860 -2.0914 -1.0207
  811TIP3    H223849   5.525   2.359   2.338  0.6978  0.0204  0.1173
  812TIP3   OH223850   2.490   5.048  13.200  0.0885  0.4372  0.1072
  812TIP3    H123851   2.569   4.998  13.220 -0.9802 -2.0812 -1.4355
  812TIP3    H223852   2.521   5.126  13.154  1.7003 -0.1696  0.1277
  813TIP3   OH223853   5.460   0.314   4.303  0.6949  0.5923  0.6353
  813TIP3    H123854   5.435   0.253   4.372  1.7778 -0.4933  0.1166
  813TIP3    H223855   5.413   0.394   4.323 -1.6887 -0.7439  0.6944
  814TIP3   OH223856   2.382   5.904  12.454 -0.4565  0.3605  0.1098
  814TIP3    H123857   2.305   5.909  12.510 -0.6895 -1.5209  0.0157
  814TIP3    H223858   2.347   5.898  12.365 -0.4544 -3.3111  0.1941
  815TIP3   OH223859   5.645   5.917  16.725  0.2656 -0.3667 -0.3981
  815TIP3    H123860   5.677   5.895  16.813 -0.0459  1.2448  0.1578
  815TIP3    H223861   5.553   5.892  16.726  0.0713  0.3352  0.0101
  816TIP3   OH223862   2.778   2.936   0.490  0.1468 -0.0816  0.3767
  816TIP3    H123863   2.736   3.002   0.544 -0.4017 -1.4854  1.7404
  816TIP3    H223864   2.746   2.853   0.524  0.7042 -1.0663 -1.3662
  817TIP3   OH223865   2.488   5.408  13.324 -0.1679  0.5018  0.8226
  817TIP3    H123866   2.579   5.424  13.350  0.7059 -0.4963 -1.3138
  817TIP3    H223867   2.492   5.404  13.228 -2.4701  0.3530  0.6910
  818TIP3   OH223868   3.528   3.745  12.526  0.2525  0.0364  0.1128
  818TIP3    H123869   3.453   3.793  12.489  1.0391 -0.4844 -2.3475
  818TIP3    H223870   3.604   3.799  12.506  0.7286 -0.2236  1.1326
  819TIP3   OH223871   3.009   0.882  11.600 -0.4186  0.3554 -0.5672
  819TIP3    H123872   2.919   0.850  11.608  0.2591 -1.1236  2.2356
  819TIP3    H223873   3.051   0.821  11.540 -0.4962 -0.8818  0.6116
  820TIP3   OH223874   1.015   3.351   6.052  0.3091  0.4825 -0.0512
  820TIP3    H123875   1.047   3.290   6.118  0.6598  0.9946  0.2551
  820TIP3    H223876   0.926   3.321   6.033 -0.0880  0.7989  1.2220
  821TIP3   OH223877   2.397   3.251   4.718 -0.1132 -0.0124  0.5704
  821TIP3    H123878   2.486   3.254   4.684 -0.6193  2.3509 -0.7564
  821TIP3    H223879   2.359   3.170   4.682  0.2308  1.0269 -2.3687
  822TIP3   OH223880   3.591   5.026  14.728 -0.1625 -0.4601  0.1017
  822TIP3    H123881   3.510   4.976  14.724 -0.9404  0.8122 -2.2183
  822TIP3    H223882   3.600   5.063  14.640  2.7954 -0.3009  0.3890
  823TIP3   OH223883   3.687   3.571   4.644 -0.4979  0.2530  0.3814
  823TIP3    H123884   3.669   3.530   4.559 -0.7147 -0.2897  0.6851
  823TIP3    H223885   3.746   3.643   4.623 -0.1751 -0.1603 -0.1810
  824TIP3   OH223886   5.287   1.503   1.596  0.1266  0.4419 -0.4393
  824TIP3    H123887   5.364   1.554   1.569 -0.0095 -0.0764 -1.9376
  824TIP3    H223888   5.234   1.563   1.647  1.7732  0.6585  1.1204
  825TIP3   OH223889   1.488   4.948  13.973 -0.1671 -0.1460  0.0419
  825TIP3    H123890   1.561   4.888  13.966 -0.8347 -1.1239  1.0964
  825TIP3    H223891   1.412   4.899  13.940 -0.4916  0.5934 -0.3555
  826TIP3   OH223892   4.559   5.074   2.093  0.0697  0.8747  0.6852
  826TIP3    H123893   4.485   5.050   2.037 -0.2524  0.3296  1.3301
  826TIP3    H223894   4.529   5.153   2.140 -0.7523 -0.2287  2.1186
  827TIP3   OH223895   1.242   2.893   4.414 -0.3995 -0.3779  0.3491
  827TIP3    H123896   1.301   2.852   4.351 -2.2350 -0.1696 -1.6070
  827TIP3    H223897   1.277   2.982   4.426 -1.0605  0.2388 -1.9131
  828TIP3   OH223898   2.314   4.656   4.147  0.3042  0.0746 -0.1800
  828TIP3    H123899   2.391   4.607   4.176 -0.2428  0.4646  2.1449
  828TIP3    H223900   2.349   4.726   4.093  1.3287 -1.2372 -1.2837
  829TIP3   OH223901   1.725   6.382  12.589 -0.2096 -0.2090  0.3282
  829TIP3    H123902   1.794   6.363  12.652 -0.7813 -0.6932  0.8244
  829TIP3    H223903   1.659   6.314  12.605 -1.3610  0.9635  0.7024
  830TIP3   OH223904   3.805   3.627  14.460 -0.2864 -0.7362 -0.2011
  830TIP3    H123905   3.811   3.591  14.371 -1.9295 -1.6922  0.0396
  830TIP3    H223906   3.875   3.582  14.508  0.3390 -0.5290 -0.8975
  831TIP3   OH223907   0.522   2.054   2.615 -0.0815 -0.6071  0.1949
  831TIP3    H123908   0.602   2.039   2.665 -0.1059  0.9177  0.7189
  831TIP3    H223909   0.510   2.149   2.615 -0.4184 -0.5836 -2.2064
  832TIP3   OH223910   3.406   0.335  15.593  0.0842 -0.4070  0.1706
  832TIP3    H123911   3.439   0.249  15.618  0.4014 -0.2268  0.3824
  832TIP3    H223912   3.347   0.360  15.664  0.4801 -0.1806  0.4303
  833TIP3   OH223913   4.802   6.446   5.674 -0.0813  0.4430 -0.0681
  833TIP3    H123914   4.746   6.448   5.597 -1.1062 -1.5070  0.5551
  833TIP3    H223915   4.790   6.358   5.710  4.1268 -0.4594 -0.4066
  834TIP3   OH223916   0.658   4.637   0.808 -0.0248  0.2907  0.1257
  834TIP3    H123917   0.584   4.696   0.813 -0.4515 -0.2695  0.5205
  834TIP3    H223918   0.734   4.691   0.832 -0.3608  0.7496  0.1610
  835TIP3   OH223919   0.430   1.602  16.808 -0.0710  0.3304  0.2195
  835TIP3    H123920   0.457   1.521  16.850  1.6831  0.8064  0.0838
  835TIP3    H223921   0.375   1.574  16.734  0.0058 -0.6834  0.5302
  836TIP3   OH223922   2.954   1.554  16.924 -0.3146 -0.0389  0.1144
  836TIP3    H123923   2.915   1.567  16.838 -0.4346  1.9537  0.4248
  836TIP3    H223924   2.938   1.462  16.944 -2.5449  0.0769 -0.8926
  837TIP3   OH223925   2.114   0.180   5.709  0.6878  0.5383  0.6257
  837TIP3    H123926   2.165   0.254   5.742  1.2077 -0.1153  1.3567
  837TIP3    H223927   2.178   0.124   5.665  0.0786  1.1369 -1.0567
  838TIP3   OH223928   2.040   5.980   3.062  0.0697  0.0329  0.2608
  838TIP3    H123929   2.078   5.995   2.975 -1.1737  0.4747 -0.2274
  838TIP3    H223930   2.051   5.887   3.077 -0.3628 -0.1866 -0.7059
  839TIP3   OH223931   5.322   0.488   0.597  0.6924  0.5392 -0.2909
  839TIP3    H123932   5.278   0.476   0.513 -0.7869 -0.6977  0.5985
  839TIP3    H223933   5.362   0.404   0.616 -0.8647  0.0638  1.2012
  840TIP3   OH223934   1.142   1.334   6.198 -0.1631 -0.3525  0.5671
  840TIP3    H123935   1.141   1.413   6.251 -1.3414  1.2304 -1.6632
  840TIP3    H223936   1.232   1.326   6.168  0.0929 -0.2236  1.2843
  841TIP3   OH223937   2.350   0.443   0.635  1.3464 -0.3372 -0.2419
  841TIP3    H123938   2.297   0.493   0.573  0.5828 -1.2651 -0.3637
  841TIP3    H223939   2.439   0.448   0.602  0.9288 -0.9333 -1.4898
  842TIP3   OH223940   1.569   5.145  12.167  0.0733  0.0792 -0.0177
  842TIP3    H123941   1.558   5.131  12.261 -1.2325 -0.4070 -0.2206
  842TIP3    H223942   1.628   5.220  12.161  0.8021 -0.3668  1.1750
  843TIP3   OH223943   2.820   1.323   4.299  0.4513 -0.0256 -0.2285
  843TIP3    H123944   2.769   1.243   4.313 -2.1157  1.7529  1.5355
  843TIP3    H223945   2.754   1.392   4.291  2.5803  2.2011  0.2586
  844TIP3   OH223946   3.250   6.355  12.084  0.3450 -0.1785 -0.0439
  844TIP3    H123947   3.294   6.366  11.999  0.2695 -2.7587 -0.5120
  844TIP3    H223948   3.199   6.274  12.074 -0.1663 -0.2060  2.2706
  845TIP3   OH223949   5.039   4.813   4.132 -0.2165  0.1921 -0.3585
  845TIP3    H123950   5.030   4.720   4.155 -2.5895  0.3838 -0.2610
  845TIP3    H223951   4.970   4.856   4.182  0.5068  1.9596 -0.8187
  846TIP3   OH223952   4.860   6.694  14.615  0.1161  0.1226 -0.1897
  846TIP3    H123953   4.801   6.738  14.676 -1.1822 -1.9532  0.1095
  846TIP3    H223954   4.807   6.674  14.538  0.9523 -0.0163 -0.7570
  847TIP3   OH223955   4.233   4.847   5.554  0.1985 -0.6780 -0.2443
  847TIP3    H123956   4.315   4.890   5.530 -0.2984  1.0006  0.8329
  847TIP3    H223957   4.245   4.756   5.529  0.2571  0.4385 -5.4622
  848TIP3   OH223958   1.402   3.943   2.449  0.2085  0.3449  0.6877
  848TIP3    H123959   1.385   3.864   2.500 -1.0596 -0.2832 -0.6548
  848TIP3    H223960   1.316   3.983   2.438  0.6791  1.2911  0.3310
  849TIP3   OH223961   5.647   2.377  15.175 -0.0161  0.4158 -0.3679
  849TIP3    H123962   5.632   2.471  15.165  2.9868  1.2843  1.7280
  849TIP3    H223963   5.734   2.371  15.214 -0.7903 -3.1794  1.2254
  850TIP3   OH223964   2.306   5.699   1.914  0.1689 -0.0143  0.1691
  850TIP3    H123965   2.312   5.784   1.871 -0.9035  0.9844  1.8956
  850TIP3    H223966   2.224   5.661   1.882 -1.4077  1.3815  2.3360
  851TIP3   OH223967   2.717   0.081  13.325 -0.1020 -0.2018 -0.5718
  851TIP3    H123968   2.661   0.010  13.292  2.6184 -3.2385  0.7271
  851TIP3    H223969   2.790   0.085  13.263  0.1297  1.0449 -0.2498
  852TIP3   OH223970   1.253   6.218   4.926 -0.4104 -0.5828  0.0267
  852TIP3    H123971   1.196   6.278   4.974 -0.5358  0.5045 -1.4183
  852TIP3    H223972   1.339   6.228   4.966 -0.9463 -1.3810  1.4652
  853TIP3   OH223973   5.514   0.908   1.986  0.3672  0.2341 -0.2084
  853TIP3    H123974   5.518   1.000   1.959  0.3572  0.3614  0.2297
  853TIP3    H223975   5.470   0.909   2.070 -0.8620 -0.3041 -0.8189
  854TIP3   OH223976   4.827   4.392  13.282  0.8304 -0.2393  0.2574
  854TIP3    H123977   4.902   4.430  13.328  0.1723 -0.4844  1.5885
  854TIP3    H223978   4.825   4.437  13.198 -0.0292  2.8908  1.8095
  855TIP3   OH223979   5.710   6.417   0.216 -0.0940 -0.1764 -0.0567
  855TIP3    H123980   5.727   6.510   0.232 -0.6326 -0.1594  0.4323
  855TIP3    H223981   5.662   6.415   0.133  0.5686 -0.0798 -0.4499
  856TIP3   OH223982   3.066   1.363  13.970 -0.5154  0.1189  0.2072
  856TIP3    H123983   3.015   1.356  13.889 -0.0124 -0.4946 -0.0576
  856TIP3    H223984   3.104   1.276  13.982  0.0736  0.4350  0.6643
  857TIP3   OH223985   6.533   1.810   6.047 -0.1556 -0.5628 -0.3953
  857TIP3    H123986   6.489   1.887   6.010  0.5732  0.2966  0.4933
  857TIP3    H223987   6.468   1.771   6.105 -0.0291  0.2630  0.3203
  858TIP3   OH223988   5.467   2.293   3.055  0.1824 -0.2645 -0.2471
  858TIP3    H123989   5.471   2.211   3.104  0.6381 -0.7543 -1.0718
  858TIP3    H223990   5.375   2.318   3.057  0.2215 -0.1729  1.0013
  859TIP3   OH223991   1.124   3.487   3.741 -0.2997 -0.0661 -0.1443
  859TIP3    H123992   1.131   3.514   3.833  2.3402 -2.0577  0.3571
  859TIP3    H223993   1.113   3.392   3.746 -0.2036 -0.1868 -1.9260
  860TIP3   OH223994   4.296   3.901  14.810  0.4854  0.1085 -0.4362
  860TIP3    H123995   4.249   3.935  14.733  1.0246 -0.3523 -0.9818
  860TIP3    H223996   4.342   3.824  14.777  0.7455 -0.0764  0.3526
  861TIP3   OH223997   3.997   1.619   2.340 -0.5349  0.6268  0.1832
  861TIP3    H123998   4.036   1.691   2.390 -0.3053  0.5497  0.1187
  861TIP3    H223999   3.908   1.612   2.372 -0.1916  0.1294  1.0729
  862TIP3   OH224000   1.811   4.126   5.267 -0.4089 -0.2859 -0.0757
  862TIP3    H124001   1.901   4.133   5.234 -0.8778  0.7196 -1.1978
  862TIP3    H224002   1.783   4.038   5.242 -0.8709  0.5459 -2.7518
  863TIP3   OH224003   6.789   5.859  15.127 -0.1549  0.6605  0.2134
  863TIP3    H124004   6.731   5.812  15.187 -1.3963  0.6925 -0.9213
  863TIP3    H224005   6.866   5.881  15.181 -1.0874  0.4415  1.6974
  864TIP3   OH224006   1.550   2.810   6.079 -0.3627  0.1025  0.3594
  864TIP3    H124007   1.589   2.727   6.050 -3.1842 -0.6349 -1.8829
  864TIP3    H224008   1.503   2.788   6.159  1.0527  0.2266  1.2507
  865TIP3   OH224009   2.058   2.071   1.544 -0.1919  0.2504 -0.2201
  865TIP3    H124010   2.110   2.106   1.616 -2.5510  0.4908  1.4962
  865TIP3    H224011   1.994   2.013   1.587 -0.4386 -1.1703 -2.3449
  866TIP3   OH224012   2.898   5.730  14.451  0.4537 -0.5680 -0.0178
  866TIP3    H124013   2.854   5.764  14.529  1.7442  2.7397 -0.5740
  866TIP3    H224014   2.850   5.770  14.378  2.2457  0.4137 -0.7123
  867TIP3   OH224015   4.043   1.137  12.794 -0.7013 -0.0657 -0.2531
  867TIP3    H124016   3.975   1.199  12.767 -0.9011  0.2599  0.9726
  867TIP3    H224017   4.086   1.179  12.868  1.1972 -0.0371 -1.3095
  868TIP3   OH224018   2.589   0.115   0.038  0.2166  0.6196 -0.1744
  868TIP3    H124019   2.588   0.177  -0.034  1.7484  0.1757 -0.6209
  868TIP3    H224020   2.631   0.037   0.003  0.4112  0.1571  1.0141
  869TIP3   OH224021   6.039   6.368  12.740  0.0656  0.4461  0.5287
  869TIP3    H124022   6.112   6.311  12.764 -0.9804 -0.5527  1.5008
  869TIP3    H224023   5.973   6.308  12.704 -0.5687  1.2191  0.3730
  870TIP3   OH224024   0.040   6.741   4.480 -0.0775  0.3040  0.0295
  870TIP3    H124025  -0.008   6.821   4.460 -1.5980 -0.8820 -1.2851
  870TIP3    H224026   0.018   6.722   4.571  1.2971  2.0017  0.7651
  871TIP3   OH224027   4.349   0.073  16.187 -0.6188 -0.5343  0.2044
  871TIP3    H124028   4.392   0.094  16.270 -0.7104  1.1319 -0.1439
  871TIP3    H224029   4.395  -0.005  16.155  0.5121 -0.2184  1.0153
  872TIP3   OH224030   1.284   3.839  12.616  0.2357  0.2893 -0.4607
  872TIP3    H124031   1.353   3.862  12.678 -0.0508 -0.0766  0.0010
  872TIP3    H224032   1.203   3.867  12.658  0.0809  0.5423 -0.9145
  873TIP3   OH224033   2.896   4.090  15.844 -0.1973 -0.1011  0.0011
  873TIP3    H124034   2.990   4.087  15.827  0.2083  1.7953  1.5741
  873TIP3    H224035   2.856   4.100  15.757  0.8546 -2.8984 -0.8943
  874TIP3   OH224036   6.611   6.229   4.977 -0.3425  0.5919  0.1706
  874TIP3    H124037   6.590   6.265   5.063 -1.5302  1.3138 -0.4031
  874TIP3    H224038   6.532   6.182   4.951  0.4054 -0.5891 -0.0655
  875TIP3   OH224039   3.915   4.117   3.057  0.5603 -0.0089 -0.1425
  875TIP3    H124040   3.883   4.180   2.993 -0.1209 -0.1231  0.0815
  875TIP3    H224041   3.995   4.157   3.093 -1.1849  1.9761  1.8562
  876TIP3   OH224042   4.718   4.017  11.741 -0.0674 -0.1299 -0.4490
  876TIP3    H124043   4.632   4.001  11.779 -0.2416  0.9240 -0.3817
  876TIP3    H224044   4.739   4.107  11.765  1.3442 -0.5745  0.1062
  877TIP3   OH224045   4.829   6.273   3.255 -0.1331  0.0769  0.0392
  877TIP3    H124046   4.917   6.312   3.249  0.5111 -1.1091  1.2085
  877TIP3    H224047   4.772   6.337   3.213  1.1230  1.4375  0.3026
  878TIP3   OH224048   2.060   0.990   1.199 -0.2210 -0.0496 -0.1807
  878TIP3    H124049   2.154   0.994   1.186 -0.1294  0.0990  0.4669
  878TIP3    H224050   2.022   1.007   1.113  0.3605 -3.5609 -1.2828
  879TIP3   OH224051   1.998   2.809  14.383 -0.2636  0.6114  0.2009
  879TIP3    H124052   2.074   2.860  14.411  0.1068  0.5817 -0.7422
  879TIP3    H224053   1.966   2.769  14.465  1.8530 -0.8826  0.4021
  880TIP3   OH224054   0.001   6.748  16.609  0.4108 -0.0391 -0.0329
  880TIP3    H124055  -0.086   6.711  16.621  0.2011  0.2459 -0.6490
  880TIP3    H224056   0.032   6.765  16.698 -0.0496 -0.3940  0.2006
  881TIP3   OH224057   2.926   4.298   1.300  0.1393  0.2824  0.1960
  881TIP3    H124058   3.013   4.335   1.285 -0.3946  1.2931 -0.5305
  881TIP3    H224059   2.914   4.236   1.227  0.9030 -1.1466  1.2335
  882TIP3   OH224060   5.522   0.150  15.635  0.2957 -0.0859 -0.0461
  882TIP3    H124061   5.442   0.193  15.662  0.4768  0.4759 -0.3951
  882TIP3    H224062   5.575   0.219  15.595  0.8945 -0.4745  0.0524
  883TIP3   OH224063   5.192   2.672   1.017 -0.2086 -0.6805  0.0772
  883TIP3    H124064   5.180   2.579   1.036  1.4768 -0.9947 -0.2253
  883TIP3    H224065   5.273   2.675   0.966  0.6481  1.1005  1.4607
  884TIP3   OH224066   3.020   0.615  14.170  0.5937 -0.0453 -0.5156
  884TIP3    H124067   3.015   0.540  14.110  0.3066  0.6727 -1.4260
  884TIP3    H224068   2.932   0.623  14.206  0.0242  1.0950 -2.0312
  885TIP3   OH224069   5.352   5.113  15.367 -0.3049  0.3051  0.4120
  885TIP3    H124070   5.300   5.060  15.427 -1.0595  1.1008  0.4744
  885TIP3    H224071   5.403   5.049  15.317 -1.5900 -0.5241  0.1098
  886TIP3   OH224072   2.739   4.572  10.514  0.8898  0.3365 -0.3455
  886TIP3    H124073   2.831   4.587  10.490  1.4859 -1.1091  0.8936
  886TIP3    H224074   2.734   4.478  10.533 -0.5872  0.5859  0.6554
  887TIP3   OH224075   1.277   6.456   1.322  0.1146  0.2641  0.1679
  887TIP3    H124076   1.226   6.420   1.395  1.2768 -0.5290  0.6221
  887TIP3    H224077   1.256   6.399   1.248 -0.2477  0.4136  0.1536
  888TIP3   OH224078   2.833   4.242   5.256 -0.3082  0.4032 -0.2438
  888TIP3    H124079   2.835   4.308   5.187  0.0708 -0.5261 -1.1596
  888TIP3    H224080   2.835   4.159   5.209  0.4868 -0.2553  0.9023
  889TIP3   OH224081   6.686   5.691   5.866 -0.1818 -0.0679 -0.5727
  889TIP3    H124082   6.617   5.757   5.864  1.0749  1.2945 -0.5898
  889TIP3    H224083   6.733   5.707   5.948  0.1872 -0.9052 -0.6064
  890TIP3   OH224084   4.175   5.141  12.404  0.0928 -0.1978  0.1063
  890TIP3    H124085   4.083   5.115  12.404  0.5603 -2.0139  0.6602
  890TIP3    H224086   4.216   5.085  12.470  1.5174  0.8856  0.1846
  891TIP3   OH224087   1.685   6.436   0.895  0.4310  0.0644 -0.6156
  891TIP3    H124088   1.734   6.372   0.843  0.8796 -0.5654  0.5400
  891TIP3    H224089   1.597   6.398   0.903  0.3290  0.2136 -0.9753
  892TIP3   OH224090   5.726   0.645  11.498 -0.2449  0.3886  0.1181
  892TIP3    H124091   5.786   0.668  11.569 -1.3163  2.0301  0.5573
  892TIP3    H224092   5.649   0.611  11.543 -0.3403 -0.0084 -0.3444
  893TIP3   OH224093   5.482   5.534   2.990  0.4683 -0.0527 -0.2645
  893TIP3    H124094   5.480   5.456   3.046  1.0371 -0.0525 -0.2370
  893TIP3    H224095   5.480   5.498   2.901  0.7953 -0.1042 -0.2527
  894TIP3   OH224096   6.163   1.291  11.193 -0.1410 -0.0448 -0.7753
  894TIP3    H124097   6.074   1.281  11.225 -0.4398 -1.2353 -1.9095
  894TIP3    H224098   6.207   1.210  11.219  0.4605  0.2949 -0.7139
  895TIP3   OH224099   1.546   6.511   5.827 -0.0455  0.1891 -0.3839
  895TIP3    H124100   1.587   6.528   5.912 -0.9230 -0.0563  0.1074
  895TIP3    H224101   1.492   6.589   5.811  1.3221  0.9474 -1.4832
  896TIP3   OH224102   6.048   4.019   4.178 -0.6232  0.2655 -0.3308
  896TIP3    H124103   5.966   4.066   4.194 -0.8794 -0.3849  0.4095
  896TIP3    H224104   6.020   3.934   4.145 -0.2222  0.2269 -0.5731
  897TIP3   OH224105   4.357   3.396   5.676  0.3257 -0.1049 -0.3379
  897TIP3    H124106   4.447   3.372   5.699  0.1651 -0.1663  0.2370
  897TIP3    H224107   4.361   3.416   5.583  0.6206 -1.6772 -0.7008
  898TIP3   OH224108   4.483   5.033   1.674 -0.2912  0.3715  0.1082
  898TIP3    H124109   4.429   5.004   1.748 -0.3016 -1.3421 -0.5374
  898TIP3    H224110   4.422   5.037   1.600  0.2932 -0.9616 -0.4805
  899TIP3   OH224111   5.867   0.267  16.430 -0.1808 -0.2372  0.6672
  899TIP3    H124112   5.873   0.209  16.355 -2.4034 -0.0566  0.2885
  899TIP3    H224113   5.900   0.352  16.399 -1.0506 -0.1759 -0.1047
  900TIP3   OH224114   1.738   2.747  12.298 -0.6485  0.4136 -0.2687
  900TIP3    H124115   1.668   2.723  12.237 -0.4616 -0.7942 -0.0314
  900TIP3    H224116   1.767   2.664  12.335  0.0381  1.0235  0.5998
  901TIP3   OH224117   1.631   6.059  15.721 -0.0666  0.8162 -0.0359
  901TIP3    H124118   1.672   5.993  15.666 -0.5577 -0.5201  1.1476
  901TIP3    H224119   1.539   6.059  15.694 -0.9890 -1.9432  2.5959
  902TIP3   OH224120   5.888   2.129   0.849  0.0824  0.0426 -0.3161
  902TIP3    H124121   5.826   2.160   0.782  1.4578  0.4666 -1.4312
  902TIP3    H224122   5.833   2.114   0.926 -1.6500 -0.9879 -1.6765
  903TIP3   OH224123   6.577   4.232   1.601  0.2328 -0.0501 -0.0690
  903TIP3    H124124   6.592   4.324   1.580 -1.5607  0.3740  0.3767
  903TIP3    H224125   6.510   4.204   1.539 -0.0426 -0.7325  0.5207
  904TIP3   OH224126   5.775   3.671   0.146  0.1905 -0.1461  0.1820
  904TIP3    H124127   5.713   3.598   0.150  0.8831 -0.6953  2.9412
  904TIP3    H224128   5.727   3.745   0.183 -0.0989  0.5455 -1.4718
  905TIP3   OH224129   0.114   1.359  16.124  0.1219 -0.0121  0.4378
  905TIP3    H124130   0.093   1.385  16.214 -1.6566  0.2255 -0.0110
  905TIP3    H224131   0.060   1.416  16.069  1.7335  0.3663 -0.8364
  906TIP3   OH224132   5.191   2.514  16.243 -0.0385  0.0049 -0.2563
  906TIP3    H124133   5.227   2.568  16.314 -0.8446  1.6287 -1.0429
  906TIP3    H224134   5.212   2.563  16.163 -2.3885  0.1206 -0.8685
  907TIP3   OH224135   5.372   1.848   5.378 -0.5048 -0.2285  0.3085
  907TIP3    H124136   5.461   1.830   5.348 -1.0304  0.3652 -1.7458
  907TIP3    H224137   5.342   1.765   5.416  0.6615 -0.6426  0.3685
  908TIP3   OH224138   0.131   4.589   3.822 -0.3682 -0.1525  0.4231
  908TIP3    H124139   0.106   4.595   3.914  1.6225  1.5488  0.9237
  908TIP3    H224140   0.200   4.522   3.821  2.5322  2.6096  0.9929
  909TIP3   OH224141   1.705   1.869  12.061 -0.2229  0.0107  0.2291
  909TIP3    H124142   1.761   1.946  12.059  0.4204 -0.2752  2.9543
  909TIP3    H224143   1.681   1.854  11.969  2.0405  1.6568 -0.7328
  910TIP3   OH224144   4.953   4.762   4.820 -0.1510  0.1020  0.0956
  910TIP3    H124145   4.908   4.806   4.748 -1.0059  0.5205  0.8567
  910TIP3    H224146   4.985   4.834   4.874  0.3611 -0.2090  0.2014
  911TIP3   OH224147   0.687   1.070  15.938 -0.3815 -0.1381  0.2347
  911TIP3    H124148   0.673   1.007  16.009 -2.2910  1.0903  1.0303
  911TIP3    H224149   0.667   1.155  15.977  2.0183  1.0152 -0.8316
  912TIP3   OH224150   4.842   2.712   4.345 -0.4849  0.3979  0.1347
  912TIP3    H124151   4.913   2.751   4.294  0.3273 -0.4466  0.5724
  912TIP3    H224152   4.766   2.715   4.288  0.3130 -0.2024 -1.0018
  913TIP3   OH224153   3.780   0.032   0.202 -0.3903 -0.0967 -0.0793
  913TIP3    H124154   3.750  -0.005   0.286  0.7988 -1.0433 -0.0362
  913TIP3    H224155   3.706   0.083   0.171 -1.6407 -1.4308  0.5379
  914TIP3   OH224156   4.800   4.460   1.789 -0.0541  0.5251 -0.4317
  914TIP3    H124157   4.732   4.428   1.848 -1.0340  0.8746 -1.3470
  914TIP3    H224158   4.826   4.383   1.738  0.9105  0.1837  0.5219
  915TIP3   OH224159   1.912   0.626  14.759  0.1882 -0.3466  0.2297
  915TIP3    H124160   1.825   0.605  14.726  0.1541 -0.4176  0.3627
  915TIP3    H224161   1.899   0.642  14.853  0.3896 -0.8104  0.3401
  916TIP3   OH224162   5.708   1.867   5.301  0.0202  0.4843  0.4101
  916TIP3    H124163   5.702   1.796   5.365  2.6594  0.6052  0.9182
  916TIP3    H224164   5.770   1.929   5.340  1.1930  0.8999 -1.9054
  917TIP3   OH224165   0.593   2.213   1.051  0.2737 -0.2771 -0.2945
  917TIP3    H124166   0.636   2.231   1.135 -2.4800  0.1866  1.1150
  917TIP3    H224167   0.592   2.117   1.045  0.2479 -0.3199  0.3250
  918TIP3   OH224168   2.848   2.550   0.135  0.3307 -0.4288 -0.1308
  918TIP3    H124169   2.776   2.505   0.178  1.2188 -1.9367 -0.1666
  918TIP3    H224170   2.919   2.550   0.200 -0.0719  2.2259  0.4149
  919TIP3   OH224171   3.551   5.012   1.255 -0.3943  0.0620  0.5514
  919TIP3    H124172   3.515   5.094   1.289  0.4236  0.3154  0.8449
  919TIP3    H224173   3.480   4.948   1.264 -0.4407  0.2988  2.0591
  920TIP3   OH224174   2.988   2.947  14.687 -0.0841 -0.6646  0.1353
  920TIP3    H124175   3.070   2.966  14.733  0.6577  0.0604 -1.4121
  920TIP3    H224176   2.991   2.852  14.673 -0.3130 -0.9006  1.4944
  921TIP3   OH224177   4.921   4.896  11.828  0.2164 -0.2217  0.4755
  921TIP3    H124178   4.877   4.925  11.748 -0.1305  2.8790  1.6677
  921TIP3    H224179   5.014   4.912  11.811  0.1168  0.7002  0.7786
  922TIP3   OH224180   4.695   1.328   1.622 -0.1460 -0.1644  0.4458
  922TIP3    H124181   4.653   1.409   1.651  0.0211  0.2993 -0.5491
  922TIP3    H224182   4.780   1.356   1.590  0.4000 -0.9144  1.2082
  923TIP3   OH224183   0.685   0.981  12.273  0.6427  0.2920  0.0171
  923TIP3    H124184   0.702   1.064  12.229 -1.1100  1.9240  2.1248
  923TIP3    H224185   0.712   0.914  12.211  4.0240  2.3843 -1.0327
  924TIP3   OH224186   4.888   1.534   0.337 -0.2901  0.2670 -0.1516
  924TIP3    H124187   4.863   1.549   0.246  0.4832 -0.1393 -0.4389
  924TIP3    H224188   4.971   1.581   0.346 -1.0305  1.4654  0.7369
  925TIP3   OH224189   0.318   5.725  12.275 -0.6054 -0.5398 -0.5318
  925TIP3    H124190   0.273   5.685  12.349  0.2502 -0.9633 -0.2228
  925TIP3    H224191   0.248   5.751  12.215 -1.3048 -0.2457  0.3880
  926TIP3   OH224192   1.257   6.255   5.796 -0.0304 -0.3956  0.0942
  926TIP3    H124193   1.349   6.245   5.771 -0.1480 -0.8271 -0.1659
  926TIP3    H224194   1.244   6.350   5.802 -0.0625 -0.2660 -1.7172
  927TIP3   OH224195   4.676   4.843   1.841  0.1947  0.3485 -0.0813
  927TIP3    H124196   4.587   4.851   1.875  0.6190  0.0764  1.1411
  927TIP3    H224197   4.707   4.933   1.835  0.0939  0.4025  0.1978
  928TIP3   OH224198   0.432   0.729  13.803  0.2537 -0.0426  0.2046
  928TIP3    H124199   0.526   0.716  13.791  0.5395  1.4765  0.5338
  928TIP3    H224200   0.426   0.812  13.850 -1.3222  1.5411 -2.5408
  929TIP3   OH224201   0.203   4.812  15.417  0.6319  0.7258  0.3057
  929TIP3    H124202   0.165   4.856  15.493  1.7803 -0.0993  1.3839
  929TIP3    H224203   0.143   4.834  15.345 -0.3944  1.6503  1.3935
  930TIP3   OH224204   5.274   6.375  13.451 -0.3257 -0.1476  0.6655
  930TIP3    H124205   5.340   6.309  13.429  1.8612  2.4472 -1.2900
  930TIP3    H224206   5.223   6.385  13.370 -1.7411 -0.5204  1.4700
  931TIP3   OH224207   5.111   3.788  12.211  0.4035  0.5633 -0.1430
  931TIP3    H124208   5.160   3.707  12.223  2.0302  1.5725  0.5161
  931TIP3    H224209   5.024   3.761  12.184  1.5339 -1.3238 -2.1823
  932TIP3   OH224210   3.466   4.389  16.615 -0.4108  0.3727 -0.0159
  932TIP3    H124211   3.474   4.351  16.528  1.2251  1.1315 -0.2434
  932TIP3    H224212   3.553   4.423  16.634 -1.2026  1.8817  1.1499
  933TIP3   OH224213   5.330   6.477  15.470 -0.2247  0.3500  0.2498
  933TIP3    H124214   5.277   6.434  15.537 -2.2781 -0.4833 -1.8144
  933TIP3    H224215   5.325   6.570  15.492 -0.2583  0.0547  1.6148
  934TIP3   OH224216   0.971   4.280   5.321  0.2977 -0.0926 -0.2311
  934TIP3    H124217   0.889   4.239   5.294  1.1247 -1.7156 -0.3963
  934TIP3    H224218   0.970   4.274   5.416  1.1046 -2.0132 -0.2964
  935TIP3   OH224219   2.687   1.513   3.398 -0.3931 -0.2346  0.3071
  935TIP3    H124220   2.691   1.587   3.458 -0.5902 -0.6815  0.8859
  935TIP3    H224221   2.596   1.510   3.369 -0.5612 -0.6815  0.8545
  936TIP3   OH224222   0.795   0.808  15.343 -0.0645  0.3412  0.0500
  936TIP3    H124223   0.834   0.722  15.330 -0.1810  0.3072 -0.0777
  936TIP3    H224224   0.719   0.809  15.285  0.4879  0.8866 -0.6965
  937TIP3   OH224225   4.442   3.022   3.538 -0.4036  0.9800 -0.3323
  937TIP3    H124226   4.389   2.965   3.593 -0.2420  1.1726  0.0309
  937TIP3    H224227   4.487   3.079   3.600  1.6245 -0.3423 -0.5011
  938TIP3   OH224228   0.401   1.782   0.214 -0.6044  0.0529  0.5409
  938TIP3    H124229   0.461   1.776   0.140  0.0958  1.1652  0.9783
  938TIP3    H224230   0.383   1.692   0.239  0.9477 -0.3122  0.4329
  939TIP3   OH224231   6.522   3.948   3.795 -0.4762 -0.2441  0.5286
  939TIP3    H124232   6.440   3.937   3.844 -0.2732  1.9922  1.4915
  939TIP3    H224233   6.539   4.042   3.797  1.3494 -0.4784 -0.9599
  940TIP3   OH224234   3.597   2.447   0.679 -0.0821 -0.1031 -0.1363
  940TIP3    H124235   3.592   2.404   0.594 -0.0531 -3.4662  1.4298
  940TIP3    H224236   3.511   2.432   0.719  0.0842  0.9457  0.6657
  941TIP3   OH224237   4.550   0.151   6.798 -0.0960  0.0455  0.5017
  941TIP3    H124238   4.609   0.223   6.821  1.3652 -0.6676 -0.7999
  941TIP3    H224239   4.535   0.162   6.704 -1.0381 -0.5154  0.5740
  942TIP3   OH224240   1.672   5.348  16.213  0.0050 -0.1699 -0.8548
  942TIP3    H124241   1.641   5.269  16.258 -0.0158 -0.4457 -1.3452
  942TIP3    H224242   1.595   5.405  16.209  0.2401  0.2494  0.2814
  943TIP3   OH224243   4.629   1.331   0.196 -0.2093  0.1269 -0.4368
  943TIP3    H124244   4.639   1.400   0.131  3.0624 -0.2074 -0.4368
  943TIP3    H224245   4.562   1.273   0.159  0.6771  0.5946 -2.9507
  944TIP3   OH224246   0.520   6.231  14.142 -0.0249 -0.5749 -0.0927
  944TIP3    H124247   0.494   6.296  14.209 -0.1312  0.7241 -1.3500
  944TIP3    H224248   0.444   6.224  14.085  0.0728 -1.6685 -0.1050
  945TIP3   OH224249   3.897   3.015  13.480  0.0147  0.0014 -0.2789
  945TIP3    H124250   3.899   2.935  13.428 -0.2626 -0.6906  0.7294
  945TIP3    H224251   3.903   2.984  13.571  0.5610  1.1692  0.0987
  946TIP3   OH224252   5.876   6.789   2.024 -0.0158 -0.4910  0.1561
  946TIP3    H124253   5.924   6.753   2.098  0.6533 -1.0201 -0.5204
  946TIP3    H224254   5.896   6.883   2.026 -0.2543 -0.4542  0.8262
  947TIP3   OH224255   4.083   1.812   0.512  0.3941 -0.7966 -0.7091
  947TIP3    H124256   4.025   1.774   0.445  2.0067 -1.3452 -1.8444
  947TIP3    H224257   4.163   1.834   0.464  1.1667 -0.1302  0.8410
  948TIP3   OH224258   6.623   6.307   2.502  0.0704 -0.2649 -0.3844
  948TIP3    H124259   6.684   6.268   2.564  0.0507 -0.9980 -0.8227
  948TIP3    H224260   6.549   6.336   2.557  1.2209  1.5774  0.3017
  949TIP3   OH224261   0.340   2.417  11.776 -0.0089  0.0847 -0.3026
  949TIP3    H124262   0.285   2.401  11.853  0.3765 -1.6798 -0.3518
  949TIP3    H224263   0.396   2.490  11.800 -0.9244  0.5297  0.5287
  950TIP3   OH224264   3.463   3.187   5.089  0.5084 -0.1654  0.1511
  950TIP3    H124265   3.419   3.103   5.085 -0.9747  0.4017  2.4677
  950TIP3    H224266   3.546   3.169   5.132  0.8300 -0.6258 -0.6400
  951TIP3   OH224267   6.084   1.067   5.032 -0.8874  0.3822  0.2484
  951TIP3    H124268   6.004   1.016   5.019 -1.6775  1.7382 -0.4200
  951TIP3    H224269   6.100   1.063   5.127 -0.3769 -1.8373  0.1195
  952TIP3   OH224270   5.467   0.835  14.639 -0.5023 -0.0600  0.0529
  952TIP3    H124271   5.446   0.833  14.546  0.9260 -1.3679 -0.2957
  952TIP3    H224272   5.563   0.828  14.642 -0.4858  0.3706  1.6208
  953TIP3   OH224273   4.652   3.440   0.405  0.4632 -0.1422 -0.2945
  953TIP3    H124274   4.634   3.386   0.482  2.4062  1.1524  1.1702
  953TIP3    H224275   4.738   3.479   0.422  0.4136  1.1823 -2.5726
  954TIP3   OH224276   4.714   3.838   6.160 -0.0685 -0.3013 -0.1094
  954TIP3    H124277   4.736   3.750   6.129  1.5453 -1.0545  2.8786
  954TIP3    H224278   4.789   3.892   6.136 -0.1468 -0.1793 -0.0840
  955TIP3   OH224279   4.857   0.902   5.017 -0.1704 -0.6320  0.1071
  955TIP3    H124280   4.827   0.843   4.948 -0.2639  1.1743 -1.4817
  955TIP3    H224281   4.926   0.853   5.062 -1.0869 -2.4026 -0.2987
  956TIP3   OH224282   1.973   0.898  14.728 -0.0239 -0.0646  1.3727
  956TIP3    H124283   2.052   0.886  14.675  0.1864  2.4524  0.9873
  956TIP3    H224284   1.933   0.811  14.732  0.9930 -0.7498 -1.2653
  957TIP3   OH224285   2.469   3.267   0.474 -0.3971  0.0795 -0.4955
  957TIP3    H124286   2.392   3.214   0.450  0.6387 -0.8664 -1.9322
  957TIP3    H224287   2.459   3.283   0.567 -2.5125  0.2777 -0.6975
  958TIP3   OH224288   3.006   2.227   4.255 -0.1785  0.3383  0.3190
  958TIP3    H124289   2.982   2.251   4.166 -1.0385 -0.4942  0.3131
  958TIP3    H224290   2.935   2.170   4.285  0.4400  0.0493  1.2932
  959TIP3   OH224291   6.552   2.205  15.386  0.2521 -0.0377 -0.0376
  959TIP3    H124292   6.589   2.116  15.384  0.0347 -0.2601  2.5018
  959TIP3    H224293   6.462   2.193  15.415  0.4720  1.0286  1.2118
  960TIP3   OH224294   0.683   2.756  15.121  0.4810  0.0543 -0.5988
  960TIP3    H124295   0.752   2.690  15.125  0.7644  0.3694 -0.2540
  960TIP3    H224296   0.725   2.837  15.148  0.4204  0.6319 -2.1569
  961TIP3   OH224297   0.350   3.075   2.241 -0.3497  0.5344  0.0879
  961TIP3    H124298   0.381   3.047   2.327  0.9906 -0.4060 -0.6477
  961TIP3    H224299   0.265   3.115   2.257  0.5331  1.7870  2.0439
  962TIP3   OH224300   1.920   3.151   5.758 -0.2555  0.1625  0.0347
  962TIP3    H124301   1.973   3.098   5.699 -0.5785 -0.8424  0.6270
  962TIP3    H224302   1.976   3.226   5.780  1.7481 -1.7877  2.1570
  963TIP3   OH224303   1.753   3.672   2.063  0.6170  0.3886  0.2643
  963TIP3    H124304   1.763   3.592   2.013 -0.3300  1.7368 -2.2683
  963TIP3    H224305   1.697   3.648   2.137 -0.1516 -1.1617 -0.7837
  964TIP3   OH224306   5.229   1.420  13.091  0.1025 -0.8189 -0.2543
  964TIP3    H124307   5.217   1.438  13.184  0.5380 -1.2405 -0.1131
  964TIP3    H224308   5.147   1.449  13.051 -1.2912 -3.2015  0.6331
  965TIP3   OH224309   5.754   4.309   3.292  0.4289 -0.4906 -0.1026
  965TIP3    H124310   5.738   4.261   3.210 -0.9488  0.0027 -0.1432
  965TIP3    H224311   5.670   4.309   3.336  0.7701  0.6390  0.5853
  966TIP3   OH224312   5.135   4.127  15.383 -0.0674 -0.3381  0.0360
  966TIP3    H124313   5.181   4.181  15.447 -1.5836  2.0014 -0.7490
  966TIP3    H224314   5.185   4.045  15.381  0.9445  0.0821  3.0171
  967TIP3   OH224315   6.541   1.780   4.561 -0.0504  0.2497  0.1161
  967TIP3    H124316   6.522   1.687   4.566  0.1960  0.1972  0.0847
  967TIP3    H224317   6.634   1.785   4.540 -0.3508  0.4885 -1.2689
  968TIP3   OH224318   3.331   5.659  12.611 -0.1954  0.2922  0.1625
  968TIP3    H124319   3.382   5.579  12.605 -1.0093 -0.1332 -1.7343
  968TIP3    H224320   3.381   5.724  12.560 -1.0114  0.1390 -0.8664
  969TIP3   OH224321   5.133   0.705   1.891 -0.4843  0.1819  0.3290
  969TIP3    H124322   5.131   0.783   1.947  0.2786  0.3145  0.1930
  969TIP3    H224323   5.181   0.640   1.942  0.1233  0.2683 -0.1141
  970TIP3   OH224324   6.035   0.218  13.476 -0.2574 -0.6169 -0.5083
  970TIP3    H124325   6.055   0.261  13.559  0.0809 -0.7471 -0.5213
  970TIP3    H224326   6.051   0.125  13.493  0.3957 -0.5785 -0.8913
  971TIP3   OH224327   6.062   2.455   1.397  0.5009 -0.2021  0.4379
  971TIP3    H124328   6.108   2.519   1.451  2.5245 -1.1418 -0.0584
  971TIP3    H224329   5.981   2.498   1.371  0.8971  1.3899  1.7143
  972TIP3   OH224330   0.351   5.699  15.474 -0.8580 -0.1687 -0.1332
  972TIP3    H124331   0.289   5.765  15.506  0.4767  0.9771  0.1659
  972TIP3    H224332   0.314   5.672  15.390 -1.0344  1.5896 -0.6764
  973TIP3   OH224333   0.132   5.067   3.915  0.1017  0.1186 -0.2318
  973TIP3    H124334   0.050   5.022   3.895  0.5978 -0.9860  0.1595
  973TIP3    H224335   0.113   5.117   3.994 -0.3062  0.1865 -0.3691
  974TIP3   OH224336   5.331   3.819   5.412 -0.1239 -0.1189  0.1493
  974TIP3    H124337   5.302   3.761   5.482 -1.1288 -0.2899 -0.3876
  974TIP3    H224338   5.251   3.840   5.364  0.5686 -0.1710 -1.0669
  975TIP3   OH224339   3.761   4.059  15.581  0.8236  0.5078  0.0340
  975TIP3    H124340   3.746   3.982  15.526 -1.5866  1.0081 -0.1220
  975TIP3    H224341   3.825   4.030  15.647 -1.1753 -2.1660  0.9611
  976TIP3   OH224342   5.041   2.538  12.974  0.6075  0.4564 -0.0869
  976TIP3    H124343   4.976   2.546  13.044 -0.7993  1.4082 -1.4447
  976TIP3    H224344   4.996   2.567  12.895  2.5052  0.5351 -1.2104
  977TIP3   OH224345   6.072   2.850   0.451 -0.2229 -0.2020 -0.1225
  977TIP3    H124346   6.150   2.850   0.396 -0.4860  0.8136 -0.5096
  977TIP3    H224347   6.021   2.775   0.420  0.3627 -0.5729 -0.1990
  978TIP3   OH224348   4.182   0.683  13.450 -0.0003  0.1709 -0.1856
  978TIP3    H124349   4.243   0.749  13.482 -1.2467  0.4992  1.6752
  978TIP3    H224350   4.238   0.614  13.414  1.3557  1.6095 -0.9296
  979TIP3   OH224351   3.474   2.925  16.611 -0.0396  0.3046 -0.4573
  979TIP3    H124352   3.559   2.890  16.637  0.1586  0.5305 -0.7938
  979TIP3    H224353   3.411   2.863  16.647  0.2702  0.0959 -0.2674
  980TIP3   OH224354   4.798   2.521  10.885 -0.1932  0.3883  0.0394
  980TIP3    H124355   4.886   2.489  10.863 -0.2520  0.5054 -0.3635
  980TIP3    H224356   4.741   2.444  10.874  0.1933 -0.3995  2.7214
  981TIP3   OH224357   3.700   1.981   2.834  0.0044 -0.3978 -0.8426
  981TIP3    H124358   3.681   2.068   2.799  0.4801 -0.8818 -2.3754
  981TIP3    H224359   3.783   1.956   2.794 -0.6723 -2.0254 -1.3389
  982TIP3   OH224360   2.608   3.082  13.272  0.2592  0.2261  0.5749
  982TIP3    H124361   2.538   3.021  13.248 -0.3781  0.8835  0.7323
  982TIP3    H224362   2.609   3.080  13.368  0.5222  0.1494  0.5712
  983TIP3   OH224363   3.502   1.919  11.556 -0.1828  0.2946  0.1920
  983TIP3    H124364   3.594   1.944  11.558 -0.3874  1.0381  0.7943
  983TIP3    H224365   3.483   1.889  11.645 -0.9856  1.9477  0.6148
  984TIP3   OH224366   2.080   0.729   1.744 -0.1720 -0.2877 -0.2767
  984TIP3    H124367   2.015   0.798   1.736 -1.0309 -1.0534 -0.1660
  984TIP3    H224368   2.028   0.649   1.755  0.7882 -0.9666 -0.5413
  985TIP3   OH224369   6.010   4.352  16.868  0.0282  0.3673 -0.2546
  985TIP3    H124370   6.004   4.361  16.773 -0.3180  0.5236 -0.2158
  985TIP3    H224371   5.927   4.384  16.901  1.0129  2.5940  0.2633
  986TIP3   OH224372   1.757   6.456  15.681 -0.2781  0.4972 -0.1736
  986TIP3    H124373   1.765   6.548  15.704 -0.3823  0.8291 -1.3709
  986TIP3    H224374   1.714   6.415  15.756  0.8109  1.1894  0.8426
  987TIP3   OH224375   2.098   1.791   0.170 -0.2874  0.3751 -0.5998
  987TIP3    H124376   2.032   1.828   0.111  0.4084 -0.7342 -2.1384
  987TIP3    H224377   2.157   1.742   0.113  0.8110 -0.2043  0.9564
  988TIP3   OH224378   5.933   4.371   5.573  0.8814 -0.0442 -0.7315
  988TIP3    H124379   6.000   4.360   5.506  2.1358 -1.5644  0.6530
  988TIP3    H224380   5.966   4.320   5.647 -1.2812  0.1181  0.4182
  989TIP3   OH224381   1.305   3.104  14.211  0.6296 -0.1761  0.6237
  989TIP3    H124382   1.326   3.068  14.126 -1.1939 -0.0348  0.0766
  989TIP3    H224383   1.271   3.192  14.193 -1.9075 -0.9464  1.2184
  990TIP3   OH224384   0.544   3.376   1.394 -0.0581  0.7501 -0.3392
  990TIP3    H124385   0.608   3.367   1.324  0.2986 -0.5723  0.1249
  990TIP3    H224386   0.461   3.390   1.348  0.2080  0.1552 -1.0284
  991TIP3   OH224387   1.985   5.125   2.507  0.3783  0.0637  0.4391
  991TIP3    H124388   1.977   5.169   2.422  0.5624 -0.2014  0.2835
  991TIP3    H224389   2.070   5.152   2.541 -0.4659  1.6495  1.3930
  992TIP3   OH224390   0.113   6.145   2.674 -0.5067 -0.5616 -0.6233
  992TIP3    H124391   0.114   6.123   2.581 -0.3619 -2.1893 -0.2650
  992TIP3    H224392   0.087   6.065   2.718  2.9584 -1.0122  0.9900
  993TIP3   OH224393   6.371   3.647  13.764  0.3037 -0.2019 -0.6740
  993TIP3    H124394   6.317   3.687  13.695  0.3405  0.3734 -0.3801
  993TIP3    H224395   6.458   3.638  13.725  0.8583  1.9686 -0.1037
  994TIP3   OH224396   6.573   5.848  17.086  0.4557  0.0917 -0.2495
  994TIP3    H124397   6.516   5.772  17.095 -2.1003  1.5270 -2.5886
  994TIP3    H224398   6.622   5.833  17.005  1.6708 -0.0559  0.4943
  995TIP3   OH224399   3.845   3.913  13.352 -0.4779 -0.3631  0.0364
  995TIP3    H124400   3.751   3.901  13.352 -0.4409 -1.4657 -2.8594
  995TIP3    H224401   3.858   4.007  13.335 -1.0163 -0.1003  1.0288
  996TIP3   OH224402   6.323   4.388  13.235 -0.4416  0.1171 -0.5085
  996TIP3    H124403   6.286   4.398  13.147 -0.8702 -1.1228 -0.4793
  996TIP3    H224404   6.249   4.400  13.294 -0.4978 -0.7472 -0.3904
  997TIP3   OH224405   4.234   6.643   4.096  0.6547  0.1038 -0.0233
  997TIP3    H124406   4.288   6.588   4.039 -0.5980 -0.4368 -0.7090
  997TIP3    H224407   4.171   6.583   4.135 -0.5956  0.9913 -0.6073
  998TIP3   OH224408   2.524   3.247   2.913 -0.8827 -0.4672  0.8749
  998TIP3    H124409   2.436   3.210   2.902  0.2001 -2.7294 -0.8991
  998TIP3    H224410   2.583   3.175   2.893  1.4001  1.6294 -0.4592
  999TIP3   OH224411   0.692   6.405  15.311 -0.3455  0.5131 -0.0972
  999TIP3    H124412   0.701   6.407  15.406  0.5028  0.5458 -0.1660
  999TIP3    H224413   0.670   6.495  15.287 -1.7430  0.2571  0.1590
 1000TIP3   OH224414   2.141   6.483   4.104 -0.1197  1.5273  0.3718
 1000TIP3    H124415   2.237   6.481   4.106 -0.0741 -0.1226 -0.8784
 1000TIP3    H224416   2.115   6.478   4.195  1.0103 -1.1607  0.6246
 1001TIP3   OH224417   6.509   0.732   3.723 -0.0508  0.0112 -0.3883
 1001TIP3    H124418   6.461   0.812   3.701  1.9120  1.3977  0.1103
 1001TIP3    H224419   6.544   0.701   3.640 -1.2594 -0.6886 -0.6660
 1002TIP3   OH224420   0.192   2.139  15.033  0.7510 -0.4434 -0.0688
 1002TIP3    H124421   0.125   2.079  15.065  1.4479 -0.9914  0.3829
 1002TIP3    H224422   0.264   2.083  15.005  0.2620  0.0241 -2.4401
 1003TIP3   OH224423   3.119   4.265  14.356 -0.2679  0.2576  0.2287
 1003TIP3    H124424   3.034   4.258  14.313 -0.4669 -0.6566  0.7618
 1003TIP3    H224425   3.139   4.359  14.353 -1.1270  0.4381 -0.2107
 1004TIP3   OH224426   4.108   3.775   4.631 -0.0554 -0.0680  0.2526
 1004TIP3    H124427   4.117   3.692   4.585  0.2160  0.3449 -0.4580
 1004TIP3    H224428   4.069   3.752   4.715  0.6504 -0.9926  0.3427
 1005TIP3   OH224429   0.896   1.472  13.602  0.5731 -0.4846 -0.0569
 1005TIP3    H124430   0.817   1.437  13.561 -0.5698 -0.4962  2.0217
 1005TIP3    H224431   0.877   1.565  13.616  2.0423  0.1774 -1.9658
 1006TIP3   OH224432   2.595   3.090  13.561  0.7591 -0.4207 -0.1278
 1006TIP3    H124433   2.606   3.122  13.650  0.6536 -2.5365  0.6975
 1006TIP3    H224434   2.512   3.041  13.563  1.7902 -2.2943 -0.7961
 1007TIP3   OH224435   5.830   4.559  16.259 -0.3656  0.2198  0.0376
 1007TIP3    H124436   5.911   4.601  16.290 -2.2468  2.9811  1.5766
 1007TIP3    H224437   5.843   4.550  16.164  1.1564  1.9858  0.0195
 1008TIP3   OH224438   3.858   0.596   2.964 -0.3126  0.4996 -0.1786
 1008TIP3    H124439   3.899   0.610   2.879  1.5263  1.0783  0.7582
 1008TIP3    H224440   3.764   0.593   2.946  0.1122 -1.8304 -2.5654
 1009TIP3   OH224441   3.151   1.286  14.977  0.5619 -0.4985  0.3828
 1009TIP3    H124442   3.114   1.261  14.892 -0.2296 -2.4090  1.2148
 1009TIP3    H224443   3.245   1.277  14.966  0.5733  0.7901 -0.7175
 1010TIP3   OH224444   4.103   0.709   3.310 -0.2740  0.5925 -0.0516
 1010TIP3    H124445   4.143   0.727   3.395 -0.6824  2.1317 -0.1579
 1010TIP3    H224446   4.061   0.791   3.286  0.5262  0.4548 -2.1221
 1011TIP3   OH224447   4.927   5.092   3.224 -0.2239 -0.4455  0.2245
 1011TIP3    H124448   4.938   5.084   3.319 -0.1711  0.6487  0.3288
 1011TIP3    H224449   4.999   5.149   3.196 -1.1238  0.5040 -0.2355
 1012TIP3   OH224450   5.724   3.400  13.431 -0.2384  0.1546 -0.1971
 1012TIP3    H124451   5.741   3.342  13.357 -0.3590 -0.2281  0.0724
 1012TIP3    H224452   5.632   3.423  13.424 -0.5197 -0.7368  0.4308
 1013TIP3   OH224453   1.219   1.176  11.484 -0.1478  0.4747 -1.2974
 1013TIP3    H124454   1.178   1.186  11.569 -0.4236  1.1041 -1.4997
 1013TIP3    H224455   1.275   1.098  11.493  0.7543  1.2170 -0.1844
 1014TIP3   OH224456   6.637   0.961  12.433 -0.4662  0.6272  0.2412
 1014TIP3    H124457   6.620   0.955  12.339  1.1609 -0.3597 -0.0385
 1014TIP3    H224458   6.671   1.049  12.445  1.0086  0.1824 -0.4400
 1015TIP3   OH224459   0.967   5.198  15.332 -0.0071  0.0082  0.4488
 1015TIP3    H124460   1.008   5.285  15.338 -0.0884  0.0127  0.9241
 1015TIP3    H224461   1.005   5.148  15.404  1.3015 -0.8880 -0.8010
 1016TIP3   OH224462   3.424   5.448   5.820 -1.0055 -0.1574  0.5144
 1016TIP3    H124463   3.354   5.416   5.877 -0.8316  0.6871  1.2244
 1016TIP3    H224464   3.494   5.384   5.829 -0.6846  0.3679  1.8680
 1017TIP3   OH224465   5.670   0.890  12.808  0.1062 -0.0751 -0.5512
 1017TIP3    H124466   5.694   0.982  12.799 -0.4996  0.2615  0.9623
 1017TIP3    H224467   5.753   0.842  12.805  0.8382  0.8645  2.3398
 1018TIP3   OH224468   2.010   3.489  10.983 -0.3996  0.7881 -0.5164
 1018TIP3    H124469   2.080   3.434  10.950  0.5206  2.7283 -1.9865
 1018TIP3    H224470   1.931   3.454  10.942 -0.0174 -0.1140 -0.5121
 1019TIP3   OH224471   6.471   4.305  11.772  0.8251  0.0651  0.2586
 1019TIP3    H124472   6.406   4.374  11.759 -1.2003 -2.2985 -4.1125
 1019TIP3    H224473   6.427   4.242  11.830  1.2513  0.6379  1.2462
 1020TIP3   OH224474   4.532   4.706   0.717 -0.3183 -0.1340  0.2488
 1020TIP3    H124475   4.522   4.649   0.793 -1.9982  0.2505  0.3446
 1020TIP3    H224476   4.463   4.771   0.726  0.1676  0.6051 -1.0263
 1021TIP3   OH224477   1.961   4.001  11.495 -0.1729 -0.0309  0.5228
 1021TIP3    H124478   1.872   3.990  11.463 -0.4596 -1.0389  1.6002
 1021TIP3    H224479   1.952   4.000  11.591  1.1014 -1.0541  0.6494
 1022TIP3   OH224480   1.818   4.554   3.178  0.6067  0.0061 -0.8664
 1022TIP3    H124481   1.794   4.621   3.242 -0.3493 -1.1492  0.0230
 1022TIP3    H224482   1.841   4.604   3.099  0.1663  1.3821 -0.1627
 1023TIP3   OH224483   1.991   4.534   4.243 -0.0044  0.2233 -0.6344
 1023TIP3    H124484   1.905   4.542   4.201  0.3340 -0.9673 -1.6164
 1023TIP3    H224485   1.975   4.557   4.335 -0.8837  2.2943 -1.2533
 1024TIP3   OH224486   6.406   3.720  12.676  0.7810  1.1002  0.4618
 1024TIP3    H124487   6.351   3.730  12.754  1.3120 -0.5812  1.1096
 1024TIP3    H224488   6.469   3.652  12.701  0.4906 -0.0233 -1.6790
 1025TIP3   OH224489   3.168   4.271   6.419 -0.0459  0.0810  0.1724
 1025TIP3    H124490   3.091   4.288   6.364  0.2779 -0.2562 -0.4010
 1025TIP3    H224491   3.134   4.225   6.495 -0.4825  0.4012  0.1742
 1026TIP3   OH224492   1.969   2.158   4.253 -0.4236 -0.4684 -0.5960
 1026TIP3    H124493   1.897   2.130   4.196  1.1697  0.1076 -3.0728
 1026TIP3    H224494   1.960   2.254   4.257 -0.3752 -0.4850 -0.0701
 1027TIP3   OH224495   5.733   0.462  13.084 -0.3286 -0.6182 -0.3126
 1027TIP3    H124496   5.708   0.418  13.166 -0.3156  0.0850  0.0783
 1027TIP3    H224497   5.726   0.394  13.017 -1.6647 -0.8786  0.0532
 1028TIP3   OH224498   3.454   6.084  16.674 -0.2208 -0.0198 -0.4928
 1028TIP3    H124499   3.464   6.170  16.634 -1.1162 -0.1114 -0.9450
 1028TIP3    H224500   3.398   6.036  16.613  0.4960 -1.0191 -0.3888
 1029TIP3   OH224501   2.239   5.991   6.154 -0.0295 -0.2104 -0.1259
 1029TIP3    H124502   2.250   5.915   6.210 -1.2805 -0.4773 -0.2128
 1029TIP3    H224503   2.163   6.037   6.190 -2.9566 -2.0651 -3.3336
 1030TIP3   OH224504   3.226   1.424   3.117  0.1042  0.0486  0.3653
 1030TIP3    H124505   3.144   1.468   3.096 -0.0773 -0.9504 -1.1829
 1030TIP3    H224506   3.204   1.367   3.191 -0.6754 -0.3666 -0.1689
 1031TIP3   OH224507   3.079   1.980   1.841  0.0785 -0.1083  0.0952
 1031TIP3    H124508   3.168   1.965   1.807  0.2884  1.6253 -0.2536
 1031TIP3    H224509   3.066   1.913   1.907  0.0447 -3.0657 -2.6756
 1032TIP3   OH224510   6.466   0.554  14.351  0.3001  0.7631  1.0662
 1032TIP3    H124511   6.424   0.615  14.412 -1.6699  0.9188 -0.3304
 1032TIP3    H224512   6.540   0.603  14.316  0.4652  1.2734  2.0875
 1033TIP3   OH224513   2.783   3.665   5.171  0.3962  0.4203 -0.1326
 1033TIP3    H124514   2.712   3.688   5.110 -0.6202  1.4328  1.3732
 1033TIP3    H224515   2.807   3.576   5.146 -1.6017 -0.0670 -0.5487
 1034TIP3   OH224516   0.582   3.585  16.694  0.0205 -0.4438  0.3602
 1034TIP3    H124517   0.557   3.618  16.608 -0.8980  1.3601  1.2576
 1034TIP3    H224518   0.647   3.517  16.676 -0.1549 -0.1159 -1.7432
 1035TIP3   OH224519   6.448   0.984   4.013 -0.2009  0.1295 -0.7176
 1035TIP3    H124520   6.362   0.963   4.049 -0.8857 -4.2743 -3.9878
 1035TIP3    H224521   6.430   1.044   3.941 -0.2249  0.7800 -0.1765
 1036TIP3   OH224522   2.502   2.774   1.679 -0.1302  0.2504 -0.0944
 1036TIP3    H124523   2.537   2.861   1.696  1.8507 -0.4517 -0.3514
 1036TIP3    H224524   2.522   2.758   1.587 -1.8831  0.1029 -0.4885
 1037TIP3   OH224525   4.738   2.552   5.463  0.1811 -0.3241  0.0465
 1037TIP3    H124526   4.789   2.519   5.389 -1.1548 -0.5577 -0.8194
 1037TIP3    H224527   4.789   2.625   5.497  0.5057  0.2594 -1.5802
 1038TIP3   OH224528   5.204   3.728  11.529  0.0201 -0.3207 -0.3212
 1038TIP3    H124529   5.160   3.799  11.483  0.7736 -0.3032 -1.0328
 1038TIP3    H224530   5.181   3.649  11.480  1.4783 -0.2031 -1.2445
 1039TIP3   OH224531   3.473   1.908  15.284  0.4042  0.2780 -0.0012
 1039TIP3    H124532   3.426   1.887  15.203  0.1549  3.0291 -0.6589
 1039TIP3    H224533   3.407   1.899  15.352  0.3867 -1.1612 -0.1574
 1040TIP3   OH224534   1.275   6.207   2.692 -0.0621 -0.0072 -0.0385
 1040TIP3    H124535   1.193   6.253   2.712  1.1344  1.7582  1.1834
 1040TIP3    H224536   1.285   6.216   2.597 -1.2531 -0.2242 -0.1974
 1041TIP3   OH224537   2.059   3.752  10.237 -0.7862 -0.5813  0.2746
 1041TIP3    H124538   1.995   3.815  10.205 -0.3266 -0.2447  0.0038
 1041TIP3    H224539   2.091   3.790  10.319 -0.7280 -0.6115  0.2657
 1042TIP3   OH224540   6.239   5.479   0.286  0.0414  0.2363  0.1693
 1042TIP3    H124541   6.324   5.455   0.249 -0.3961  1.4146 -1.7950
 1042TIP3    H224542   6.215   5.406   0.342  1.2734 -1.1994 -1.0950
 1043TIP3   OH224543   3.337   4.875   1.063 -0.2341  0.3734  0.2350
 1043TIP3    H124544   3.379   4.862   0.977 -2.7344  2.3465 -1.4311
 1043TIP3    H224545   3.287   4.794   1.077  0.3510 -0.0489 -0.0595
 1044TIP3   OH224546   4.020   0.799  17.152  0.0355  0.1713  0.0624
 1044TIP3    H124547   4.038   0.825  17.242 -0.6507 -0.3585  0.3666
 1044TIP3    H224548   3.963   0.868  17.118 -1.6019 -0.7621  0.7977
 1045TIP3   OH224549   3.381   3.697  13.688 -0.0244 -0.0869  0.6292
 1045TIP3    H124550   3.370   3.771  13.748 -0.2199 -1.0978  1.8680
 1045TIP3    H224551   3.338   3.624  13.732  1.1923 -1.2208 -0.0241
 1046TIP3   OH224552   5.602   1.218   3.513 -0.6376  0.3201  0.0107
 1046TIP3    H124553   5.623   1.210   3.420 -0.0940 -0.0954  0.1688
 1046TIP3    H224554   5.541   1.292   3.517 -0.9409  0.1208 -0.7176
 1047TIP3   OH224555   2.761   5.529   4.765 -0.4621 -0.4441  0.0667
 1047TIP3    H124556   2.675   5.499   4.793  0.7107 -0.8427  3.7880
 1047TIP3    H224557   2.757   5.625   4.774  0.0651 -0.5926  2.5392
 1048TIP3   OH224558   5.699   4.248  15.678  0.1910 -0.4827 -0.0901
 1048TIP3    H124559   5.723   4.204  15.760  0.5648 -1.4031 -0.6923
 1048TIP3    H224560   5.776   4.301  15.656 -0.1580  0.3027  0.4886
 1049TIP3   OH224561   3.639   1.682  16.267 -0.0072 -0.0488  0.2976
 1049TIP3    H124562   3.595   1.608  16.225 -0.4057  0.0336  0.5565
 1049TIP3    H224563   3.621   1.757  16.209  0.4168 -0.1602  0.0244
 1050TIP3   OH224564   0.826   0.432  14.297 -0.5908 -0.2103  0.1671
 1050TIP3    H124565   0.877   0.396  14.225 -1.6751 -1.1164 -0.1634
 1050TIP3    H224566   0.875   0.509  14.325 -0.3134  0.3450 -1.7493
 1051TIP3   OH224567   2.926   3.470  11.026 -0.2107 -0.3783 -0.1392
 1051TIP3    H124568   2.950   3.494  11.115  0.4099 -1.0375 -0.1233
 1051TIP3    H224569   2.943   3.549  10.974 -2.3052  0.6368  0.5855
 1052TIP3   OH224570   0.184   3.937   4.370  0.1440  0.0103  0.1993
 1052TIP3    H124571   0.245   3.944   4.296 -0.3501 -1.5681 -0.3879
 1052TIP3    H224572   0.231   3.978   4.443  1.6274 -0.5314 -0.4135
 1053TIP3   OH224573   3.586   2.048  13.049  0.2376  0.3288 -0.9104
 1053TIP3    H124574   3.552   2.043  12.960  0.0670 -2.1219 -0.7817
 1053TIP3    H224575   3.523   2.102  13.096  0.1984  1.4469 -2.1911
 1054TIP3   OH224576   3.023   1.132   3.018  0.0572 -0.1569  0.1027
 1054TIP3    H124577   3.003   1.149   3.110 -1.5563 -1.0153 -0.0516
 1054TIP3    H224578   2.944   1.090   2.983  0.2603  0.9984 -1.9142
 1055TIP3   OH224579   5.767   2.504   5.032 -0.5542  0.1411  0.6838
 1055TIP3    H124580   5.849   2.486   4.988 -1.0140 -0.8227  0.1780
 1055TIP3    H224581   5.706   2.529   4.962 -0.1212  3.2839  1.2886
 1056TIP3   OH224582   1.102   5.250  12.769 -0.0267 -0.0343 -0.3634
 1056TIP3    H124583   1.129   5.281  12.855  0.0851 -1.1641  0.0257
 1056TIP3    H224584   1.156   5.173  12.753 -0.0803  0.1281 -1.4332
 1057TIP3   OH224585   0.816   1.095   1.709  0.0132 -0.0597  0.0440
 1057TIP3    H124586   0.763   1.163   1.668 -1.6320 -1.9186 -1.1236
 1057TIP3    H224587   0.758   1.019   1.713  1.9318 -1.5782  0.7733
 1058TIP3   OH224588   4.561   5.612   3.388 -1.0498  0.5690  0.1217
 1058TIP3    H124589   4.519   5.608   3.474 -1.6433  1.0619 -0.1362
 1058TIP3    H224590   4.643   5.658   3.404 -1.1995  0.7413  0.4195
 1059TIP3   OH224591   4.202   2.318  11.471  0.1586 -0.2243 -0.3830
 1059TIP3    H124592   4.230   2.358  11.389  0.9438 -2.6494 -1.3929
 1059TIP3    H224593   4.253   2.363  11.539  0.8966  0.5479 -1.4277
 1060TIP3   OH224594   5.553   4.787   2.789 -0.2063  0.0001 -0.1113
 1060TIP3    H124595   5.526   4.833   2.709 -0.9385  0.0823  0.1766
 1060TIP3    H224596   5.535   4.695   2.771 -0.9940  0.0890  0.1992
 1061TIP3   OH224597   3.303   3.928  12.063  0.0014  0.4355  0.0225
 1061TIP3    H124598   3.324   3.841  12.095  1.3139  1.2602  1.5643
 1061TIP3    H224599   3.218   3.948  12.102 -0.4510 -0.2720 -0.5978
 1062TIP3   OH224600   0.151   3.868   0.645  0.3290  0.5226  0.1023
 1062TIP3    H124601   0.146   3.773   0.633  0.7835  0.6727 -1.4118
 1062TIP3    H224602   0.082   3.887   0.709  0.0948 -0.7904  0.2770
 1063TIP3   OH224603   1.676   4.421  16.439 -0.4132 -0.5555  0.2063
 1063TIP3    H124604   1.740   4.437  16.509 -0.3171  2.3372 -0.4049
 1063TIP3    H224605   1.714   4.464  16.363 -2.6387  0.4561 -0.4045
 1064TIP3   OH224606   5.188   3.100  11.161 -0.4421 -0.6950 -0.1468
 1064TIP3    H124607   5.163   3.192  11.148 -1.2198 -1.1442 -2.1094
 1064TIP3    H224608   5.185   3.088  11.256  0.8750  1.6086  0.2699
 1065TIP3   OH224609   0.656   1.514  11.862 -0.2844  0.4191 -0.1296
 1065TIP3    H124610   0.573   1.544  11.826 -0.5665  1.4141  1.2338
 1065TIP3    H224611   0.632   1.474  11.946  0.2632 -2.4295 -1.2015
 1066TIP3   OH224612   2.236   1.541  14.794 -0.1182  0.2592  0.3471
 1066TIP3    H124613   2.236   1.487  14.873  1.7499  0.2952  0.4196
 1066TIP3    H224614   2.310   1.600  14.805  0.4379  0.0020 -1.6016
 1067TIP3   OH224615   1.910   0.089   5.389 -0.7092 -0.0456 -0.1409
 1067TIP3    H124616   1.857   0.011   5.370  0.8777 -1.2445  0.1656
 1067TIP3    H224617   1.998   0.055   5.403 -0.3747  1.5641  2.1459
 1068TIP3   OH224618   2.226   2.688   5.509 -0.1710  0.1702 -0.2538
 1068TIP3    H124619   2.276   2.710   5.587  1.0193 -0.5859 -0.7664
 1068TIP3    H224620   2.136   2.680   5.539  0.2600 -0.0756  1.0295
 1069TIP3   OH224621   3.916   6.791  10.999 -0.1915  0.2253 -0.1484
 1069TIP3    H124622   3.894   6.884  10.996  2.2945  0.8690 -1.8243
 1069TIP3    H224623   3.941   6.775  11.090  1.3947  1.8120 -0.2320
 1070TIP3   OH224624   3.000   4.309   1.574 -0.8699 -0.0508  0.0240
 1070TIP3    H124625   3.090   4.275   1.566  0.0089  1.8162  1.2951
 1070TIP3    H224626   2.966   4.308   1.485  0.7115 -0.0521 -0.6088
 1071TIP3   OH224627   0.837   4.741  13.510  0.5246 -0.5793  0.4250
 1071TIP3    H124628   0.853   4.651  13.481  0.0496 -1.0550  1.5804
 1071TIP3    H224629   0.890   4.794  13.451 -0.6675 -1.4520 -1.5343
 1072TIP3   OH224630   1.807   1.003  12.867  0.0127 -0.1871 -0.0078
 1072TIP3    H124631   1.866   1.072  12.837 -1.7399  1.5483  0.3301
 1072TIP3    H224632   1.837   0.924  12.822  2.2506  0.7087 -0.2206
 1073TIP3   OH224633   3.090   0.252   0.583 -0.2133  0.5392  0.4531
 1073TIP3    H124634   3.101   0.238   0.677  1.6061  1.6294  0.4662
 1073TIP3    H224635   3.111   0.344   0.571 -0.9412  0.5382 -0.9737
 1074TIP3   OH224636   3.504   0.484   1.331 -0.5159 -0.1519 -0.2750
 1074TIP3    H124637   3.513   0.579   1.333  0.1913 -0.1907 -1.0564
 1074TIP3    H224638   3.486   0.460   1.422  1.1207  0.5585  0.2737
 1075TIP3   OH224639   1.047   3.869   5.453 -0.6384  0.1114  0.2999
 1075TIP3    H124640   1.051   3.783   5.496  1.0752  0.8156  1.6976
 1075TIP3    H224641   1.097   3.858   5.372 -1.1920 -0.4294  0.0288
 1076TIP3   OH224642   5.435   5.185  15.787  0.1771  0.0905 -0.2512
 1076TIP3    H124643   5.355   5.183  15.734  0.0608  1.0486 -0.1212
 1076TIP3    H224644   5.414   5.130  15.863 -0.5682  0.7899  0.0629
 1077TIP3   OH224645   3.782   5.341   1.414 -0.2397  0.5158  0.3354
 1077TIP3    H124646   3.710   5.372   1.359 -0.6168 -0.9746 -0.0593
 1077TIP3    H224647   3.855   5.329   1.354 -0.0602  0.7584  0.5045
 1078TIP3   OH224648   5.686   2.857   3.540  0.5140  0.4057  0.1006
 1078TIP3    H124649   5.660   2.940   3.499 -1.7445  0.0556  0.7448
 1078TIP3    H224650   5.737   2.812   3.472 -0.3950  1.2321 -1.1666
 1079TIP3   OH224651   5.407   6.791   2.982 -0.3778  0.2985 -0.2514
 1079TIP3    H124652   5.393   6.699   3.003  1.4964  0.0532  0.0849
 1079TIP3    H224653   5.381   6.800   2.891  0.2706 -0.7927 -0.5582
 1080TIP3   OH224654   4.107   2.711   5.788  0.2677  0.1033 -0.1034
 1080TIP3    H124655   4.179   2.651   5.768  0.4855  0.3836 -0.1699
 1080TIP3    H224656   4.150   2.790   5.821 -0.0222  0.1782  0.1034
 1081TIP3   OH224657   0.888   1.986   0.207 -0.4450  0.1490  0.2920
 1081TIP3    H124658   0.965   1.955   0.161  0.1441  1.6347  0.2194
 1081TIP3    H224659   0.885   1.935   0.288  0.7439  0.2190  0.3887
 1082TIP3   OH224660   4.075   4.370  11.328 -0.1338 -0.5688 -0.6402
 1082TIP3    H124661   4.125   4.403  11.403 -0.5594 -0.6564 -0.3159
 1082TIP3    H224662   4.081   4.440  11.262 -0.0041 -0.3678 -0.4158
 1083TIP3   OH224663   6.556   4.001  15.253 -0.3445  0.0554 -0.1941
 1083TIP3    H124664   6.645   4.034  15.236  0.4481 -1.6906  0.2304
 1083TIP3    H224665   6.511   4.009  15.168  0.0717  1.3208 -0.3206
 1084TIP3   OH224666   6.802   2.760   5.416  0.1526 -0.3974  0.6908
 1084TIP3    H124667   6.723   2.814   5.410  0.5090 -0.0765 -2.1633
 1084TIP3    H224668   6.772   2.671   5.398  0.1524 -0.6063  1.6685
 1085TIP3   OH224669   5.257   5.414  13.371 -0.7807 -0.1870  0.3091
 1085TIP3    H124670   5.337   5.365  13.390 -0.6548 -0.2728 -0.3989
 1085TIP3    H224671   5.288   5.502  13.350 -0.8941 -0.1521  0.2870
 1086TIP3   OH224672   5.730   2.739  14.863  0.5166 -0.2147  0.3860
 1086TIP3    H124673   5.703   2.654  14.829 -0.2637  0.0195  0.4127
 1086TIP3    H224674   5.652   2.775  14.905  1.0260  0.2140  0.9933
 1087TIP3   OH224675   0.942   1.553   5.144  0.3079  0.1232  0.1147
 1087TIP3    H124676   0.899   1.604   5.213 -1.2442 -0.0319 -0.6868
 1087TIP3    H224677   0.900   1.467   5.148 -0.9560  0.5709 -1.9857
 1088TIP3   OH224678   0.702   2.903   3.813 -0.2149 -0.3294 -0.0043
 1088TIP3    H124679   0.643   2.869   3.880 -1.3784  0.4553 -0.6106
 1088TIP3    H224680   0.717   2.829   3.754  0.1691 -0.7946  0.6673
 1089TIP3   OH224681   4.995   4.863   5.478  0.2621  0.3784 -0.2491
 1089TIP3    H124682   4.962   4.913   5.553  0.0730 -1.6811  1.1055
 1089TIP3    H224683   5.090   4.869   5.486  0.2425  0.3742 -0.0014
 1090TIP3   OH224684   0.622   6.641   4.795  0.2095 -0.5193 -0.0696
 1090TIP3    H124685   0.710   6.666   4.768  0.2243 -1.1402 -0.6242
 1090TIP3    H224686   0.567   6.662   4.720 -0.5178  1.9469  1.0466
 1091TIP3   OH224687   3.246   2.416   3.020 -0.4367  0.4829 -0.1187
 1091TIP3    H124688   3.214   2.496   3.064 -2.5066 -0.7951  0.8841
 1091TIP3    H224689   3.211   2.345   3.073  1.0280 -1.1282 -1.2141
 1092TIP3   OH224690   4.595   0.815  12.864  0.1458  0.3960  0.1673
 1092TIP3    H124691   4.534   0.870  12.815 -0.8797 -0.0761  0.8636
 1092TIP3    H224692   4.562   0.818  12.954  1.7620  0.9438  0.7695
 1093TIP3   OH224693   6.686   0.037  12.058  0.7059 -0.0130 -0.4857
 1093TIP3    H124694   6.709  -0.016  11.981  2.0109  0.8300 -0.7068
 1093TIP3    H224695   6.722  -0.011  12.132  0.2334 -0.3706 -0.4816
 1094TIP3   OH224696   5.462   3.029  14.370  0.5140  0.5202  0.5274
 1094TIP3    H124697   5.368   3.027  14.391  0.6780  0.1072  1.2704
 1094TIP3    H224698   5.469   3.090  14.296 -0.2738  0.9689  0.8071
 1095TIP3   OH224699   6.634   0.496  16.281 -0.3452  0.0600  0.7197
 1095TIP3    H124700   6.657   0.410  16.245 -2.2510 -0.3871  0.4615
 1095TIP3    H224701   6.717   0.534  16.306  0.8193 -0.8177 -1.4788
 1096TIP3   OH224702   3.942   3.209   3.444 -0.3703 -0.1965  0.1236
 1096TIP3    H124703   3.951   3.275   3.513  1.2942 -1.2682  1.0034
 1096TIP3    H224704   3.864   3.236   3.396 -1.5995  0.6243  2.3907
 1097TIP3   OH224705   2.949   4.274   5.547  0.0498 -0.2630  0.1774
 1097TIP3    H124706   3.009   4.348   5.552  2.3560 -2.1141  3.0060
 1097TIP3    H224707   2.909   4.281   5.460  2.5361  2.4615 -0.8900
 1098TIP3   OH224708   0.551   4.404   5.702 -0.2103  0.1385  0.3911
 1098TIP3    H124709   0.618   4.447   5.649 -0.1491  0.0645  0.4072
 1098TIP3    H224710   0.563   4.311   5.685 -0.5299  0.1433  0.1371
 1099TIP3   OH224711   2.411   4.475   5.427 -0.2458 -0.1110 -0.1729
 1099TIP3    H124712   2.343   4.489   5.493  0.0031  1.1003 -0.1498
 1099TIP3    H224713   2.478   4.423   5.473 -0.0214  0.8175  0.5933
 1100TIP3   OH224714   5.789   6.627   4.005 -0.0143  0.1318 -0.1884
 1100TIP3    H124715   5.873   6.583   4.015  0.4750  1.2471  0.7816
 1100TIP3    H224716   5.725   6.562   4.033  0.6906  0.0354  1.2966
 1101TIP3   OH224717   2.378   6.187  15.181 -0.5049  0.6879 -0.1904
 1101TIP3    H124718   2.305   6.131  15.209 -0.0296  0.3943  0.4718
 1101TIP3    H224719   2.374   6.262  15.241  0.7773 -0.1460  0.9854
 1102TIP3   OH224720   6.133   4.461   1.320  0.3522  0.1216 -0.4735
 1102TIP3    H124721   6.041   4.457   1.347 -0.3413  0.1287 -2.6722
 1102TIP3    H224722   6.152   4.372   1.288  0.9890  0.2273 -0.3894
 1103TIP3   OH224723   5.577   1.765   4.362 -0.3817 -0.4439  0.4006
 1103TIP3    H124724   5.632   1.838   4.390 -1.2395  0.2814  0.2351
 1103TIP3    H224725   5.595   1.756   4.268 -0.6952 -0.0710  0.3031
 1104TIP3   OH224726   5.581   4.273   4.673 -0.0682  0.1209 -0.2255
 1104TIP3    H124727   5.514   4.340   4.685 -0.5708 -0.3751 -0.2144
 1104TIP3    H224728   5.553   4.223   4.597  0.1693 -0.2365 -0.0855
 1105TIP3   OH224729   3.647   6.736  17.129 -0.0672 -0.1735  0.8252
 1105TIP3    H124730   3.593   6.796  17.181 -1.7257 -0.9718  0.0872
 1105TIP3    H224731   3.709   6.793  17.084 -0.4240  0.7983  1.5185
 1106TIP3   OH224732   6.228   4.412  11.803  0.2170  0.5092  0.0673
 1106TIP3    H124733   6.209   4.464  11.725 -0.6036  1.5219  0.9190
 1106TIP3    H224734   6.172   4.335  11.795  0.3818  0.4454 -0.5033
 1107TIP3   OH224735   0.821   6.666   3.016  0.2150 -0.3488  0.0119
 1107TIP3    H124736   0.915   6.659   3.035  0.2083  0.7904  0.5441
 1107TIP3    H224737   0.782   6.688   3.100 -0.4451 -0.1324 -0.3484
 1108TIP3   OH224738   5.549   2.627   1.542 -0.8877 -0.0254 -0.2364
 1108TIP3    H124739   5.497   2.568   1.488 -1.8441 -0.6893  1.3453
 1108TIP3    H224740   5.485   2.672   1.598  0.1270 -0.0704  1.0026
 1109TIP3   OH224741   1.933   6.605  11.425  0.0394 -0.2374 -0.1164
 1109TIP3    H124742   2.004   6.573  11.370 -0.4655  0.2308 -1.0500
 1109TIP3    H224743   1.972   6.611  11.513  0.6207 -1.7465 -0.2466
 1110TIP3   OH224744   1.463   2.741   1.914 -0.0992  1.1360 -0.6530
 1110TIP3    H124745   1.448   2.835   1.906 -1.8369  1.0939  1.2482
 1110TIP3    H224746   1.381   2.701   1.885  0.7162  0.1609 -1.7183
 1111TIP3   OH224747   6.654   1.193  16.143  0.2596 -0.5535 -0.1493
 1111TIP3    H124748   6.712   1.252  16.191  0.1541 -0.9764  0.5047
 1111TIP3    H224749   6.700   1.176  16.061  0.7003 -0.2715  0.0348
 1112TIP3   OH224750   5.366   5.752   4.029  0.4855  0.2849  0.4446
 1112TIP3    H124751   5.295   5.791   3.977  0.3978 -1.6063 -0.9401
 1112TIP3    H224752   5.437   5.740   3.967  1.1924  0.0071  1.2904
 1113TIP3   OH224753   2.023   6.651   3.239 -0.6200 -0.0185 -0.0992
 1113TIP3    H124754   2.062   6.566   3.218 -3.1428 -1.0766 -0.8613
 1113TIP3    H224755   2.094   6.701   3.279  1.2461 -2.0696 -0.6684
 1114TIP3   OH224756   4.741   5.156  11.304 -0.2149  0.2581 -0.5964
 1114TIP3    H124757   4.790   5.234  11.277  0.1430  0.7673  1.3987
 1114TIP3    H224758   4.713   5.174  11.394 -0.3533 -1.7987 -0.1715
 1115TIP3   OH224759   3.035   5.877  12.953  0.5034  0.5517 -0.1185
 1115TIP3    H124760   2.958   5.923  12.987 -0.2837 -0.4297 -0.5314
 1115TIP3    H224761   3.003   5.829  12.877  1.0900 -1.3190  0.7510
 1116TIP3   OH224762   3.985   6.051  12.119 -0.8010  1.0696  0.0379
 1116TIP3    H124763   4.041   6.128  12.129  1.0408 -0.0598 -1.0836
 1116TIP3    H224764   3.934   6.049  12.200  2.2086  1.0701  2.1004
 1117TIP3   OH224765   5.824   5.273  14.161 -0.5952 -0.0964 -0.5583
 1117TIP3    H124766   5.737   5.272  14.122 -0.6162 -1.5015 -0.5140
 1117TIP3    H224767   5.882   5.240  14.093 -0.2166  0.0751 -0.3223
 1118TIP3   OH224768   0.411   1.386  12.459 -0.1449 -0.9793  0.0228
 1118TIP3    H124769   0.319   1.368  12.441 -0.4502  0.3111  0.1545
 1118TIP3    H224770   0.413   1.479  12.483  1.0787 -1.1929  0.8544
 1119TIP3   OH224771   1.841   5.635   2.869 -0.0130 -0.1373 -0.2563
 1119TIP3    H124772   1.794   5.580   2.931  1.4461 -2.3870 -1.0086
 1119TIP3    H224773   1.919   5.663   2.916  0.0923 -0.1544 -0.4193
 1120TIP3   OH224774   2.257   5.821   1.658  0.1872  0.2092  0.1400
 1120TIP3    H124775   2.238   5.883   1.587  2.4880  1.7519  0.7609
 1120TIP3    H224776   2.307   5.751   1.615 -0.6035 -0.1665 -0.1862
 1121TIP3   OH224777   6.664   0.365   0.876  0.0368 -0.3101 -0.4808
 1121TIP3    H124778   6.600   0.395   0.811  0.4576  1.2734 -0.2022
 1121TIP3    H224779   6.621   0.378   0.960 -0.1480 -1.4767 -0.3770
 1122TIP3   OH224780   1.884   0.625   2.255 -0.7159  0.2628 -0.1182
 1122TIP3    H124781   1.822   0.698   2.247 -1.0318  0.0762  0.5692
 1122TIP3    H224782   1.864   0.568   2.181 -0.4305  0.8955 -0.6966
 1123TIP3   OH224783   1.385   3.458  11.776  0.5172  0.1117 -0.1623
 1123TIP3    H124784   1.305   3.405  11.771 -0.0581  0.9397  0.0236
 1123TIP3    H224785   1.355   3.544  11.807  1.6493  0.0846  1.1114
 1124TIP3   OH224786   1.623   0.110   5.625  0.5740  0.3349  0.2095
 1124TIP3    H124787   1.696   0.166   5.600  2.7255 -2.8847 -1.5561
 1124TIP3    H224788   1.569   0.105   5.546 -0.0505  0.5182  0.6158
 1125TIP3   OH224789   2.101   5.686  14.200 -0.0596 -0.7325 -0.2765
 1125TIP3    H124790   2.073   5.608  14.152  0.1524 -0.8100 -0.2716
 1125TIP3    H224791   2.174   5.657  14.254 -1.3472 -1.0429  1.3836
 1126TIP3   OH224792   2.191   6.702   1.310  0.4860  0.5222  0.1216
 1126TIP3    H124793   2.227   6.672   1.393 -0.1954  0.4039  0.3839
 1126TIP3    H224794   2.192   6.624   1.254  0.9596  0.6061  0.0133
 1127TIP3   OH224795   6.439   6.659  15.453  0.5684 -0.2870 -0.1830
 1127TIP3    H124796   6.478   6.652  15.540 -0.0977 -0.2605  0.1258
 1127TIP3    H224797   6.346   6.673  15.470  0.3634 -0.7368 -0.9034
 1128TIP3   OH224798   5.994   5.559   5.014 -0.0759  0.3125 -0.6538
 1128TIP3    H124799   5.950   5.602   4.940 -0.1346  1.7638  0.1835
 1128TIP3    H224800   5.922   5.525   5.068 -0.0592 -0.0025 -0.8265
 1129TIP3   OH224801   1.564   2.794  11.181 -0.3170  0.1679  0.4717
 1129TIP3    H124802   1.622   2.734  11.136  1.3099  1.6744  0.4477
 1129TIP3    H224803   1.568   2.768  11.273 -1.7060 -1.3536  0.1457
 1130TIP3   OH224804   0.592   1.693  11.538  0.5581 -0.5633  0.2878
 1130TIP3    H124805   0.678   1.689  11.579 -0.5630 -0.8936  2.7837
 1130TIP3    H224806   0.531   1.667  11.607 -1.6123  0.3045 -1.1852
 1131TIP3   OH224807   3.653   0.865   5.416  0.1876  0.2624 -0.6619
 1131TIP3    H124808   3.631   0.951   5.380  1.6490  0.3600 -1.3935
 1131TIP3    H224809   3.670   0.880   5.508 -0.8153  0.5141 -0.5031
 1132TIP3   OH224810   5.382   2.952   0.458 -0.2289  0.3110  0.1720
 1132TIP3    H124811   5.305   3.002   0.487 -0.2883  0.6932 -0.6179
 1132TIP3    H224812   5.427   2.929   0.539 -0.3049  1.4906  0.5736
 1133TIP3   OH224813   4.906   3.339   3.086 -0.1750 -0.1206 -0.3100
 1133TIP3    H124814   4.817   3.374   3.087  1.0069  3.2601 -0.5199
 1133TIP3    H224815   4.906   3.275   3.015 -3.0492 -2.3378  1.4586
 1134TIP3   OH224816   5.678   4.293  11.880  0.4634  0.2418  0.3881
 1134TIP3    H124817   5.669   4.362  11.945 -1.3227 -1.6094  2.2773
 1134TIP3    H224818   5.683   4.212  11.932 -0.9175 -1.3292 -1.7587
 1135TIP3   OH224819   0.077   1.839  16.631 -0.5044  0.9946  0.2246
 1135TIP3    H124820   0.172   1.831  16.642 -0.3505 -0.2251 -1.5150
 1135TIP3    H224821   0.041   1.769  16.685 -0.1256 -1.0394 -1.9849
 1136TIP3   OH224822   0.033   1.438   1.408 -0.5917  0.0316  0.5572
 1136TIP3    H124823   0.000   1.383   1.479  0.4222 -0.2036  0.8584
 1136TIP3    H224824   0.014   1.388   1.328 -1.2920  0.0764  0.6870
 1137TIP3   OH224825   4.774   0.934   2.364 -0.2285  0.0416 -0.2197
 1137TIP3    H124826   4.866   0.912   2.373 -0.2638 -0.1416 -0.3001
 1137TIP3    H224827   4.747   0.893   2.281 -0.3501  0.1970 -0.2570
 1138TIP3   OH224828   2.270   3.336   1.236  0.2064  0.1986 -0.0531
 1138TIP3    H124829   2.297   3.253   1.197  2.0707  0.8584 -0.2584
 1138TIP3    H224830   2.258   3.317   1.329  0.2823 -0.3711 -0.1614
 1139TIP3   OH224831   0.709   2.384   3.936  0.1767 -0.5960 -0.2300
 1139TIP3    H124832   0.724   2.321   3.866 -2.0302 -0.8719 -0.5186
 1139TIP3    H224833   0.734   2.337   4.016  2.6778 -0.2886 -0.7226
 1140TIP3   OH224834   6.631   2.782   2.631 -0.3118  0.2653 -0.4397
 1140TIP3    H124835   6.649   2.760   2.540  1.5026 -0.1224 -0.0202
 1140TIP3    H224836   6.709   2.755   2.679 -1.2920  0.3003  1.2719
 1141TIP3   OH224837   5.202   2.682  16.008 -0.3967 -0.6361  0.3461
 1141TIP3    H124838   5.176   2.760  15.959 -2.2116 -1.0990  0.4999
 1141TIP3    H224839   5.263   2.636  15.950  0.0564  0.4843 -0.0800
 1142TIP3   OH224840   0.950   1.314  16.068 -0.1840 -0.4103  0.0823
 1142TIP3    H124841   0.967   1.235  16.017 -1.5717 -1.5797  1.3287
 1142TIP3    H224842   0.957   1.285  16.159 -0.7552  0.9092  0.5610
 1143TIP3   OH224843   1.025   1.142  13.068  0.0752  0.0618 -0.2164
 1143TIP3    H124844   1.112   1.175  13.093 -0.5501  2.0929 -0.4709
 1143TIP3    H224845   0.966   1.176  13.136 -0.5802 -0.9682 -0.2496
 1144TIP3   OH224846   2.751   4.463   4.324  0.0313  0.0233 -0.1567
 1144TIP3    H124847   2.701   4.488   4.402  0.5591 -0.2843  0.2857
 1144TIP3    H224848   2.715   4.518   4.255 -0.2364  0.5220  0.3677
 1145TIP3   OH224849   4.305   5.871   2.008  0.5463 -0.8029  0.0667
 1145TIP3    H124850   4.307   5.901   2.099  1.7296 -1.1317  0.1670
 1145TIP3    H224851   4.259   5.940   1.961 -0.1126 -0.6433  0.9149
 1146TIP3   OH224852   3.984   5.525   4.196 -0.3938  0.1951 -0.2153
 1146TIP3    H124853   3.926   5.595   4.225 -0.5034  0.9283 -2.0141
 1146TIP3    H224854   4.045   5.569   4.135  0.5754 -0.9786 -0.1296
 1147TIP3   OH224855   6.422   5.911   1.118  0.4417  0.1519 -0.7669
 1147TIP3    H124856   6.343   5.859   1.104  0.6319  0.1033 -1.7807
 1147TIP3    H224857   6.486   5.849   1.152  0.3760 -0.0671 -1.0385
 1148TIP3   OH224858   0.027   4.896  15.600  0.2327  0.1101  0.1502
 1148TIP3    H124859  -0.020   4.979  15.610  3.2514  1.7153  2.6602
 1148TIP3    H224860   0.038   4.864  15.689  1.7483 -1.4556 -0.5402
 1149TIP3   OH224861   6.030   2.656  15.379 -0.1684 -0.6185 -0.3615
 1149TIP3    H124862   6.113   2.697  15.405 -0.2116  0.7481 -2.1920
 1149TIP3    H224863   5.979   2.653  15.460  1.6223 -1.5013  0.8231
 1150TIP3   OH224864   0.759   2.199  13.184 -0.0575 -0.4483  0.4376
 1150TIP3    H124865   0.805   2.115  13.183  0.8278  0.0051  1.1666
 1150TIP3    H224866   0.819   2.260  13.142 -0.1417  0.0805  1.0624
 1151TIP3   OH224867   5.390   3.399   5.546  0.1727  0.1140 -0.1120
 1151TIP3    H124868   5.328   3.403   5.619 -1.0181  0.2111 -1.1067
 1151TIP3    H224869   5.336   3.398   5.467  1.4450  0.7101 -1.0417
 1152TIP3   OH224870   5.744   2.334   3.810  0.0750  0.2260 -0.5588
 1152TIP3    H124871   5.785   2.264   3.758  0.4252  1.1642 -1.5741
 1152TIP3    H224872   5.799   2.340   3.889 -1.0067 -1.8558  0.4534
 1153TIP3   OH224873   3.949   2.292  15.616  0.4517 -0.3046  0.2847
 1153TIP3    H124874   3.937   2.360  15.550  2.7186 -0.5782 -0.4945
 1153TIP3    H224875   3.984   2.338  15.692 -1.2222 -0.1440  1.0086
 1154TIP3   OH224876   3.831   2.950  13.004  0.2883 -0.2910 -0.7396
 1154TIP3    H124877   3.896   3.012  13.039  0.5130 -1.9616  2.0930
 1154TIP3    H224878   3.879   2.868  12.995 -1.4114 -1.7260  1.9682
 1155TIP3   OH224879   6.298   6.204  10.778 -0.0998 -0.3248 -0.1946
 1155TIP3    H124880   6.233   6.171  10.716 -0.5234  2.1870 -1.2209
 1155TIP3    H224881   6.268   6.292  10.801  1.2375 -0.3245  1.8845
 1156TIP3   OH224882   1.873   5.545  15.340  0.5508  0.4334 -0.1677
 1156TIP3    H124883   1.909   5.523  15.426  1.3611 -0.9285 -0.8235
 1156TIP3    H224884   1.787   5.582  15.359  0.9876  0.7754  1.2625
 1157TIP3   OH224885   0.967   1.118  14.066  0.1106  0.1361 -0.0280
 1157TIP3    H124886   0.990   1.051  14.002  0.5633  0.8770 -0.6618
 1157TIP3    H224887   0.963   1.199  14.015  0.2374  0.6939  0.8333
 1158TIP3   OH224888   0.258   4.597   1.718 -0.1332 -0.4013 -0.1758
 1158TIP3    H124889   0.268   4.631   1.629 -3.5170 -1.0162 -0.9398
 1158TIP3    H224890   0.168   4.563   1.720  1.1085 -4.1358  2.2221
 1159TIP3   OH224891   1.911   3.014  11.571 -0.0548 -0.0810 -0.2336
 1159TIP3    H124892   1.960   2.931  11.573 -0.3940 -0.2854 -0.3390
 1159TIP3    H224893   1.844   3.001  11.504  0.2366  0.4826 -0.6428
 1160TIP3   OH224894   0.354   1.837  16.663  0.1925 -0.2742  0.1420
 1160TIP3    H124895   0.430   1.841  16.605  1.1156  0.4929  1.3744
 1160TIP3    H224896   0.380   1.779  16.734  0.3601  1.4079  1.5372
 1161TIP3   OH224897   5.732   1.388   1.680  0.0733  0.2425  0.3943
 1161TIP3    H124898   5.678   1.405   1.603 -0.8198 -1.1677  0.6648
 1161TIP3    H224899   5.693   1.309   1.720  1.4363  0.0491  1.4317
 1162TIP3   OH224900   5.468   4.114  13.920 -0.3341  0.6541 -0.1055
 1162TIP3    H124901   5.458   4.022  13.894 -0.0899  0.7707 -0.6199
 1162TIP3    H224902   5.473   4.111  14.015 -0.8056  0.1769 -0.0870
 1163TIP3   OH224903   0.243   1.177   1.712  0.1672 -0.2974  0.7679
 1163TIP3    H124904   0.254   1.095   1.664 -1.4758  0.4444 -0.9933
 1163TIP3    H224905   0.155   1.173   1.749  0.5767  0.1169  1.8427
 1164TIP3   OH224906   0.873   3.524   4.139  0.7269 -0.5809 -0.1032
 1164TIP3    H124907   0.950   3.549   4.088 -1.0707  1.5127 -1.9794
 1164TIP3    H224908   0.804   3.508   4.074 -1.6843  2.2169  1.4922
 1165TIP3   OH224909   1.734   5.094  14.957  0.4384  0.1882 -0.1539
 1165TIP3    H124910   1.667   5.131  14.900  1.2904  2.2039  0.0639
 1165TIP3    H224911   1.817   5.130  14.924  1.1707 -0.3561  1.0039
 1166TIP3   OH224912   2.663   1.901  14.318  0.1032  0.0939 -0.2019
 1166TIP3    H124913   2.656   1.995  14.337  1.4611  0.0350  0.7461
 1166TIP3    H224914   2.572   1.873  14.301 -0.2873  1.6210 -0.8381
 1167TIP3   OH224915   0.297   0.386   0.647  0.1791 -0.6263 -0.0603
 1167TIP3    H124916   0.304   0.378   0.743  2.0217 -1.0691 -0.1807
 1167TIP3    H224917   0.345   0.310   0.614  2.1288  1.0391 -1.3071
 1168TIP3   OH224918   6.136   6.757  13.837  0.6166  0.6529 -0.2607
 1168TIP3    H124919   6.060   6.813  13.825  0.2532  0.0802 -0.6810
 1168TIP3    H224920   6.186   6.766  13.756  1.6746  2.0218  0.5185
 1169TIP3   OH224921   3.661   2.894  13.912 -0.6849  0.2853  0.2911
 1169TIP3    H124922   3.616   2.845  13.981 -0.0454 -0.2293  0.3515
 1169TIP3    H224923   3.629   2.855  13.831 -0.7169  0.2531  0.3189
 1170TIP3   OH224924   0.241   1.260  10.556 -0.0225 -0.5926  0.4391
 1170TIP3    H124925   0.198   1.184  10.596  2.1569 -1.0409  2.1560
 1170TIP3    H224926   0.197   1.336  10.595  1.2438 -1.0257  2.9182
 1171TIP3   OH224927   6.646   2.348   0.247  0.0468 -0.2961  0.1899
 1171TIP3    H124928   6.726   2.396   0.268  1.6767 -2.9569  0.4844
 1171TIP3    H224929   6.676   2.273   0.195 -2.5500 -0.1978 -1.6130
 1172TIP3   OH224930   3.163   4.464   5.538  0.9477  0.4224  0.2947
 1172TIP3    H124931   3.134   4.548   5.572  0.4623  1.2464 -1.9545
 1172TIP3    H224932   3.185   4.482   5.446 -1.4773 -2.3407 -0.9888
 1173TIP3   OH224933   6.120   2.559  13.555  0.1128  0.3969  0.5827
 1173TIP3    H124934   6.037   2.511  13.559 -0.6251  1.5205 -0.4094
 1173TIP3    H224935   6.128   2.601  13.640  0.0874 -0.3652  0.9739
 1174TIP3   OH224936   5.991   6.169  15.483  0.2734  0.0526 -0.7793
 1174TIP3    H124937   5.944   6.243  15.522  1.3701  1.1203 -1.4266
 1174TIP3    H224938   5.992   6.188  15.389 -1.7033 -2.1255 -1.3409
 1175TIP3   OH224939   5.069   4.027  12.387 -0.1869 -0.4969 -0.0666
 1175TIP3    H124940   5.039   3.957  12.329 -1.1677 -0.8544  0.8580
 1175TIP3    H224941   4.993   4.085  12.397 -0.1964 -0.7053  1.2450
 1176TIP3   OH224942   1.596   0.796   2.976  0.0243  0.1480 -0.3428
 1176TIP3    H124943   1.517   0.830   3.018 -1.9639 -3.9963 -0.2742
 1176TIP3    H224944   1.565   0.759   2.893  1.4345 -3.1533  0.4622
 1177TIP3   OH224945   0.058   2.991  15.573  0.0525  0.1236 -0.1299
 1177TIP3    H124946   0.080   2.960  15.661  0.9170 -0.2047 -0.4506
 1177TIP3    H224947  -0.016   2.936  15.547  0.6311 -0.6756 -0.1166
 1178TIP3   OH224948   6.010   4.109   2.529 -0.2268  0.3338  0.1899
 1178TIP3    H124949   5.943   4.105   2.461  1.0600  1.1819 -1.2119
 1178TIP3    H224950   6.073   4.040   2.505  0.3649  0.8038  0.3535
 1179TIP3   OH224951   5.791   4.247  14.169 -0.0205  0.8226 -0.3042
 1179TIP3    H124952   5.700   4.225  14.147 -0.8319  1.9359  1.6051
 1179TIP3    H224953   5.793   4.343  14.164  0.1802  1.0428  2.3962
 1180TIP3   OH224954   3.503   6.047  14.154  0.2711  0.2477  0.2122
 1180TIP3    H124955   3.584   6.072  14.110  0.2366  0.1079  0.0680
 1180TIP3    H224956   3.528   5.971  14.207 -0.0069 -0.4683 -0.6660
 1181TIP3   OH224957   1.656   5.147  14.184  0.4850  0.2004 -0.1097
 1181TIP3    H124958   1.646   5.072  14.243  1.3480  1.3772  1.5797
 1181TIP3    H224959   1.569   5.160  14.147 -0.0980 -0.5218  0.9533
 1182TIP3   OH224960   5.946   2.464  12.573  0.1999 -0.0860  0.1655
 1182TIP3    H124961   5.994   2.392  12.613 -0.4459 -0.4458  0.2997
 1182TIP3    H224962   5.900   2.506  12.647 -1.6294 -1.2322 -0.2667
 1183TIP3   OH224963   0.381   0.255  15.418  0.1849  0.0443  0.6740
 1183TIP3    H124964   0.369   0.180  15.476 -1.0108 -2.0119 -1.9961
 1183TIP3    H224965   0.466   0.240  15.377 -0.0143  0.2124  0.2028
 1184TIP3   OH224966   0.599   0.665   2.181 -0.0361  0.1160 -0.6000
 1184TIP3    H124967   0.623   0.601   2.114 -1.2200 -3.3450  1.9512
 1184TIP3    H224968   0.536   0.722   2.138  1.9403  0.3918 -3.3528
 1185TIP3   OH224969   3.156   0.053  15.050 -0.2808  0.6483 -0.2788
 1185TIP3    H124970   3.130   0.047  15.142  0.8946 -0.0580  0.0250
 1185TIP3    H224971   3.083   0.017  15.001 -1.1537  1.5411  0.3295
 1186TIP3   OH224972   0.774   6.347  12.626  0.0832 -0.2938 -0.2502
 1186TIP3    H124973   0.700   6.392  12.587  0.4937  0.6801  0.0757
 1186TIP3    H224974   0.756   6.346  12.720 -0.2555 -1.4449 -0.3062
 1187TIP3   OH224975   3.041   6.195   1.647  0.1465  0.1941 -0.0966
 1187TIP3    H124976   2.949   6.222   1.647  0.0869  0.1277 -1.6248
 1187TIP3    H224977   3.043   6.120   1.587  1.0459 -0.4171  0.6797
 1188TIP3   OH224978   4.230   5.337  13.290  0.0157 -0.4221  0.5733
 1188TIP3    H124979   4.214   5.387  13.370 -2.8769  0.3775 -0.3800
 1188TIP3    H224980   4.293   5.390  13.241 -1.9172  1.6996  0.2075
 1189TIP3   OH224981   4.454   1.821  11.387 -0.1952  0.0688  0.2710
 1189TIP3    H124982   4.371   1.862  11.363  0.7919  1.4483 -0.9993
 1189TIP3    H224983   4.497   1.885  11.445  0.8922  0.3929 -0.8428
 1190TIP3   OH224984   1.033   1.912   4.962  0.2868 -0.1038  0.2404
 1190TIP3    H124985   1.099   1.931   5.029 -0.9201  2.3735  0.8270
 1190TIP3    H224986   1.032   1.816   4.958  0.7335 -0.3908  3.4923
 1191TIP3   OH224987   1.891   1.175   3.774  0.3775 -0.2393  0.3948
 1191TIP3    H124988   1.910   1.105   3.836  1.6874 -0.1779  0.1011
 1191TIP3    H224989   1.941   1.250   3.806 -2.1870  1.0923  1.5716
 1192TIP3   OH224990   5.733   5.414  10.871 -0.2267 -0.4291 -0.0085
 1192TIP3    H124991   5.699   5.396  10.959 -0.8478 -0.8989 -0.3356
 1192TIP3    H224992   5.672   5.479  10.836  0.0585 -0.1950 -0.0688
 1193TIP3   OH224993   1.612   6.383  10.853 -0.2927  0.4044  0.4376
 1193TIP3    H124994   1.532   6.434  10.865  1.4799  3.2906  0.9163
 1193TIP3    H224995   1.636   6.354  10.941 -0.1603  0.5499  0.4476
 1194TIP3   OH224996   5.514   1.611   5.801  0.6861  0.2931  0.2574
 1194TIP3    H124997   5.544   1.691   5.846  1.2121  1.2985 -1.7419
 1194TIP3    H224998   5.419   1.620   5.797  0.6240  0.1431  1.2260
 1195TIP3   OH224999   0.417   5.586   3.380  0.1013  0.3979 -0.1852
 1195TIP3    H125000   0.489   5.548   3.329  0.1624 -0.2352  0.3757
 1195TIP3    H225001   0.425   5.548   3.467 -1.7936 -0.8514 -0.4916
 1196TIP3   OH225002   6.337   4.720   0.921 -0.1700 -0.9421 -0.3110
 1196TIP3    H125003   6.413   4.775   0.905 -1.1549  0.7471  0.6040
 1196TIP3    H225004   6.281   4.771   0.979 -2.2499 -1.9169 -1.3380
 1197TIP3   OH225005   3.065   2.554  15.392  0.1563  0.4020 -0.5804
 1197TIP3    H125006   3.113   2.481  15.353 -1.4220 -0.8697 -0.2546
 1197TIP3    H225007   3.103   2.564  15.479 -0.9609 -1.4615  0.1784
 1198TIP3   OH225008   6.298   3.587   3.044  0.2380 -0.3887  0.1018
 1198TIP3    H125009   6.216   3.542   3.027 -0.2979  0.0039  1.5440
 1198TIP3    H225010   6.357   3.519   3.078  0.7182 -0.7840 -1.4347
 1199TIP3   OH225011   3.347   3.740   4.447 -0.2406  0.3728 -0.0120
 1199TIP3    H125012   3.286   3.814   4.455 -0.5849  0.3163 -1.7154
 1199TIP3    H225013   3.343   3.697   4.532 -3.5661 -0.3789 -0.3968
 1200TIP3   OH225014   2.641   3.972   6.036  0.0973  0.1784  0.3586
 1200TIP3    H125015   2.568   3.945   6.092  1.0033 -0.2902  1.3538
 1200TIP3    H225016   2.690   4.034   6.090  1.9901 -1.6283  0.8093
 1201TIP3   OH225017   2.304   3.639  14.635 -0.0055 -0.0682  0.1507
 1201TIP3    H125018   2.301   3.735  14.632 -1.5820 -0.0984 -0.6190
 1201TIP3    H225019   2.367   3.615  14.567 -0.0560  0.4174 -0.0723
 1202TIP3   OH225020   3.040   1.911  12.740  0.2758  0.2169  0.7169
 1202TIP3    H125021   3.121   1.887  12.785  0.3449 -1.0239 -0.0126
 1202TIP3    H225022   3.060   1.899  12.647 -0.5059  0.6674  0.4837
 1203TIP3   OH225023   5.953   6.145  13.628 -0.0973  0.5578 -0.3088
 1203TIP3    H125024   5.991   6.192  13.553 -0.5144  2.1684  0.4317
 1203TIP3    H225025   5.861   6.169  13.627 -0.5466 -1.0922 -0.4725
 1204TIP3   OH225026   3.780   0.009  13.419  0.1641 -0.4432  0.1047
 1204TIP3    H125027   3.783  -0.032  13.505 -1.1970  0.9966  0.8854
 1204TIP3    H225028   3.850   0.075  13.422  0.1322 -0.4091  0.0857
 1205TIP3   OH225029   1.684   6.553   1.403  0.3168 -0.3686 -0.7397
 1205TIP3    H125030   1.615   6.557   1.337 -0.0100  0.1676 -0.3773
 1205TIP3    H225031   1.667   6.629   1.459 -0.8472 -2.0718  1.3694
 1206TIP3   OH225032   1.441   3.451   0.765  0.5391  0.0197 -0.4137
 1206TIP3    H125033   1.431   3.410   0.678 -0.6680  0.4547 -0.5035
 1206TIP3    H225034   1.434   3.378   0.826 -1.1198 -0.0201 -0.5941
 1207TIP3   OH225035   0.723   3.848   3.156 -0.0260  0.0463 -0.3322
 1207TIP3    H125036   0.680   3.890   3.081  2.1038 -0.4105 -1.9225
 1207TIP3    H225037   0.786   3.913   3.186  1.4488 -0.9577 -1.1237
 1208TIP3   OH225038   2.442   4.039   0.413 -0.0324  0.4977 -0.0289
 1208TIP3    H125039   2.429   4.074   0.502 -2.2459 -1.7890  0.6700
 1208TIP3    H225040   2.532   4.006   0.414 -0.0352  0.4463  1.3982
 1209TIP3   OH225041   4.975   2.504   5.274 -0.5714 -0.2417  0.0352
 1209TIP3    H125042   5.017   2.586   5.301 -0.6553 -0.7132  1.6955
 1209TIP3    H225043   5.046   2.449   5.243 -0.5892  0.6597 -1.7080
 1210TIP3   OH225044   6.402   3.883   5.129  0.0559 -0.5057 -0.4269
 1210TIP3    H125045   6.427   3.917   5.214  0.3669 -1.4093 -0.1424
 1210TIP3    H225046   6.329   3.824   5.146  0.9042 -1.6573 -0.5867
 1211TIP3   OH225047   6.078   6.537  15.049  0.1965 -0.1205  0.1543
 1211TIP3    H125048   6.143   6.602  15.075 -1.7356  1.3901  1.4384
 1211TIP3    H225049   6.002   6.588  15.022 -1.1743 -1.8132  0.6303
 1212TIP3   OH225050   4.896   6.422  14.109  0.5905 -0.4589 -0.3854
 1212TIP3    H125051   4.897   6.516  14.094  0.2055 -0.3234  0.3797
 1212TIP3    H225052   4.961   6.387  14.048  2.0096  0.4954  0.5402
 1213TIP3   OH225053   3.379   5.560   1.631  0.3960 -0.0174 -0.2600
 1213TIP3    H125054   3.290   5.595   1.621 -0.2833 -1.5676 -0.1384
 1213TIP3    H225055   3.370   5.496   1.703  1.9769  0.9193  0.8147
 1214TIP3   OH225056   5.389   0.348  11.807 -0.2750 -0.2651 -0.0424
 1214TIP3    H125057   5.344   0.399  11.875  1.1127 -0.0191  0.7362
 1214TIP3    H225058   5.319   0.312  11.753 -1.3842  0.1686  1.0682
 1215TIP3   OH225059   3.011   5.762  13.475 -0.4284 -0.4905  0.0065
 1215TIP3    H125060   3.027   5.695  13.541  0.2473 -1.1058 -0.7627
 1215TIP3    H225061   3.096   5.776  13.433 -0.7096  0.3394 -0.3235
 1216TIP3   OH225062   2.190   5.691   0.424 -0.2207 -0.1127  0.1923
 1216TIP3    H125063   2.197   5.615   0.482 -0.7117 -0.2272  0.1066
 1216TIP3    H225064   2.262   5.748   0.451 -0.4980 -0.1186  0.9849
 1217TIP3   OH225065   2.849   0.370  14.094  0.2491  0.2897  0.5753
 1217TIP3    H125066   2.938   0.356  14.127  0.6730 -1.5512 -1.1731
 1217TIP3    H225067   2.840   0.309  14.021 -2.3964  0.5800  0.5505
 1218TIP3   OH225068   5.565   5.856  12.996  0.2942  0.3056  0.1582
 1218TIP3    H125069   5.502   5.792  13.029  0.4333  0.1155  0.0546
 1218TIP3    H225070   5.517   5.905  12.930 -0.1736  1.0792  1.0409
 1219TIP3   OH225071   1.426   3.025  12.274  0.2052 -0.1182 -0.3433
 1219TIP3    H125072   1.521   3.012  12.276 -0.0125 -2.1190 -0.1087
 1219TIP3    H225073   1.410   3.073  12.193  1.3801 -0.3002 -0.7030
 1220TIP3   OH225074   5.340   6.052   1.208  0.3877  0.5083  0.2408
 1220TIP3    H125075   5.252   6.028   1.236  0.0190  1.1585 -0.3304
 1220TIP3    H225076   5.329   6.136   1.163  1.5017  1.3960  1.5188
 1221TIP3   OH225077   1.741   0.489   0.568 -0.0864 -0.1748  0.6819
 1221TIP3    H125078   1.725   0.525   0.481 -1.2646 -2.1855  0.0179
 1221TIP3    H225079   1.768   0.565   0.620  0.9666  1.0289 -1.4742
 1222TIP3   OH225080   1.819   6.033   6.539 -0.5098 -0.2805 -0.2493
 1222TIP3    H125081   1.798   6.087   6.463 -0.7604 -0.1891 -0.1150
 1222TIP3    H225082   1.805   6.090   6.614 -1.2495 -0.6722 -0.0815
 1223TIP3   OH225083   1.604   6.180  15.395 -0.5964 -0.6094  0.1161
 1223TIP3    H125084   1.656   6.112  15.437 -1.8098 -1.0043  1.0545
 1223TIP3    H225085   1.643   6.191  15.308  1.4409 -0.4070  0.9975
 1224TIP3   OH225086   5.875   3.751   3.279  0.3143  0.0408 -0.9522
 1224TIP3    H125087   5.951   3.754   3.221  1.3228  1.5353  0.3770
 1224TIP3    H225088   5.889   3.673   3.333  0.3166 -0.3054 -1.4443
 1225TIP3   OH225089   2.694   6.018   2.811  0.1597  0.1220 -0.0123
 1225TIP3    H125090   2.720   5.930   2.783 -1.8744 -0.1568 -1.2397
 1225TIP3    H225091   2.724   6.075   2.740 -0.8440  0.0371 -0.5247
 1226TIP3   OH225092   5.795   3.136  11.795 -0.0864 -0.0918 -0.0702
 1226TIP3    H125093   5.820   3.061  11.848 -0.0709  0.2875  0.4728
 1226TIP3    H225094   5.811   3.109  11.705  0.0445 -0.6865  0.1301
 1227TIP3   OH225095   3.427   1.568  13.948  0.4252  0.1360 -0.3259
 1227TIP3    H125096   3.342   1.589  13.909  1.4942  0.5417 -2.5855
 1227TIP3    H225097   3.448   1.480  13.915  0.8599  0.0066  0.2724
 1228TIP3   OH225098   6.252   5.265   2.463  0.2359 -0.2204  0.0624
 1228TIP3    H125099   6.345   5.264   2.486 -0.2938  0.8979  2.4993
 1228TIP3    H225100   6.216   5.188   2.506 -0.2814  0.3549  0.6704
 1229TIP3   OH225101   1.691   1.534  11.339  0.0168 -0.2804  0.0620
 1229TIP3    H125102   1.661   1.483  11.415  0.4468 -0.1164  0.3446
 1229TIP3    H225103   1.649   1.619  11.349  1.0100  0.1485  0.7763
 1230TIP3   OH225104   0.325   2.738   4.640 -0.7443  0.1622 -0.0418
 1230TIP3    H125105   0.414   2.775   4.642 -1.8565  3.1354 -0.7507
 1230TIP3    H225106   0.283   2.770   4.719 -1.6694  0.1231 -0.4996
 1231TIP3   OH225107   1.788   2.580  15.587  0.7528  0.5564 -0.2153
 1231TIP3    H125108   1.809   2.665  15.626 -0.5540  1.8453 -2.1430
 1231TIP3    H225109   1.862   2.561  15.529  0.2797  1.2528 -1.0733
 1232TIP3   OH225110   5.887   5.967   4.758  1.0197 -0.1099  0.5228
 1232TIP3    H125111   5.864   6.058   4.737 -0.1392  0.2893  3.0278
 1232TIP3    H225112   5.959   5.974   4.820  0.8044 -0.8734  0.8749
 1233TIP3   OH225113   1.163   0.854   4.063  0.0203 -0.5583  0.5279
 1233TIP3    H125114   1.153   0.881   4.154 -2.1551  1.0034 -0.0825
 1233TIP3    H225115   1.119   0.769   4.059 -1.9918  0.4192  0.5368
 1234TIP3   OH225116   5.040   3.675   0.131  0.4520 -0.4572 -0.0357
 1234TIP3    H125117   5.109   3.672   0.197 -1.4746  0.1988  2.1316
 1234TIP3    H225118   4.972   3.731   0.170 -1.4209 -1.2799 -1.9423
 1235TIP3   OH225119   3.690   6.154   7.006 -0.9137  0.8738  0.1719
 1235TIP3    H125120   3.774   6.170   6.962 -0.8493 -0.1874 -0.1080
 1235TIP3    H225121   3.698   6.066   7.041 -2.1451  0.5286 -0.3686
 1236TIP3   OH225122   1.851   2.723   2.425  0.4846 -0.6478  0.4348
 1236TIP3    H125123   1.832   2.703   2.516  1.8777 -0.0361  0.8824
 1236TIP3    H225124   1.765   2.725   2.382 -0.1093 -1.9454  1.5020
 1237TIP3   OH225125   5.035   5.902  13.948 -0.0153  0.0287 -0.1432
 1237TIP3    H125126   5.015   5.942  14.033  1.2734  0.5620 -0.0638
 1237TIP3    H225127   5.110   5.845  13.966  1.7764  1.8922 -1.3256
 1238TIP3   OH225128   1.880   1.979  11.232 -0.2762  0.3888  0.8172
 1238TIP3    H125129   1.948   1.915  11.253  0.3995  1.1860  1.1279
 1238TIP3    H225130   1.841   1.947  11.151  1.3564  0.5819 -0.0969
 1239TIP3   OH225131   5.070   5.300  13.557 -0.7316 -0.3591 -0.5500
 1239TIP3    H125132   5.147   5.332  13.510 -1.0251  1.9389  0.3926
 1239TIP3    H225133   5.000   5.300  13.492 -0.2166 -1.4338 -1.1403
 1240TIP3   OH225134   0.156   6.266   5.582 -0.1723 -0.3360 -0.6816
 1240TIP3    H125135   0.186   6.349   5.545  0.6181 -0.0287  0.5748
 1240TIP3    H225136   0.127   6.214   5.507  3.2230 -0.5339 -1.9967
 1241TIP3   OH225137   3.623   2.477  14.866  0.2772 -0.3509  0.0938
 1241TIP3    H125138   3.586   2.555  14.823 -1.4481 -1.8568 -1.3784
 1241TIP3    H225139   3.556   2.410  14.853  1.6414 -2.0492  1.4376
 1242TIP3   OH225140   5.407   2.383  13.862 -0.0788 -0.4753  0.0880
 1242TIP3    H125141   5.459   2.330  13.922  1.5866  1.5819  0.6027
 1242TIP3    H225142   5.402   2.331  13.782  1.3637 -1.4520  0.5895
 1243TIP3   OH225143   4.609   2.810  14.697  0.1154  0.1836  0.3429
 1243TIP3    H125144   4.676   2.762  14.746 -0.0709 -0.6301 -0.1918
 1243TIP3    H225145   4.531   2.807  14.754  0.5549  1.2588  1.0311
 1244TIP3   OH225146   4.621   2.536   0.704 -0.6252 -0.3688  0.2046
 1244TIP3    H125147   4.692   2.558   0.764 -0.6611 -0.3780  0.2501
 1244TIP3    H225148   4.597   2.619   0.663  0.4317 -0.5939 -0.9218
 1245TIP3   OH225149   3.769   6.491  15.838  0.1166  0.2745 -0.3360
 1245TIP3    H125150   3.704   6.561  15.827 -1.7863 -1.4252 -0.5558
 1245TIP3    H225151   3.716   6.413  15.855  2.1744 -1.0921  0.0710
 1246TIP3   OH225152   6.608   4.911   2.527 -0.1948 -0.3737 -0.8366
 1246TIP3    H125153   6.679   4.973   2.516 -0.7950  0.5907  0.4469
 1246TIP3    H225154   6.626   4.869   2.611 -0.9461 -0.3733 -0.6695
 1247TIP3   OH225155   1.492   6.703   1.871  0.3662 -0.1992 -0.4735
 1247TIP3    H125156   1.492   6.782   1.925 -0.0556 -0.3880 -0.1964
 1247TIP3    H225157   1.403   6.668   1.879  0.6920 -0.9818 -0.1943
 1248TIP3   OH225158   4.954   6.091  14.146  0.1223  0.1561  0.6102
 1248TIP3    H125159   5.010   6.070  14.221 -0.5388 -0.3158  0.9737
 1248TIP3    H225160   4.998   6.166  14.105  1.4906 -0.7246  0.3800
 1249TIP3   OH225161   6.412   3.432  11.384 -0.2799  0.7458 -0.6630
 1249TIP3    H125162   6.487   3.455  11.328  0.4714  1.2682  0.5184
 1249TIP3    H225163   6.371   3.515  11.406 -1.7677  0.4087 -1.9895
 1250TIP3   OH225164   4.182   0.494   6.553 -0.1612  0.5343  0.0142
 1250TIP3    H125165   4.122   0.498   6.627 -1.3682  0.9432 -0.9534
 1250TIP3    H225166   4.144   0.428   6.495 -0.7602  2.1042 -1.4841
 1251TIP3   OH225167   6.340   0.707  10.495  0.4158  0.1699 -0.2314
 1251TIP3    H125168   6.296   0.774  10.443 -0.5863 -0.6736 -0.4934
 1251TIP3    H225169   6.286   0.697  10.573 -0.4421 -1.5539 -0.9963
 1252TIP3   OH225170   5.243   1.167  14.488 -0.1906 -0.6653  0.1759
 1252TIP3    H125171   5.160   1.208  14.510  0.4915  2.0842 -1.8133
 1252TIP3    H225172   5.283   1.146  14.572 -2.3819 -1.0532  1.1825
 1253TIP3   OH225173   4.159   1.512   1.272  1.0685  0.3667  0.2224
 1253TIP3    H125174   4.086   1.455   1.299  1.1600  0.4474  0.6437
 1253TIP3    H225175   4.204   1.534   1.354  1.8780 -0.1053 -0.0782
 1254TIP3   OH225176   0.056   2.759   1.334  0.4313 -0.1249  0.2589
 1254TIP3    H125177   0.131   2.703   1.315 -0.3024 -1.0233 -0.0988
 1254TIP3    H225178   0.087   2.820   1.400  1.3855 -0.6786  0.3369
 1255TIP3   OH225179   3.098   5.494  13.562  0.4232 -0.5005 -0.1613
 1255TIP3    H125180   3.034   5.505  13.491 -0.6557  0.3351  0.9009
 1255TIP3    H225181   3.171   5.448  13.521 -1.0050 -1.8436 -1.3432
 1256TIP3   OH225182   1.794   6.194  11.358  0.4465 -0.4802  0.4318
 1256TIP3    H125183   1.848   6.234  11.427  1.0067 -0.5841  0.0626
 1256TIP3    H225184   1.708   6.236  11.367  0.7363  0.0692  0.6957
 1257TIP3   OH225185   4.777   6.559   4.787  0.5340 -0.0705 -0.3852
 1257TIP3    H125186   4.731   6.517   4.713 -1.1354  3.2525 -1.4353
 1257TIP3    H225187   4.708   6.574   4.852  1.3031  0.1213  0.4014
 1258TIP3   OH225188   4.659   5.623   2.859 -0.3720 -1.2521  0.2068
 1258TIP3    H125189   4.705   5.590   2.936 -0.2702 -3.2964 -0.6546
 1258TIP3    H225190   4.605   5.549   2.830 -0.4813 -0.5176 -1.6208
 1259TIP3   OH225191   3.758   6.412   3.003 -0.5533  0.4084  0.3377
 1259TIP3    H125192   3.775   6.363   2.923 -0.6621  2.0264 -0.7106
 1259TIP3    H225193   3.750   6.345   3.071  0.5290 -0.9414 -0.8097
 1260TIP3   OH225194   1.769   2.534   2.136 -0.0945  0.1839  0.1679
 1260TIP3    H125195   1.748   2.626   2.123  2.2187  0.6649 -0.7104
 1260TIP3    H225196   1.859   2.535   2.171  0.4700 -1.7460 -1.0810
 1261TIP3   OH225197   0.215   5.700   1.882  0.0499 -0.6054  0.1045
 1261TIP3    H125198   0.284   5.687   1.817 -0.7126  0.7229 -1.0300
 1261TIP3    H225199   0.257   5.752   1.950  0.1817  0.2453 -0.6033
 1262TIP3   OH225200   4.707   5.689  14.520  0.7091  0.0242 -0.0844
 1262TIP3    H125201   4.690   5.666  14.428  0.1122 -2.2485  0.5181
 1262TIP3    H225202   4.622   5.680  14.563  0.4547  3.3314  0.3687
 1263TIP3   OH225203   3.502   0.545  13.400 -0.2607 -0.0371 -0.1185
 1263TIP3    H125204   3.524   0.541  13.493  1.1619  0.9977 -0.3689
 1263TIP3    H225205   3.469   0.458  13.378  3.8416 -1.8792  0.3130
 1264TIP3   OH225206   1.590   4.158  14.487  0.1010 -0.3827  0.2310
 1264TIP3    H125207   1.625   4.226  14.430 -1.5004 -0.3238 -0.7217
 1264TIP3    H225208   1.666   4.104  14.508  0.8741  0.0533 -1.2954
 1265TIP3   OH225209   3.797   4.801  13.569 -0.1521 -0.1774 -0.4760
 1265TIP3    H125210   3.861   4.857  13.614 -0.5408  0.3831 -0.6138
 1265TIP3    H225211   3.731   4.782  13.636 -2.1298  2.7878 -1.3967
 1266TIP3   OH225212   4.579   3.647  13.632 -0.0441 -0.2488 -0.0431
 1266TIP3    H125213   4.646   3.690  13.684  0.7133 -0.3693 -0.8905
 1266TIP3    H225214   4.541   3.717  13.579 -0.5194 -0.1978  0.3644
 1267TIP3   OH225215   4.560   6.272   0.859 -0.2198  0.0767  0.1732
 1267TIP3    H125216   4.528   6.191   0.899  0.6707  0.4553  1.7738
 1267TIP3    H225217   4.497   6.339   0.885 -0.0242  0.1970  0.3464
 1268TIP3   OH225218   6.242   3.293  15.463 -0.4445  0.6156 -0.5302
 1268TIP3    H125219   6.148   3.280  15.476  0.0076 -1.3011  1.3948
 1268TIP3    H225220   6.253   3.297  15.368 -2.1584 -2.1246 -0.9314
 1269TIP3   OH225221   6.771   2.401   1.019 -0.3520 -0.2429 -0.3846
 1269TIP3    H125222   6.678   2.398   1.040 -0.2719  0.5244  0.0937
 1269TIP3    H225223   6.774   2.412   0.924 -0.7653  1.1297 -0.2501
 1270TIP3   OH225224   5.111   4.893  15.806 -0.1645 -0.3347 -0.3833
 1270TIP3    H125225   5.096   4.821  15.744  2.1131 -0.6416 -0.6771
 1270TIP3    H225226   5.023   4.924  15.828 -1.2458 -2.9573 -0.5354
 1271TIP3   OH225227   1.062   3.448   0.674  0.1014 -0.1467  0.3416
 1271TIP3    H125228   1.062   3.505   0.751  0.3784 -0.8304  0.8483
 1271TIP3    H225229   1.076   3.360   0.708  1.4823 -0.3191 -0.5965
 1272TIP3   OH225230   0.583   5.744   1.130  0.0825  0.2045 -0.1763
 1272TIP3    H125231   0.619   5.792   1.204  0.5671  0.8583 -0.8169
 1272TIP3    H225232   0.590   5.652   1.155 -0.2539  0.4333  0.8032
 1273TIP3   OH225233   5.840   0.619  16.282 -0.2725  0.2759 -0.0716
 1273TIP3    H125234   5.855   0.705  16.322 -0.0543 -0.6978  2.1204
 1273TIP3    H225235   5.754   0.591  16.317 -1.1168  0.2564 -2.0502
 1274TIP3   OH225236   5.670   1.720   3.482  0.0711  0.2185  0.1081
 1274TIP3    H125237   5.675   1.695   3.574 -1.1764  1.1419  0.4697
 1274TIP3    H225238   5.579   1.701   3.457  0.3358  0.1704 -0.8774
 1275TIP3   OH225239   3.235   4.740   3.885  0.5060 -0.1606  0.4300
 1275TIP3    H125240   3.247   4.783   3.970  1.0784 -0.4398  0.4930
 1275TIP3    H225241   3.313   4.687   3.874  1.0350  0.8447 -0.8654
 1276TIP3   OH225242   2.168   0.580  14.656  0.4932  0.2379 -0.0414
 1276TIP3    H125243   2.221   0.652  14.689  0.9647 -0.8526  1.7520
 1276TIP3    H225244   2.093   0.576  14.715 -0.8540  0.8031 -1.6320
 1277TIP3   OH225245   0.400   1.196  10.861 -0.0533  0.1406 -0.1430
 1277TIP3    H125246   0.431   1.106  10.850  0.3480  0.3104 -0.4192
 1277TIP3    H225247   0.457   1.232  10.929 -1.5170 -0.4262  1.4280
 1278TIP3   OH225248   2.659   0.338  11.927 -0.2303  0.3740 -0.1817
 1278TIP3    H125249   2.672   0.352  12.021 -0.8830 -0.5485  0.0693
 1278TIP3    H225250   2.598   0.264  11.923 -0.4591  0.6104 -1.3322
 1279TIP3   OH225251   3.852   1.762  15.003  0.3072 -0.1618 -0.6969
 1279TIP3    H125252   3.790   1.825  14.967  1.6961  2.3198  0.9709
 1279TIP3    H225253   3.831   1.759  15.097  0.9860 -1.3664 -0.5677
 1280TIP3   OH225254   3.371   4.451   6.451 -0.0131  0.2428 -0.1621
 1280TIP3    H125255   3.290   4.409   6.422  1.2400 -1.9433 -0.6971
 1280TIP3    H225256   3.372   4.536   6.407 -1.9668  0.2837 -0.1898
 1281TIP3   OH225257   0.482   2.494  10.141  0.1030 -0.0231 -0.5728
 1281TIP3    H125258   0.410   2.438  10.110  0.1712 -1.6784  1.9975
 1281TIP3    H225259   0.561   2.441  10.126  0.4914  0.6015 -0.7460
 1282TIP3   OH225260   2.334   3.238  14.669 -0.0872  0.0896 -0.1429
 1282TIP3    H125261   2.385   3.283  14.737  0.6185 -0.7330 -0.1042
 1282TIP3    H225262   2.399   3.187  14.621 -0.8327 -0.7498 -0.2865
 1283TIP3   OH225263   5.461   3.896   1.114  0.1146  0.6371 -0.2254
 1283TIP3    H125264   5.444   3.989   1.123  2.3427  0.9924  1.0039
 1283TIP3    H225265   5.532   3.878   1.175 -2.7050 -2.6796  2.5698
 1284TIP3   OH225266   2.471   4.555  10.838 -0.2923 -0.5655 -0.6677
 1284TIP3    H125267   2.496   4.464  10.822  0.3993 -0.1636 -2.0874
 1284TIP3    H225268   2.416   4.578  10.763 -0.2975  0.2410 -0.4262
 1285TIP3   OH225269   6.408   4.160   0.950  0.0366  0.4977 -0.1551
 1285TIP3    H125270   6.397   4.125   0.862  0.6335  1.2206 -0.5243
 1285TIP3    H225271   6.390   4.253   0.942 -0.5797  0.4610  0.6318
 1286TIP3   OH225272   4.241   2.827   2.469 -0.6137 -0.6423  0.8575
 1286TIP3    H125273   4.184   2.842   2.394  1.2504  0.9599 -0.3356
 1286TIP3    H225274   4.281   2.912   2.486  1.3219 -1.6652  1.7118
 1287TIP3   OH225275   1.686   3.015  12.343 -0.0827  0.6438 -0.0580
 1287TIP3    H125276   1.713   3.067  12.268 -0.1684  1.6968  0.6159
 1287TIP3    H225277   1.726   2.930  12.329  0.6137  1.0925 -0.8657
 1288TIP3   OH225278   2.645   0.806  15.989 -1.0836 -0.4590  0.0037
 1288TIP3    H125279   2.632   0.712  15.980 -3.1213 -0.1879 -0.4293
 1288TIP3    H225280   2.605   0.843  15.910  1.2488  0.7052 -0.7270
 1289TIP3   OH225281   0.388   0.010  15.594 -0.1480 -1.0075  0.1096
 1289TIP3    H125282   0.479  -0.014  15.581  0.4544  1.9281 -2.2171
 1289TIP3    H225283   0.382   0.032  15.687  2.0417  0.4561 -0.0343
 1290TIP3   OH225284   0.154   5.090  11.477 -0.3006 -0.3952  0.6577
 1290TIP3    H125285   0.132   5.115  11.566  0.0502 -0.0423  0.6474
 1290TIP3    H225286   0.156   4.994  11.478  0.3048 -0.3818  1.1792
 1291TIP3   OH225287   1.528   1.574  12.869 -0.2137  0.4249  0.3307
 1291TIP3    H125288   1.459   1.628  12.908  0.7473  1.6272  0.3923
 1291TIP3    H225289   1.536   1.606  12.779  0.5685  0.5956  0.4548
 1292TIP3   OH225290   4.369   1.640  15.656  0.0706  0.5231  0.4083
 1292TIP3    H125291   4.396   1.730  15.639  1.1192  0.5059  1.8114
 1292TIP3    H225292   4.406   1.619  15.742 -0.9691 -0.9293  0.5434
 1293TIP3   OH225293   2.952   1.906   5.400 -0.2430 -0.6116  0.3400
 1293TIP3    H125294   2.941   1.890   5.493 -2.2336  0.9238  0.4407
 1293TIP3    H225295   2.972   1.820   5.363 -0.4534 -1.4336  2.0363
 1294TIP3   OH225296   1.977   4.685   3.561 -0.5282  0.3421 -0.6168
 1294TIP3    H125297   2.024   4.766   3.580  0.4238  0.0211 -1.4842
 1294TIP3    H225298   2.042   4.616   3.572 -0.9071 -0.1563 -1.3790
 1295TIP3   OH225299   4.616   5.162   3.725  1.1318  0.4437  0.1087
 1295TIP3    H125300   4.549   5.100   3.699  0.8629  1.3025 -1.3669
 1295TIP3    H225301   4.644   5.203   3.643  2.1368  1.4196  0.9025
 1296TIP3   OH225302   1.147   0.527   1.612  0.0008  0.0939  0.2549
 1296TIP3    H125303   1.105   0.609   1.585 -1.0977  0.1226  1.9359
 1296TIP3    H225304   1.173   0.542   1.703  4.7549  0.4995 -0.8782
 1297TIP3   OH225305   5.645   4.047  10.553 -0.5155 -0.0104  0.0638
 1297TIP3    H125306   5.575   4.108  10.529 -1.5719 -1.4380 -0.5907
 1297TIP3    H225307   5.708   4.102  10.600 -1.1938  1.6812 -0.8872
 1298TIP3   OH225308   4.160   5.999   0.191  0.3496 -0.4003  0.0092
 1298TIP3    H125309   4.194   5.915   0.221  0.7232 -0.9887 -1.9169
 1298TIP3    H225310   4.237   6.049   0.164  0.0119 -0.1553 -0.5328
 1299TIP3   OH225311   0.773   1.518   1.045 -0.1473  0.0531  0.2044
 1299TIP3    H125312   0.856   1.473   1.026 -0.9202 -1.0069 -0.8349
 1299TIP3    H225313   0.782   1.602   1.001  0.2899 -0.1509 -0.1146
 1300TIP3   OH225314   4.026   4.268  15.780  0.1668 -0.2306  0.0894
 1300TIP3    H125315   4.022   4.309  15.866 -0.9518  0.4351 -0.2579
 1300TIP3    H225316   3.966   4.194  15.785 -1.5004  1.0173 -0.7080
 1301TIP3   OH225317   2.080   6.170  12.447  0.0856  0.7351 -0.5169
 1301TIP3    H125318   2.000   6.138  12.405 -1.9349  1.8026  2.2208
 1301TIP3    H225319   2.116   6.233  12.385 -2.4688  1.8892 -0.9431
 1302TIP3   OH225320   0.662   0.038   2.388  0.4311 -0.3749 -0.2739
 1302TIP3    H125321   0.677  -0.051   2.419 -0.4324 -0.0646  1.1586
 1302TIP3    H225322   0.567   0.048   2.387  0.3607  1.8954  4.1485
 1303TIP3   OH225323   1.709   4.582  16.705  0.2384  0.5949  0.2987
 1303TIP3    H125324   1.741   4.662  16.664  1.2072 -0.5684 -1.3989
 1303TIP3    H225325   1.676   4.609  16.790  0.3935  2.7953 -0.2780
 1304TIP3   OH225326   0.538   6.551   1.864 -0.7383  0.6136 -0.0264
 1304TIP3    H125327   0.509   6.642   1.860 -0.2768  0.8626  1.7094
 1304TIP3    H225328   0.631   6.555   1.885 -0.4980 -0.2548 -0.8447
 1305TIP3   OH225329   2.193   1.582  16.599  0.5561  0.3157  0.2051
 1305TIP3    H125330   2.098   1.587  16.607  0.0163  2.2349 -4.2951
 1305TIP3    H225331   2.210   1.489  16.585 -1.0580  0.1724 -1.2570
 1306TIP3   OH225332   3.031   2.754  13.632  0.9047 -0.6811  0.1953
 1306TIP3    H125333   3.028   2.674  13.580 -0.7993 -0.0649 -0.7142
 1306TIP3    H225334   2.959   2.807  13.600  1.0465  0.5968  1.8261
 1307TIP3   OH225335   0.544   5.815  12.624  0.1718  0.1829 -0.0997
 1307TIP3    H125336   0.607   5.876  12.663 -1.6320  1.3067  1.1844
 1307TIP3    H225337   0.521   5.854  12.540  0.2556  0.4163 -0.0140
 1308TIP3   OH225338   0.767   4.290  12.278 -0.0037  0.2930  0.0985
 1308TIP3    H125339   0.831   4.347  12.321  1.4401 -0.0424 -1.4964
 1308TIP3    H225340   0.755   4.217  12.339  2.9596 -0.8124 -0.4657
 1309TIP3   OH225341   6.146   0.238   0.319 -0.2325  0.0277 -0.1376
 1309TIP3    H125342   6.174   0.149   0.297  1.2698  0.0365  1.5392
 1309TIP3    H225343   6.094   0.228   0.399  0.3778  0.6915  0.3511
 1310TIP3   OH225344   1.100   2.272   1.622 -0.3044  0.0865 -0.3472
 1310TIP3    H125345   1.125   2.346   1.678  1.3070 -1.4653  1.1004
 1310TIP3    H225346   1.081   2.312   1.537 -0.2838  2.2458  0.5928
 1311TIP3   OH225347   3.194   4.603  14.903  0.2300  0.0054 -0.2033
 1311TIP3    H125348   3.109   4.564  14.883  0.1825 -0.9849  1.6779
 1311TIP3    H225349   3.243   4.534  14.947  1.9643  0.6186 -1.0624
 1312TIP3   OH225350   6.214   2.872  15.430 -0.2748  0.2702  0.0063
 1312TIP3    H125351   6.249   2.920  15.505 -0.6535  0.8831 -0.2007
 1312TIP3    H225352   6.287   2.868  15.368  0.0101 -0.1560  0.3646
 1313TIP3   OH225353   3.206   2.742   0.713 -0.4457  0.3811  0.2754
 1313TIP3    H125354   3.124   2.711   0.753  0.1771  1.4713  2.5815
 1313TIP3    H225355   3.204   2.837   0.725  0.9977  0.4573  0.0486
 1314TIP3   OH225356   2.350   2.677  13.857 -0.0063 -0.4400  0.4623
 1314TIP3    H125357   2.442   2.661  13.837  0.8325  1.7402  2.0826
 1314TIP3    H225358   2.303   2.649  13.779  2.4110  2.0500 -2.1672
 1315TIP3   OH225359   2.124   3.907  13.939  0.4262 -0.5312 -0.8479
 1315TIP3    H125360   2.051   3.896  13.878  0.9809  0.8515 -1.8259
 1315TIP3    H225361   2.172   3.824  13.935 -0.1796 -0.8605 -1.4251
 1316TIP3   OH225362   4.396   0.588   5.913  0.6207 -0.0747 -0.1771
 1316TIP3    H125363   4.311   0.552   5.938 -0.1118  1.8119  0.2271
 1316TIP3    H225364   4.450   0.577   5.991 -0.0961  1.1443  0.5184
 1317TIP3   OH225365   0.838   6.550   3.568  0.0537  0.3842 -0.0702
 1317TIP3    H125366   0.918   6.604   3.571 -0.0306  0.4837  0.5383
 1317TIP3    H225367   0.772   6.602   3.614 -0.2713  0.1496 -0.2676
 1318TIP3   OH225368   3.989   6.761   4.864  0.1138 -0.0419 -0.0567
 1318TIP3    H125369   3.961   6.819   4.934  0.6147 -0.5124  0.5516
 1318TIP3    H225370   4.082   6.744   4.882  0.9885  1.8447 -2.2639
 1319TIP3   OH225371   2.946   0.720   4.767  0.5553  0.5424  0.8588
 1319TIP3    H125372   2.975   0.759   4.684  2.0739 -0.2302  0.9956
 1319TIP3    H225373   2.928   0.628   4.746 -1.8206  0.9571  0.8045
 1320TIP3   OH225374   2.152   1.157  10.768  0.7348 -0.5192  0.2486
 1320TIP3    H125375   2.057   1.160  10.782  0.5313  0.7552 -1.2661
 1320TIP3    H225376   2.186   1.118  10.849 -1.1885 -2.4849  0.2158
 1321TIP3   OH225377   4.138   2.046  16.167 -0.0167 -0.3695 -0.3192
 1321TIP3    H125378   4.075   2.030  16.098  0.9244 -1.8707 -0.8796
 1321TIP3    H225379   4.092   2.023  16.248 -1.1738  1.5520 -0.3755
 1322TIP3   OH225380   5.280   0.521   4.412 -0.3175  0.0166 -0.4477
 1322TIP3    H125381   5.299   0.614   4.419 -1.8788  0.3028  0.7642
 1322TIP3    H225382   5.259   0.494   4.502 -0.5442 -1.3486 -0.8819
 1323TIP3   OH225383   5.468   0.284  14.603  0.7680  0.3008 -0.4120
 1323TIP3    H125384   5.546   0.340  14.598  0.4161  1.0484  1.7025
 1323TIP3    H225385   5.399   0.335  14.559  1.0726  0.3373 -0.8566
 1324TIP3   OH225386   3.114   4.709   1.368  0.2037 -0.1958  0.1400
 1324TIP3    H125387   3.204   4.698   1.399  0.8738  3.4895 -0.0927
 1324TIP3    H225388   3.078   4.780   1.421 -2.1371 -0.6591 -0.6940
 1325TIP3   OH225389   3.225   6.485   3.015  0.4772 -0.1756  0.4032
 1325TIP3    H125390   3.150   6.497   3.073  0.3180 -0.1440  0.1945
 1325TIP3    H225391   3.301   6.515   3.066  0.2980  0.1572  0.4790
 1326TIP3   OH225392   3.250   3.613   2.109 -1.1437  0.4627 -0.4482
 1326TIP3    H125393   3.265   3.682   2.044  0.5626 -0.1042 -0.7143
 1326TIP3    H225394   3.219   3.538   2.059  0.2898 -0.0139 -0.6821
 1327TIP3   OH225395   0.421   5.541  13.636  0.4868  0.1976  0.0505
 1327TIP3    H125396   0.399   5.543  13.543  0.8401  0.9667 -0.0188
 1327TIP3    H225397   0.382   5.620  13.672  0.5212  0.0041  0.5270
 1328TIP3   OH225398   5.778   1.254   4.897  1.1046 -0.3335  0.1660
 1328TIP3    H125399   5.774   1.339   4.852 -0.8896 -0.6403 -0.3213
 1328TIP3    H225400   5.735   1.269   4.981  1.1925 -0.7415  0.2837
 1329TIP3   OH225401   3.173   1.094  12.701  0.5207 -0.1877 -0.5031
 1329TIP3    H125402   3.170   1.069  12.609 -1.3516 -2.6226  0.1092
 1329TIP3    H225403   3.262   1.072  12.729  0.1078 -2.7648 -0.9820
 1330TIP3   OH225404   4.959   4.754  11.287 -0.1983 -0.3086  0.4866
 1330TIP3    H125405   4.943   4.681  11.227 -2.0328 -0.4380  1.0556
 1330TIP3    H225406   5.036   4.727  11.337  0.4282 -0.8904 -0.7280
 1331TIP3   OH225407   2.742   4.875  12.977  0.0980 -0.1064 -0.2132
 1331TIP3    H125408   2.745   4.849  13.069 -0.1216 -2.9036 -0.9243
 1331TIP3    H225409   2.833   4.866  12.947  0.1413  0.6635 -0.3395
 1332TIP3   OH225410   1.384   1.623   2.270 -0.4408 -0.6891  0.0579
 1332TIP3    H125411   1.371   1.586   2.358 -3.3497  0.3188  0.1652
 1332TIP3    H225412   1.300   1.665   2.249  1.5273  3.0420 -1.3514
 1333TIP3   OH225413   0.040   4.596  12.298 -0.7058  0.4045  0.2958
 1333TIP3    H125414   0.108   4.534  12.271  0.2950  1.9471 -0.8671
 1333TIP3    H225415  -0.033   4.578  12.238 -0.0010  1.0830 -0.7904
 1334TIP3   OH225416   3.723   3.795   0.000 -0.2273  0.1248 -0.1773
 1334TIP3    H125417   3.751   3.845   0.078 -0.0343 -1.8287  1.0662
 1334TIP3    H225418   3.677   3.719   0.036 -2.3499  0.4176 -2.0653
 1335TIP3   OH225419   5.406   6.121  16.705 -0.2220  0.3062 -0.4262
 1335TIP3    H125420   5.325   6.070  16.710  0.3041 -0.4935  0.3870
 1335TIP3    H225421   5.413   6.146  16.613 -0.9839 -0.2925 -0.6625
 1336TIP3   OH225422   1.665   5.551   3.737 -0.0997 -0.2286  0.2315
 1336TIP3    H125423   1.671   5.638   3.776  2.2165  0.0491 -0.5820
 1336TIP3    H225424   1.596   5.559   3.671  0.0202  0.9747  0.2332
 1337TIP3   OH225425   4.963   0.856   5.360 -0.2079 -0.2040  0.2773
 1337TIP3    H125426   4.909   0.900   5.425  0.3689  1.7397 -0.4724
 1337TIP3    H225427   5.048   0.845   5.403 -0.5718 -1.3208  0.7294
 1338TIP3   OH225428   2.929   6.780  14.217  0.1191 -0.0114 -0.1917
 1338TIP3    H125429   2.967   6.844  14.277 -1.2669 -0.3070  1.0531
 1338TIP3    H225430   2.835   6.796  14.221 -0.1019 -0.8135 -1.4141
 1339TIP3   OH225431   2.405   5.308   0.957 -0.1256  0.1995 -0.1291
 1339TIP3    H125432   2.321   5.314   1.003 -0.6093 -0.5565 -0.8724
 1339TIP3    H225433   2.427   5.398   0.935 -0.2430  0.5028  0.9405
 1340TIP3   OH225434   0.271   4.351   2.864 -0.1471 -0.4599  0.2894
 1340TIP3    H125435   0.209   4.317   2.929 -0.4251  0.3047  0.4373
 1340TIP3    H225436   0.227   4.428   2.827  0.2554 -0.5466 -0.3902
 1341TIP3   OH225437   2.977   3.659   0.304 -0.2259 -0.4585  0.0908
 1341TIP3    H125438   2.931   3.592   0.254  0.1944  0.5777 -1.7548
 1341TIP3    H225439   2.934   3.741   0.280 -0.1155  0.0651  1.5758
 1342TIP3   OH225440   3.555   6.349  11.037  0.2296  0.1204  0.5587
 1342TIP3    H125441   3.625   6.296  11.075  0.5817 -0.1224 -0.3816
 1342TIP3    H225442   3.505   6.287  10.983  1.9509  1.0426 -2.3580
 1343TIP3   OH225443   5.494   4.136  15.549  0.3929  0.1121  0.1969
 1343TIP3    H125444   5.546   4.176  15.619  0.9483  0.0393 -0.1674
 1343TIP3    H225445   5.405   4.134  15.584  0.5765  0.5264  0.7072
 1344TIP3   OH225446   4.502   5.570  14.744  0.8439 -0.6128  0.0444
 1344TIP3    H125447   4.473   5.595  14.832  0.0944 -0.2768 -0.2854
 1344TIP3    H225448   4.439   5.613  14.685  2.2826  0.5021 -0.7244
 1345TIP3   OH225449   0.268   2.316   3.334  0.3775  0.4510 -0.6109
 1345TIP3    H125450   0.271   2.410   3.347 -0.3085  0.3337  0.4673
 1345TIP3    H225451   0.307   2.279   3.413  0.2639 -0.1822 -0.8444
 1346TIP3   OH225452   0.248   1.870   2.329  0.4174 -0.3809 -0.0236
 1346TIP3    H125453   0.331   1.820   2.330  0.4598 -0.3086  0.4134
 1346TIP3    H225454   0.237   1.898   2.420  0.0348 -0.1817 -0.1332
 1347TIP3   OH225455   1.880   0.898  14.281  0.1358 -0.0742 -0.1415
 1347TIP3    H125456   1.843   0.985  14.265  2.6444  0.9771 -0.6770
 1347TIP3    H225457   1.916   0.871  14.197  0.5601 -1.0403  0.3369
 1348TIP3   OH225458   4.476   2.068   1.570  0.2731  0.1116  0.0071
 1348TIP3    H125459   4.470   2.111   1.484 -1.1533  1.3609  0.6832
 1348TIP3    H225460   4.564   2.031   1.571  0.5549  0.5921 -1.7506
 1349TIP3   OH225461   3.473   3.878   6.063 -0.1022 -0.0632 -0.4216
 1349TIP3    H125462   3.386   3.841   6.045 -0.4351  0.6766 -0.3756
 1349TIP3    H225463   3.473   3.962   6.017  0.5797 -0.0423 -0.3930
 1350TIP3   OH225464   6.498   1.607  14.227 -0.1188 -0.2867 -0.5769
 1350TIP3    H125465   6.421   1.644  14.182  1.6790  1.6860 -2.2773
 1350TIP3    H225466   6.525   1.534  14.171 -1.4669 -1.9103  0.7724
 1351TIP3   OH225467   6.441   5.695   1.852  0.0813 -0.6328 -0.0039
 1351TIP3    H125468   6.459   5.780   1.811 -2.9406 -0.1567 -0.6128
 1351TIP3    H225469   6.527   5.659   1.871  1.5902  0.8396 -3.2414
 1352TIP3   OH225470   6.597   4.046   5.292  0.3400 -0.1777 -0.7171
 1352TIP3    H125471   6.545   4.114   5.333 -2.9260 -1.0983 -2.9311
 1352TIP3    H225472   6.611   3.981   5.361 -1.6931  0.0232 -0.0592
 1353TIP3   OH225473   4.829   5.637  16.812 -0.3441 -0.3007 -0.2809
 1353TIP3    H125474   4.887   5.599  16.745 -0.2716 -1.4497  0.4073
 1353TIP3    H225475   4.869   5.612  16.895 -0.9948  0.2232  0.1954
 1354TIP3   OH225476   6.245   1.317  16.314  0.3672  0.1526 -0.6801
 1354TIP3    H125477   6.279   1.250  16.373  1.2019 -0.2736 -1.6132
 1354TIP3    H225478   6.319   1.337  16.255 -0.2224  1.0640 -1.1378
 1355TIP3   OH225479   3.120   2.073   2.357  0.0196 -0.0648 -0.2752
 1355TIP3    H125480   3.108   2.154   2.406  0.9630 -0.5521  0.7965
 1355TIP3    H225481   3.035   2.030   2.361 -0.3497  0.6286 -0.4338
 1356TIP3   OH225482   5.813   0.928   0.614  0.2508 -0.9322 -0.4981
 1356TIP3    H125483   5.732   0.887   0.583  0.5006 -0.3161 -2.0790
 1356TIP3    H225484   5.879   0.860   0.606  0.2201 -0.9175 -0.9076
 1357TIP3   OH225485   1.833   0.959  15.604 -0.2586  0.1766  0.5293
 1357TIP3    H125486   1.835   0.938  15.510 -1.6458 -0.5598  0.6331
 1357TIP3    H225487   1.910   0.916  15.640  0.5090  0.7970 -0.3255
 1358TIP3   OH225488   2.580   0.488   0.500  0.3930  0.2030 -0.2230
 1358TIP3    H125489   2.648   0.430   0.532  0.5819  0.0381 -0.9051
 1358TIP3    H225490   2.587   0.483   0.404  1.9284  3.0741 -0.3676
 1359TIP3   OH225491   4.344   2.243  16.161 -0.1136  0.0977 -0.3379
 1359TIP3    H125492   4.262   2.195  16.170  0.7088 -1.7577 -1.9511
 1359TIP3    H225493   4.374   2.258  16.251 -1.7590  0.0385  0.2521
 1360TIP3   OH225494   6.664   2.871   3.691 -0.3253  0.3623 -0.5280
 1360TIP3    H125495   6.667   2.868   3.787  0.2070 -0.1372 -0.5516
 1360TIP3    H225496   6.749   2.908   3.666  0.3396 -1.2595 -0.8453
 1361TIP3   OH225497   4.735   0.785  16.954 -0.3820 -0.4627 -0.0678
 1361TIP3    H125498   4.724   0.696  16.918  2.4998 -0.3002 -1.6805
 1361TIP3    H225499   4.741   0.841  16.877  0.5049  0.7532  0.8525
 1362TIP3   OH225500   4.181   4.859   4.218 -0.1759  0.7621 -0.8826
 1362TIP3    H125501   4.202   4.765   4.222  0.9901  1.0420  1.2319
 1362TIP3    H225502   4.093   4.866   4.252  0.8831  0.6590  2.1321
 1363TIP3   OH225503   4.118   1.013   0.536 -0.1067  0.5425  0.3637
 1363TIP3    H125504   4.180   1.086   0.541  0.2926  0.1480  1.1792
 1363TIP3    H225505   4.116   0.976   0.624 -3.4279  2.1244  1.1175
 1364TIP3   OH225506   0.710   0.297   1.817  0.2573 -0.1793 -0.7520
 1364TIP3    H125507   0.786   0.238   1.814 -1.1627 -2.1276 -0.1704
 1364TIP3    H225508   0.659   0.275   1.739 -0.6699 -0.2820 -0.1323
 1365TIP3   OH225509   4.206   0.823  16.298 -0.4104 -0.1174 -0.1577
 1365TIP3    H125510   4.257   0.860  16.226  2.5234 -1.7061  0.9287
 1365TIP3    H225511   4.148   0.759  16.256  0.6709 -0.4443 -1.2076
 1366TIP3   OH225512   2.970   3.220   4.806  0.3647  0.5732 -0.0478
 1366TIP3    H125513   3.016   3.304   4.795  0.0482  0.8207  0.4736
 1366TIP3    H225514   3.038   3.159   4.831  0.5999  0.6699 -0.4352
 1367TIP3   OH225515   0.479   3.182  15.424 -0.2213  0.2709  0.3349
 1367TIP3    H125516   0.406   3.244  15.428 -1.4509 -0.2225 -5.6411
 1367TIP3    H225517   0.439   3.096  15.439  0.1064  0.3014  1.4944
 1368TIP3   OH225518   2.488   0.743   0.580  0.2999  0.3649  0.0253
 1368TIP3    H125519   2.517   0.667   0.530  0.0889 -0.6737  1.4300
 1368TIP3    H225520   2.434   0.707   0.650  1.7782  1.6226  1.8949
 1369TIP3   OH225521   0.657   3.222   3.366  0.1237 -0.6049  0.7936
 1369TIP3    H125522   0.750   3.233   3.349 -0.3600 -0.4881 -2.4594
 1369TIP3    H225523   0.651   3.142   3.417  1.9652 -1.2547  0.0761
 1370TIP3   OH225524   2.214   5.172  15.056 -0.5926 -0.1364  0.7059
 1370TIP3    H125525   2.258   5.101  15.102  1.5577 -0.0682 -1.1119
 1370TIP3    H225526   2.191   5.234  15.125  3.0640  0.2741  1.7709
 1371TIP3   OH225527   0.890   5.167   4.373  0.3108  0.1142 -0.4365
 1371TIP3    H125528   0.925   5.090   4.417  3.0607  0.1660 -2.3347
 1371TIP3    H225529   0.879   5.231   4.443 -1.8214 -1.8095  1.1445
 1372TIP3   OH225530   4.537   1.194  14.083  0.0245  0.2570  0.2482
 1372TIP3    H125531   4.483   1.141  14.025  0.0692 -0.0829  0.5112
 1372TIP3    H225532   4.475   1.254  14.126 -0.3573 -0.9446  1.4602
 1373TIP3   OH225533   5.228   1.239   1.929 -0.1109 -0.0042  0.6357
 1373TIP3    H125534   5.246   1.219   1.837 -0.3884  1.8927  0.1347
 1373TIP3    H225535   5.172   1.316   1.927  0.5056  0.5468  2.4076
 1374TIP3   OH225536   1.854   6.711  15.831  0.3238 -0.3461  0.7307
 1374TIP3    H125537   1.850   6.728  15.925  1.7489  1.2332  0.5449
 1374TIP3    H225538   1.948   6.713  15.811  0.0099 -0.2681 -0.7869
 1375TIP3   OH225539   6.635   4.285  11.533 -0.3176  0.0098  0.2822
 1375TIP3    H125540   6.570   4.278  11.603 -0.8309  0.1307 -0.1770
 1375TIP3    H225541   6.584   4.292  11.453  0.2714 -1.8512 -0.2952
 1376TIP3   OH225542   1.339   2.006  15.929 -0.0991  0.0954 -0.1976
 1376TIP3    H125543   1.283   2.072  15.888 -0.2791 -0.5479 -1.0125
 1376TIP3    H225544   1.298   1.989  16.014  1.4810  3.0609  1.3313
 1377TIP3   OH225545   4.138   6.617  13.582 -0.3341 -0.9585  0.8718
 1377TIP3    H125546   4.138   6.575  13.496 -0.9650  1.8296 -0.6154
 1377TIP3    H225547   4.230   6.639  13.599 -0.2907 -0.9426  0.6087
 1378TIP3   OH225548   6.006   0.856   1.495  0.2735 -0.1519 -0.2841
 1378TIP3    H125549   5.936   0.917   1.469  0.4440  0.2320  0.1478
 1378TIP3    H225550   6.050   0.900   1.567  0.9643 -0.4002 -0.5530
 1379TIP3   OH225551   6.066   3.517  14.871  0.5113 -0.0710 -0.5740
 1379TIP3    H125552   6.024   3.483  14.792 -1.0874  1.4767 -0.4655
 1379TIP3    H225553   6.026   3.603  14.884  1.9360  0.4167  1.0087
 1380TIP3   OH225554   3.381   3.763  13.419 -0.0302 -0.3901 -0.2558
 1380TIP3    H125555   3.287   3.762  13.401 -0.0161  2.0655 -0.9517
 1380TIP3    H225556   3.389   3.739  13.511 -1.2390 -1.5542 -0.4355
 1381TIP3   OH225557   2.984   1.368   5.271  0.0522 -0.0623  0.0345
 1381TIP3    H125558   2.979   1.393   5.363 -0.3107 -2.7346  0.8424
 1381TIP3    H225559   2.982   1.272   5.273 -0.8604 -0.1811 -2.8149
 1382TIP3   OH225560   5.931   3.930  11.807  0.2003 -0.1027  0.2699
 1382TIP3    H125561   5.845   3.889  11.815 -0.0315 -0.0299 -1.4992
 1382TIP3    H225562   5.935   3.961  11.717  2.1740 -0.3051  0.2441
 1383TIP3   OH225563   2.002   6.135  14.044  0.3083  0.3280  0.5499
 1383TIP3    H125564   1.988   6.140  14.139  1.0996 -0.2198  0.7044
 1383TIP3    H225565   2.072   6.072  14.033 -0.4094 -0.3254 -0.4802
 1384TIP3   OH225566   0.368   0.189  14.551  0.1933 -0.1873  0.4263
 1384TIP3    H125567   0.302   0.215  14.616 -0.2068  0.1361 -0.1002
 1384TIP3    H225568   0.359   0.094  14.545 -1.0587 -0.0279 -0.5128
 1385TIP3   OH225569   6.612   2.493   5.530 -0.4561  0.4047 -0.0229
 1385TIP3    H125570   6.590   2.580   5.563 -2.3496  0.7711 -1.9832
 1385TIP3    H225571   6.529   2.445   5.533 -0.0890 -0.3929 -1.5235
 1386TIP3   OH225572   3.076   5.661  15.107 -0.2979  0.7947 -0.0472
 1386TIP3    H125573   3.049   5.644  15.197  0.9987 -0.8941  0.0669
 1386TIP3    H225574   3.142   5.594  15.088 -0.0840  1.4939 -2.0501
 1387TIP3   OH225575   4.221   5.295   1.301 -0.2230  0.0195 -0.2421
 1387TIP3    H125576   4.218   5.292   1.396  1.0914 -2.1577 -0.1848
 1387TIP3    H225577   4.129   5.300   1.274 -0.6117  0.6054  1.1322
 1388TIP3   OH225578   1.864   5.592   2.168  0.8044  0.1048  0.2513
 1388TIP3    H125579   1.894   5.668   2.117  0.6946 -0.0057  0.0208
 1388TIP3    H225580   1.919   5.592   2.246  0.2455  0.9212  0.6615
 1389TIP3   OH225581   2.820   0.347   4.427 -0.4871 -0.3181  0.2775
 1389TIP3    H125582   2.731   0.355   4.462  0.6529  1.0960  3.1568
 1389TIP3    H225583   2.845   0.437   4.405  0.1531 -0.7494 -0.8784
 1390TIP3   OH225584   1.883   4.016  15.923 -0.2273  0.0966  0.6263
 1390TIP3    H125585   1.927   3.962  15.857  0.0546 -0.5777  1.3438
 1390TIP3    H225586   1.837   4.083  15.872 -1.2820 -1.2984 -0.3760
 1391TIP3   OH225587   3.858   2.982  14.103 -0.4276  0.9951  0.0601
 1391TIP3    H125588   3.871   3.076  14.091 -0.0360  1.0265  0.6624
 1391TIP3    H225589   3.794   2.957  14.036 -1.9724  2.0390  1.0874
 1392TIP3   OH225590   2.880   6.432   0.682  0.1354  0.3221  0.5732
 1392TIP3    H125591   2.845   6.396   0.764 -0.2712 -2.0204 -0.5765
 1392TIP3    H225592   2.974   6.445   0.700 -0.1537  0.9725  1.7538
 1393TIP3   OH225593   2.815   6.552  16.711 -0.2880 -0.1437 -0.5418
 1393TIP3    H125594   2.771   6.484  16.661 -0.1717  0.6670 -1.7945
 1393TIP3    H225595   2.768   6.632  16.689  0.6427  0.4491 -0.4443
 1394TIP3   OH225596   0.505   2.553  12.811  0.4063 -0.5146  0.0095
 1394TIP3    H125597   0.481   2.591  12.895  0.6460 -0.2573 -0.0370
 1394TIP3    H225598   0.593   2.519  12.824  1.0394  0.8259 -0.5423
 1395TIP3   OH225599   3.435   6.372  13.769  0.2299  0.4104  0.0604
 1395TIP3    H125600   3.453   6.390  13.677 -3.0019 -1.7183 -1.1982
 1395TIP3    H225601   3.457   6.279  13.779  0.9977  0.7380  1.6040
 1396TIP3   OH225602   4.303   6.102   5.506  0.2598 -0.5636  0.6934
 1396TIP3    H125603   4.395   6.074   5.505  0.3721 -0.2083 -0.4078
 1396TIP3    H225604   4.258   6.035   5.556  0.9192 -1.4218  0.1679
 1397TIP3   OH225605   4.623   2.083   3.531  0.1642 -0.1338  0.5028
 1397TIP3    H125606   4.716   2.089   3.509  0.0882  2.5944  0.5946
 1397TIP3    H225607   4.578   2.113   3.452 -0.6689 -1.3790  0.4835
 1398TIP3   OH225608   6.392   2.925   2.579  0.1744 -0.1114 -0.2882
 1398TIP3    H125609   6.315   2.871   2.559 -1.1397  1.5541  0.0417
 1398TIP3    H225610   6.466   2.867   2.564 -1.0947 -1.5216 -1.4831
 1399TIP3   OH225611   2.653   4.711   0.775  0.1662 -0.1375 -0.3997
 1399TIP3    H125612   2.658   4.789   0.719 -0.0019 -0.4495 -0.8596
 1399TIP3    H225613   2.614   4.743   0.857 -0.7737  0.0978 -0.9134
 1400TIP3   OH225614   2.693   4.274   0.335 -0.1709 -0.0022  0.5348
 1400TIP3    H125615   2.756   4.277   0.407 -0.3211 -2.5327  0.8520
 1400TIP3    H225616   2.746   4.265   0.257 -0.0677  0.6482  0.5286
 1401TIP3   OH225617   4.174   5.654  15.252  0.4395 -0.2825  0.3895
 1401TIP3    H125618   4.249   5.711  15.265  0.4251 -0.0516 -0.4717
 1401TIP3    H225619   4.209   5.565  15.257  0.8112 -0.1718 -0.2380
 1402TIP3   OH225620   1.969   2.835   3.073  0.0094  0.0066  0.1707
 1402TIP3    H125621   2.045   2.849   3.015 -1.2196  0.9828 -1.3001
 1402TIP3    H225622   2.002   2.857   3.160  1.0491  1.9518 -0.6279
 1403TIP3   OH225623   5.466   0.745   6.482  0.3353 -0.3530  0.3388
 1403TIP3    H125624   5.385   0.795   6.498 -0.0681 -0.4807 -1.1626
 1403TIP3    H225625   5.457   0.667   6.536 -0.3919 -0.1982  0.4552
 1404TIP3   OH225626   1.113   4.213   0.816 -0.1146 -0.3642  0.2805
 1404TIP3    H125627   1.115   4.302   0.782  0.5237 -0.4144  0.1854
 1404TIP3    H225628   1.058   4.219   0.895  1.1034  0.4150  1.0980
 1405TIP3   OH225629   2.107   6.211  12.120  0.3695  0.0286 -0.0162
 1405TIP3    H125630   2.173   6.192  12.187  1.9432  1.2532 -1.1233
 1405TIP3    H225631   2.152   6.194  12.037 -1.4719 -1.2652 -0.8056
 1406TIP3   OH225632   1.938   5.545  12.270  0.3045 -0.7606 -0.2104
 1406TIP3    H125633   2.005   5.613  12.266  1.0196 -1.4634 -0.3438
 1406TIP3    H225634   1.915   5.539  12.362 -0.4034  0.2613 -0.2989
 1407TIP3   OH225635   3.508   4.846  12.620  0.5010  0.2466 -0.3317
 1407TIP3    H125636   3.591   4.861  12.575  0.3467 -2.4342 -1.7087
 1407TIP3    H225637   3.524   4.875  12.710  2.4079  1.2420 -0.9459
 1408TIP3   OH225638   0.103   6.711   2.366 -0.2186  0.0679  0.4308
 1408TIP3    H125639   0.165   6.686   2.298  0.5497 -0.0865  1.1734
 1408TIP3    H225640   0.020   6.672   2.339  0.2566 -0.6357 -0.0250
 1409TIP3   OH225641   5.122   0.177  13.162 -0.2111  0.1131 -0.3619
 1409TIP3    H125642   5.190   0.125  13.120 -2.1248 -1.0227 -2.2240
 1409TIP3    H225643   5.140   0.169  13.256 -0.4874 -4.1815 -0.4697
 1410TIP3   OH225644   4.705   3.868   1.741 -0.1708  0.3467 -0.5346
 1410TIP3    H125645   4.782   3.909   1.703 -0.6463 -0.4579 -2.5001
 1410TIP3    H225646   4.632   3.924   1.715 -0.2038  2.3586  3.1442
 1411TIP3   OH225647   6.124   6.648  11.722 -0.2662 -1.0988 -0.4320
 1411TIP3    H125648   6.107   6.564  11.765 -0.6884 -1.0296 -0.4676
 1411TIP3    H225649   6.204   6.632  11.672 -0.4780 -1.5549 -0.6316
 1412TIP3   OH225650   0.272   0.240   1.848 -0.4290 -0.5841  0.2216
 1412TIP3    H125651   0.207   0.180   1.812 -1.2954  0.5323 -0.1690
 1412TIP3    H225652   0.222   0.319   1.869  0.6018 -0.1363  1.0661
 1413TIP3   OH225653   4.188   6.181   3.142 -0.1476  0.1645 -0.3558
 1413TIP3    H125654   4.191   6.111   3.208 -3.3510  0.5444  0.3584
 1413TIP3    H225655   4.235   6.254   3.182 -2.7111  0.6745  2.0372
 1414TIP3   OH225656   6.209   1.079  14.803 -0.1410  0.4446 -0.3946
 1414TIP3    H125657   6.202   0.987  14.829 -0.4981  0.7477  0.6180
 1414TIP3    H225658   6.244   1.124  14.880 -0.6073  1.2682 -0.6495
 1415TIP3   OH225659   1.179   4.175   1.525 -0.4383  0.1989 -0.7968
 1415TIP3    H125660   1.189   4.166   1.431  1.5908  0.1375 -0.6069
 1415TIP3    H225661   1.266   4.159   1.561 -0.9357  1.2389  1.0248
 1416TIP3   OH225662   3.570   1.994  13.690  0.9497 -0.2657  0.2275
 1416TIP3    H125663   3.656   1.973  13.652  0.0085 -2.3677 -0.9101
 1416TIP3    H225664   3.551   1.921  13.748 -0.5348 -0.4030 -0.3956
 1417TIP3   OH225665   0.604   2.698  11.608 -0.0127  0.0211 -0.9489
 1417TIP3    H125666   0.512   2.722  11.598 -0.2727  0.1470  1.3160
 1417TIP3    H225667   0.602   2.604  11.628  0.1711  0.3557  0.8028
 1418TIP3   OH225668   0.148   4.203  13.198  0.1704  0.2218  0.3197
 1418TIP3    H125669   0.201   4.282  13.209  1.7543 -0.7771  0.1371
 1418TIP3    H225670   0.058   4.232  13.217  0.8931  1.7344  1.6693
 1419TIP3   OH225671   1.358   2.596  13.089  0.2429 -0.0447  0.7005
 1419TIP3    H125672   1.353   2.599  12.994  2.6666 -0.8262  0.4548
 1419TIP3    H225673   1.413   2.671  13.112 -0.2763  0.1036  1.4945
 1420TIP3   OH225674   2.243   2.820  15.116  0.2484 -0.3697  0.6954
 1420TIP3    H125675   2.167   2.852  15.067  0.7891 -1.8132 -1.2267
 1420TIP3    H225676   2.294   2.899  15.134 -0.7792  0.4016  0.3537
 1421TIP3   OH225677   4.502   5.916  13.251 -0.0972  0.6613  0.1795
 1421TIP3    H125678   4.535   5.965  13.177 -0.0325 -0.1675 -0.3516
 1421TIP3    H225679   4.574   5.916  13.314  2.2791 -3.5469 -2.0643
 1422TIP3   OH225680   6.176   5.299   2.781  0.2570  0.7389 -0.0071
 1422TIP3    H125681   6.115   5.278   2.851  1.1221  0.1136  0.5879
 1422TIP3    H225682   6.162   5.392   2.763 -0.4589  0.7351  0.5000
 1423TIP3   OH225683   1.553   0.416  16.974 -0.1995 -0.0391 -0.2186
 1423TIP3    H125684   1.479   0.375  17.019  0.7066 -0.3396  1.0588
 1423TIP3    H225685   1.524   0.505  16.954 -0.5739  0.1649  1.1467
 1424TIP3   OH225686   5.926   4.568  14.246  0.1141  0.0565  0.0901
 1424TIP3    H125687   5.847   4.618  14.226  0.2231  0.6740  1.1117
 1424TIP3    H225688   5.914   4.540  14.337  0.6252 -0.7120 -0.0666
 1425TIP3   OH225689   5.993   0.133  15.888 -0.4718 -0.0472  0.6247
 1425TIP3    H125690   5.962   0.202  15.829 -0.3070  0.3546  1.0105
 1425TIP3    H225691   6.064   0.173  15.938 -0.0715 -0.6272  0.5402
 1426TIP3   OH225692   6.288   5.641   3.609 -0.5720 -0.3398  0.1071
 1426TIP3    H125693   6.197   5.667   3.593 -0.8428 -1.1599  0.2471
 1426TIP3    H225694   6.296   5.642   3.705  0.3011  2.0937  0.0802
 1427TIP3   OH225695   2.649   4.072   5.781 -0.1467 -0.0354  0.7079
 1427TIP3    H125696   2.705   4.149   5.772 -1.3278  1.0864  2.3186
 1427TIP3    H225697   2.649   4.053   5.875 -1.1439 -1.0206  0.5319
 1428TIP3   OH225698   2.357   5.796  14.323 -0.0233 -0.9706  0.8302
 1428TIP3    H125699   2.407   5.719  14.351 -0.1683 -0.6302  2.1145
 1428TIP3    H225700   2.422   5.867  14.322 -0.1813 -0.8194  1.0955
 1429TIP3   OH225701   1.140   3.941  12.054 -0.3839 -0.0679  0.1997
 1429TIP3    H125702   1.124   3.863  12.107  2.4220 -0.0921  1.2203
 1429TIP3    H225703   1.094   4.011  12.100  0.7175 -0.3787  1.8938
 1430TIP3   OH225704   1.090   4.864   2.026  0.5126  0.0142 -0.2004
 1430TIP3    H125705   1.047   4.805   2.087  1.7480 -0.3526  0.3637
 1430TIP3    H225706   1.138   4.806   1.966  1.9746  0.4083  0.5334
 1431TIP3   OH225707   3.108   5.561  11.447 -0.2166  0.3074  0.0698
 1431TIP3    H125708   3.131   5.486  11.393 -1.9438  1.0452 -1.7977
 1431TIP3    H225709   3.141   5.539  11.534  0.7352 -1.8849 -0.7877
 1432TIP3   OH225710   0.322   6.469  12.390 -0.2065  0.0128 -0.7697
 1432TIP3    H125711   0.362   6.438  12.309  0.9299 -1.2865  0.2215
 1432TIP3    H225712   0.395   6.476  12.451 -0.9654  1.4696  0.0138
 1433TIP3   OH225713   3.169   4.079   3.231  0.3041 -0.5821 -0.6071
 1433TIP3    H125714   3.204   4.085   3.143  0.8479 -1.1116 -0.4353
 1433TIP3    H225715   3.078   4.052   3.219  0.5678 -1.3205 -0.9883
 1434TIP3   OH225716   6.687   4.851   4.123 -0.7308  0.8906 -0.1928
 1434TIP3    H125717   6.721   4.939   4.135  0.2465  0.8586 -2.3200
 1434TIP3    H225718   6.726   4.820   4.041  0.0593 -2.0527  1.1482
 1435TIP3   OH225719   6.579   4.472  11.004  0.5843  0.8623  0.4419
 1435TIP3    H125720   6.613   4.391  10.965 -1.5740  0.5936 -1.0384
 1435TIP3    H225721   6.489   4.450  11.029  0.5537  2.3056  1.7224
 1436TIP3   OH225722   2.618   1.760  12.353 -0.0493 -0.3188  0.2464
 1436TIP3    H125723   2.642   1.699  12.423 -0.6871 -1.1852 -0.2772
 1436TIP3    H225724   2.626   1.709  12.273  0.7171  0.6790 -0.3412
 1437TIP3   OH225725   1.026   5.506   0.301 -0.3921  0.4426  0.1118
 1437TIP3    H125726   1.055   5.493   0.391 -1.3245  1.7837  0.6398
 1437TIP3    H225727   0.975   5.587   0.304  0.7857  1.3200 -1.9015
 1438TIP3   OH225728   0.565   5.836   4.782  0.0965  0.7316  0.3930
 1438TIP3    H125729   0.546   5.929   4.792 -2.1630  0.2858  0.8167
 1438TIP3    H225730   0.501   5.792   4.838  2.6844 -1.0309  2.1795
 1439TIP3   OH225731   3.174   1.500  12.245 -0.1024  0.8925 -0.6572
 1439TIP3    H125732   3.100   1.517  12.303 -0.6016 -1.3108 -0.5489
 1439TIP3    H225733   3.251   1.509  12.301 -0.4868  0.2655 -0.0064
 1440TIP3   OH225734   6.136   2.382   5.311  0.1480 -1.0041 -0.4903
 1440TIP3    H125735   6.175   2.296   5.299  0.4877 -0.8804 -0.3017
 1440TIP3    H225736   6.097   2.379   5.398 -0.9775 -1.3934 -0.9892
 1441TIP3   OH225737   0.761   3.375  16.485 -0.9411 -0.1446 -0.0775
 1441TIP3    H125738   0.770   3.360  16.579 -3.8186 -0.4426  0.2595
 1441TIP3    H225739   0.683   3.324  16.460  0.7384 -1.5597 -3.0238
 1442TIP3   OH225740   5.184   2.761   0.389  0.0270 -0.3111 -0.2307
 1442TIP3    H125741   5.261   2.818   0.395  0.1107 -0.4624  0.1492
 1442TIP3    H225742   5.217   2.680   0.350 -0.1694  0.0314 -1.1511
 1443TIP3   OH225743   5.687   3.890   6.059 -0.2633  0.3280 -0.1400
 1443TIP3    H125744   5.623   3.854   5.997 -2.4721 -0.1649  2.2106
 1443TIP3    H225745   5.654   3.978   6.079  0.3546  0.4531  0.3537
 1444TIP3   OH225746   3.410   2.458  11.483 -0.3170  0.3882  0.5185
 1444TIP3    H125747   3.342   2.524  11.495  0.2157  1.4230 -1.7199
 1444TIP3    H225748   3.413   2.444  11.389  0.2112 -2.2241  0.8522
 1445TIP3   OH225749   1.326   3.742  16.408 -0.1853 -0.2711 -0.1326
 1445TIP3    H125750   1.286   3.655  16.406 -2.2641  0.6018  0.3810
 1445TIP3    H225751   1.362   3.754  16.321 -0.7376 -1.2814 -0.5173
 1446TIP3   OH225752   3.857   0.170  16.524  0.3035 -0.2730  0.4684
 1446TIP3    H125753   3.817   0.127  16.448 -0.7715 -0.9266  1.3825
 1446TIP3    H225754   3.906   0.100  16.568  1.3836  0.2252  0.1126
 1447TIP3   OH225755   1.408   6.205  13.926 -0.1467 -0.4880 -0.1111
 1447TIP3    H125756   1.464   6.131  13.950  2.2204  1.3660  0.4692
 1447TIP3    H225757   1.363   6.176  13.847  1.3903 -2.2419 -0.4209
 1448TIP3   OH225758   0.066   0.297   2.366 -0.1407  0.3503  0.0405
 1448TIP3    H125759   0.017   0.253   2.437  0.1056  1.4385  0.9085
 1448TIP3    H225760   0.000   0.314   2.299 -0.4246 -0.5166  0.0883
 1449TIP3   OH225761   5.785   5.342  13.015  0.1595 -0.5489 -0.3189
 1449TIP3    H125762   5.839   5.393  13.075 -0.7997  0.9701 -0.6891
 1449TIP3    H225763   5.833   5.260  13.003  1.5219  0.0681  0.6739
 1450TIP3   OH225764   1.176   3.579   2.195 -0.1445  0.0494  0.4534
 1450TIP3    H125765   1.264   3.598   2.161 -0.3489 -0.3044 -0.2990
 1450TIP3    H225766   1.157   3.491   2.163 -0.4676 -0.1837  1.2662
 1451TIP3   OH225767   4.991   4.897  15.348 -0.3726  0.0510  1.5297
 1451TIP3    H125768   5.003   4.843  15.270  0.3463  1.8553  0.3447
 1451TIP3    H225769   4.905   4.937  15.337 -0.2425  0.3606  1.6415
 1452TIP3   OH225770   1.074   1.341   2.358  0.1263 -0.2474 -0.2243
 1452TIP3    H125771   1.093   1.431   2.385 -2.9115  0.3594  0.3032
 1452TIP3    H225772   1.084   1.289   2.438  0.8727 -0.2163 -0.2907
 1453TIP3   OH225773   5.197   3.863   2.787 -0.1036  0.1909  0.4398
 1453TIP3    H125774   5.168   3.946   2.826  0.4347  2.1541 -2.9402
 1453TIP3    H225775   5.292   3.874   2.777 -0.3222  0.2385 -2.1494
 1454TIP3   OH225776   4.300   3.912  15.493  0.1265  0.2054 -0.4721
 1454TIP3    H125777   4.375   3.866  15.531 -0.5767 -1.1795 -0.6853
 1454TIP3    H225778   4.270   3.970  15.562  0.7967  0.0452 -0.0348
 1455TIP3   OH225779   2.667   6.005   3.821  0.5437  0.4431  0.4328
 1455TIP3    H125780   2.573   6.001   3.802  0.5696  0.9188  0.1944
 1455TIP3    H225781   2.678   5.950   3.899  0.2355 -0.4830 -0.1491
 1456TIP3   OH225782   3.734   1.906  16.505 -0.0644  0.3426  0.3160
 1456TIP3    H125783   3.659   1.851  16.484  1.2218 -1.3217 -0.0923
 1456TIP3    H225784   3.736   1.908  16.600  0.3079 -0.9615  0.3478
 1457TIP3   OH225785   3.500   1.625   2.422 -0.5857 -0.6011 -0.4200
 1457TIP3    H125786   3.457   1.707   2.445 -1.4616 -1.0079 -0.5365
 1457TIP3    H225787   3.482   1.567   2.497 -0.6614 -0.9232 -0.6838
 1458TIP3   OH225788   4.214   3.594   3.685  0.3349 -0.3117 -0.0431
 1458TIP3    H125789   4.255   3.645   3.615 -1.9168 -1.7039 -2.5976
 1458TIP3    H225790   4.165   3.658   3.737 -0.7435  0.4642 -1.9115
 1459TIP3   OH225791   3.960   4.494   3.986  0.4402 -0.4491 -0.3440
 1459TIP3    H125792   3.975   4.531   3.898 -1.4587  1.8217  0.1937
 1459TIP3    H225793   3.865   4.484   3.992  0.2245  2.0728  2.3616
 1460TIP3   OH225794   3.651   2.440   3.508  0.0370  0.3569  0.1112
 1460TIP3    H125795   3.735   2.398   3.491 -0.6043 -0.8139 -0.2777
 1460TIP3    H225796   3.592   2.368   3.528 -0.9753  1.1234 -0.0534
 1461TIP3   OH225797   0.910   2.269   1.907  0.1947 -0.0648 -0.9878
 1461TIP3    H125798   0.827   2.315   1.897 -0.5941 -0.9149  0.9685
 1461TIP3    H225799   0.975   2.338   1.921 -0.7087  0.5487  0.4316
 1462TIP3   OH225800   6.179   3.077   3.698  0.5002  0.0180 -0.7005
 1462TIP3    H125801   6.105   3.078   3.637  0.2642 -0.7516 -0.4443
 1462TIP3    H225802   6.186   2.985   3.725 -1.2081  0.7222  2.6093
 1463TIP3   OH225803   4.160   3.850   2.383  0.0473  0.3075  0.4714
 1463TIP3    H125804   4.125   3.849   2.294 -0.5074  1.9590  0.6425
 1463TIP3    H225805   4.134   3.765   2.420 -0.0039 -0.2596 -0.8044
 1464TIP3   OH225806   0.492   5.222  16.939  0.0028 -0.4770  0.4214
 1464TIP3    H125807   0.447   5.156  16.886  0.0531  1.0471 -1.6376
 1464TIP3    H225808   0.452   5.305  16.913  1.1122  0.4983  1.6877
 1465TIP3   OH225809   3.413   4.615   1.359 -0.3647  0.1466  0.3016
 1465TIP3    H125810   3.451   4.554   1.422 -0.8879  0.2376  0.7208
 1465TIP3    H225811   3.450   4.700   1.383 -1.2463  0.3329  1.0841
 1466TIP3   OH225812   5.988   2.869  14.151 -0.3657 -0.0491  0.8568
 1466TIP3    H125813   6.018   2.792  14.198 -0.4026 -0.2637  0.5352
 1466TIP3    H225814   5.921   2.835  14.091 -0.9118  0.3461  1.2381
 1467TIP3   OH225815   4.279   4.970  12.583 -0.4368 -0.0856 -0.3845
 1467TIP3    H125816   4.361   4.943  12.625 -0.6758 -0.3224 -0.0605
 1467TIP3    H225817   4.213   4.962  12.652 -0.6312  0.6975 -0.4705
 1468TIP3   OH225818   0.105   3.469   4.337  0.1795 -0.5806  0.4328
 1468TIP3    H125819   0.037   3.485   4.272  1.6775 -0.0997 -1.0874
 1468TIP3    H225820   0.168   3.413   4.292  1.7476  0.5796  1.0859
 1469TIP3   OH225821   2.706   1.304  11.233 -0.4152  0.3328  0.1778
 1469TIP3    H125822   2.656   1.328  11.155  1.6055 -0.8782 -1.5660
 1469TIP3    H225823   2.741   1.387  11.265 -0.7561  0.7721 -0.5625
 1470TIP3   OH225824   5.060   4.892   0.146 -0.3797  0.2716  0.2347
 1470TIP3    H125825   5.101   4.829   0.087  0.0452  0.2512  0.5530
 1470TIP3    H225826   5.118   4.968   0.144 -1.3489  1.0218 -0.8482
 1471TIP3   OH225827   6.141   1.269  14.599 -0.4386  0.2576  0.3721
 1471TIP3    H125828   6.179   1.191  14.642 -1.4482 -0.2202  0.4226
 1471TIP3    H225829   6.132   1.333  14.670  1.4755  0.8690  0.1160
 1472TIP3   OH225830   1.178   2.647   6.032 -0.0131  0.2220  0.0779
 1472TIP3    H125831   1.132   2.684   5.957  0.2958 -0.8512 -0.6587
 1472TIP3    H225832   1.216   2.566   5.999  2.0514  0.8481  0.7752
 1473TIP3   OH225833   1.643   3.705   0.990  0.0711  0.1144  0.5284
 1473TIP3    H125834   1.669   3.724   0.900 -1.9786 -1.6606 -0.5547
 1473TIP3    H225835   1.706   3.639   1.020  1.2762  1.3345  0.7448
 1474TIP3   OH225836   5.782   1.644  16.932 -0.6825  0.7456 -0.5439
 1474TIP3    H125837   5.851   1.581  16.913  0.2582  1.5059  0.2432
 1474TIP3    H225838   5.817   1.728  16.902 -0.2749  1.5207  1.9303
 1475TIP3   OH225839   4.924   6.391   6.393  0.1437  0.1781  0.2240
 1475TIP3    H125840   4.992   6.420   6.454  0.4860 -0.3722  0.1154
 1475TIP3    H225841   4.842   6.420   6.433  0.3512 -0.2755  1.0176
 1476TIP3   OH225842   4.600   0.485  11.127  0.4902 -0.1071 -0.3152
 1476TIP3    H125843   4.680   0.508  11.081 -0.0808 -0.3002 -1.4387
 1476TIP3    H225844   4.535   0.473  11.058 -0.0013 -2.0403  0.4036
 1477TIP3   OH225845   4.480   5.311  15.584 -0.0311  0.6414 -0.1594
 1477TIP3    H125846   4.409   5.348  15.637  0.3725  1.4302 -0.1649
 1477TIP3    H225847   4.440   5.296  15.498 -0.0190  1.7390 -0.3670
 1478TIP3   OH225848   0.896   5.696  13.758  0.3668  0.3669  0.2643
 1478TIP3    H125849   0.923   5.712  13.667  0.8687  3.7323  0.8851
 1478TIP3    H225850   0.818   5.750  13.770 -2.0556 -2.9119  0.9016
 1479TIP3   OH225851   6.506   1.213  15.165 -0.6225 -0.1382 -0.0441
 1479TIP3    H125852   6.534   1.133  15.119 -0.1242 -1.2400  2.0071
 1479TIP3    H225853   6.480   1.182  15.252 -0.4536  1.9335  0.8068
 1480TIP3   OH225854   4.303   1.685  16.115  0.2783 -0.5541 -0.0081
 1480TIP3    H125855   4.363   1.611  16.101  1.0320  0.1092 -0.3686
 1480TIP3    H225856   4.339   1.731  16.190 -0.0699 -0.4264  0.0822
 1481TIP3   OH225857   6.108   1.552   2.263  0.2720  0.3263  0.1047
 1481TIP3    H125858   6.063   1.635   2.245 -1.5368 -0.8862 -1.3257
 1481TIP3    H225859   6.201   1.572   2.249  0.0011  2.3363  0.8045
 1482TIP3   OH225860   2.313   5.863  14.631  0.1327 -0.4646 -0.3751
 1482TIP3    H125861   2.228   5.848  14.590  0.7094 -0.2672 -1.6856
 1482TIP3    H225862   2.353   5.932  14.578  1.1214 -0.5617  0.2234
 1483TIP3   OH225863   3.841   5.653   0.434  0.3502  0.2920  0.1845
 1483TIP3    H125864   3.754   5.638   0.397  0.0809 -2.0616  1.5303
 1483TIP3    H225865   3.900   5.601   0.379  0.5116 -0.1367  0.7489
 1484TIP3   OH225866   4.683   4.522  13.585 -0.0226  0.3323 -0.1693
 1484TIP3    H125867   4.590   4.519  13.561 -0.1183  1.7042 -0.0466
 1484TIP3    H225868   4.716   4.603  13.545  0.5117  1.1453  1.7727
 1485TIP3   OH225869   5.037   2.819   4.132 -0.0548 -0.2658 -0.1153
 1485TIP3    H125870   5.069   2.867   4.055  1.1817  0.8776  1.0647
 1485TIP3    H225871   5.115   2.802   4.184 -0.9109 -0.7286  1.0552
 1486TIP3   OH225872   4.246   4.462   2.688  0.0013  0.2041  0.4505
 1486TIP3    H125873   4.260   4.383   2.636  0.2141  0.5474 -0.0227
 1486TIP3    H225874   4.184   4.436   2.755 -1.3832  0.1070 -0.8141
 1487TIP3   OH225875   0.504   5.999   3.453 -0.1070 -0.5373  0.5175
 1487TIP3    H125876   0.528   6.048   3.374 -1.4645 -0.9537 -0.1883
 1487TIP3    H225877   0.499   6.064   3.522 -0.3503  0.0719 -0.0682
 1488TIP3   OH225878   3.287   2.453   5.742 -0.3415 -0.0797 -0.6954
 1488TIP3    H125879   3.309   2.544   5.723 -0.4001 -0.0204 -0.4844
 1488TIP3    H225880   3.197   2.456   5.774 -0.3161 -0.2022 -0.6128
 1489TIP3   OH225881   6.538   4.526   0.005  0.3963  0.4560  0.0846
 1489TIP3    H125882   6.624   4.515   0.045  0.4447  0.6046  0.0210
 1489TIP3    H225883   6.531   4.620  -0.011 -0.1862  0.5719  0.9901
 1490TIP3   OH225884   3.597   6.359   2.085  0.1030  0.7852 -0.2762
 1490TIP3    H125885   3.551   6.391   2.162  0.3873  0.8994 -0.1550
 1490TIP3    H225886   3.599   6.434   2.025  1.8775  1.4078  0.5013
 1491TIP3   OH225887   3.830   4.700   2.722 -0.1568  0.1639  0.0793
 1491TIP3    H125888   3.920   4.729   2.736 -0.6632  1.4256  0.9729
 1491TIP3    H225889   3.800   4.752   2.647  0.1119 -0.8940 -0.7834
 1492TIP3   OH225890   6.695   1.559  14.609 -0.2364  0.3770 -0.1553
 1492TIP3    H125891   6.767   1.498  14.589 -1.2469 -0.7798 -0.3565
 1492TIP3    H225892   6.719   1.639  14.562  1.1476  0.1786  0.1514
 1493TIP3   OH225893   5.706   3.354  12.930 -0.2013 -0.0845 -0.9520
 1493TIP3    H125894   5.682   3.264  12.949 -0.2406  0.0621 -0.2858
 1493TIP3    H225895   5.677   3.404  13.007  0.5565  0.3714 -0.9502
 1494TIP3   OH225896   4.351   0.429  12.047  1.1007 -0.1121 -0.0361
 1494TIP3    H125897   4.399   0.500  12.090 -0.3617  1.1866 -0.4544
 1494TIP3    H225898   4.338   0.460  11.957  0.5585 -0.9829 -0.2724
 1495TIP3   OH225899   2.753   6.421   6.137  0.1681  0.7020  0.2245
 1495TIP3    H125900   2.669   6.462   6.157  0.0578  0.6399 -0.1219
 1495TIP3    H225901   2.808   6.494   6.108  0.3910  0.8279  0.9327
 1496TIP3   OH225902   4.884   1.308   4.433  0.0962  0.0866  0.0233
 1496TIP3    H125903   4.930   1.386   4.463  0.7751 -0.7532  1.2922
 1496TIP3    H225904   4.860   1.262   4.513  2.6370 -2.6458 -0.5909
 1497TIP3   OH225905   0.309   4.262  10.598 -0.9350 -0.3736  0.5226
 1497TIP3    H125906   0.397   4.226  10.587 -1.1280 -1.2011  1.5081
 1497TIP3    H225907   0.260   4.192  10.641 -1.8998  0.3212  0.5861
 1498TIP3   OH225908   5.902   3.947  17.121  0.0749  0.2598  0.1852
 1498TIP3    H125909   5.960   3.943  17.198 -0.4078 -1.3508  0.5098
 1498TIP3    H225910   5.942   4.013  17.064  0.8961  0.9047  1.4509
 1499TIP3   OH225911   6.309   4.956  12.582  0.0525  0.1921 -0.0774
 1499TIP3    H125912   6.398   4.986  12.599  0.4267 -0.1320 -1.3509
 1499TIP3    H225913   6.273   5.020  12.521 -0.4048  0.0351  0.0190
 1500TIP3   OH225914   2.329   3.385  12.368  0.4841  0.0753 -0.6964
 1500TIP3    H125915   2.382   3.462  12.351 -1.5494  1.5257 -0.8321
 1500TIP3    H225916   2.254   3.393  12.308  0.1531 -1.9666 -0.6483
 1501TIP3   OH225917   0.551   5.395  14.801 -0.2821 -0.3152  0.3038
 1501TIP3    H125918   0.469   5.389  14.850 -0.6229 -0.7533 -0.3077
 1501TIP3    H225919   0.588   5.479  14.826 -1.6395  0.5621 -0.5238
 1502TIP3   OH225920   0.346   4.888  10.882 -0.9680  0.5301  0.3364
 1502TIP3    H125921   0.348   4.969  10.933  0.6182 -0.2252  1.6037
 1502TIP3    H225922   0.425   4.841  10.910 -0.7588 -0.5576 -1.8573
 1503TIP3   OH225923   4.480   6.797   5.804  0.1297  0.3681 -0.6139
 1503TIP3    H125924   4.570   6.829   5.815 -0.2820  1.3050  0.2027
 1503TIP3    H225925   4.490   6.703   5.786  1.2642  0.4266 -0.3780
 1504TIP3   OH225926   4.124   1.972   5.795  0.4045 -0.6829  0.1963
 1504TIP3    H125927   4.169   2.008   5.718  1.5599 -0.8090  0.7807
 1504TIP3    H225928   4.058   2.038   5.817 -0.0047 -0.6800 -0.9355
 1505TIP3   OH225929   6.331   3.162  15.202  0.0153 -0.5145  0.1067
 1505TIP3    H125930   6.237   3.164  15.185 -0.4543  1.4966  2.3214
 1505TIP3    H225931   6.350   3.071  15.223 -1.9253 -0.6363  1.6784
 1506TIP3   OH225932   2.975   0.789  10.299 -0.2367  0.1072 -0.4656
 1506TIP3    H125933   2.898   0.735  10.281 -0.4738  0.0399  0.7031
 1506TIP3    H225934   3.049   0.730  10.284 -0.5016 -0.7216  1.2433
 1507TIP3   OH225935   5.947   0.096  15.046 -0.2442  0.5733 -0.1719
 1507TIP3    H125936   6.018   0.077  14.986  0.0903  1.8560 -0.2145
 1507TIP3    H225937   5.889   0.155  14.997  0.2854  2.0447  0.8758
 1508TIP3   OH225938   2.259   1.918   1.409  0.0315  0.0072  0.2982
 1508TIP3    H125939   2.201   1.971   1.464 -0.9245 -1.6607  0.9834
 1508TIP3    H225940   2.223   1.927   1.320 -0.5957 -0.1251  0.5366
 1509TIP3   OH225941   5.699   0.306  12.082 -0.2966 -0.4767  0.3406
 1509TIP3    H125942   5.673   0.398  12.070 -1.4790 -0.9923 -1.3999
 1509TIP3    H225943   5.666   0.283  12.169 -1.6340  0.2320  0.0434
 1510TIP3   OH225944   2.817   1.932   2.099 -0.1520 -0.5872 -0.3453
 1510TIP3    H125945   2.864   1.967   2.175  1.8141 -1.0465 -1.2815
 1510TIP3    H225946   2.729   1.914   2.131  0.7649 -1.2679  1.9659
 1511TIP3   OH225947   2.811   1.284  15.920 -0.0803 -0.1229  0.0624
 1511TIP3    H125948   2.821   1.260  16.012  1.7689  1.3863  0.3077
 1511TIP3    H225949   2.738   1.347  15.920 -0.4126 -0.4999  0.4106
 1512TIP3   OH225950   0.285   3.506   4.975 -0.1599 -0.5799 -0.1511
 1512TIP3    H125951   0.362   3.558   4.996  2.3283 -3.2601 -1.7523
 1512TIP3    H225952   0.315   3.445   4.907 -3.9233 -1.3396 -1.4025
 1513TIP3   OH225953   3.676   5.621   5.105  0.5403  0.2099  0.1778
 1513TIP3    H125954   3.656   5.685   5.037  1.2522 -0.9143 -1.1242
 1513TIP3    H225955   3.771   5.627   5.116  0.5505 -0.3102  0.3665
 1514TIP3   OH225956   2.646   4.067   0.123  0.3520  0.4905 -0.4663
 1514TIP3    H125957   2.609   4.154   0.107  0.3676  0.9154  1.5013
 1514TIP3    H225958   2.661   4.065   0.218  0.0781 -1.7746 -0.4233
 1515TIP3   OH225959   6.156   1.771   2.020  0.5205  0.4256 -0.5865
 1515TIP3    H125960   6.157   1.824   1.941  2.1308  2.2932  0.6042
 1515TIP3    H225961   6.247   1.764   2.047 -0.0738  1.1610  1.9124
 1516TIP3   OH225962   1.977   2.411   4.295 -0.6935 -0.1839  0.1777
 1516TIP3    H125963   1.984   2.401   4.390 -2.7337 -0.9391  0.3118
 1516TIP3    H225964   2.025   2.491   4.275  0.0334 -0.1752  1.7839
 1517TIP3   OH225965   5.400   5.123  13.495 -0.7493 -0.4595  0.3053
 1517TIP3    H125966   5.431   5.036  13.519 -0.0658  0.3356  2.5261
 1517TIP3    H225967   5.415   5.129  13.400 -0.1760 -2.4788  0.2417
 1518TIP3   OH225968   5.866   5.623   3.099 -0.0908 -0.2541 -0.1941
 1518TIP3    H125969   5.940   5.683   3.095 -1.1124  1.1714  1.1365
 1518TIP3    H225970   5.811   5.647   3.024  1.6745 -2.7192 -2.4962
 1519TIP3   OH225971   3.602   2.948   0.942 -0.4641 -0.1437 -0.1364
 1519TIP3    H125972   3.594   2.885   0.871  0.9289 -1.2954  0.6699
 1519TIP3    H225973   3.679   2.999   0.920 -0.2088 -0.2999  0.3785
 1520TIP3   OH225974   2.092   4.140  15.535  0.0655  0.2612  0.1342
 1520TIP3    H125975   2.146   4.162  15.611 -0.3335 -1.0677  0.8335
 1520TIP3    H225976   2.126   4.055  15.505 -1.3079 -0.3637  0.2962
 1521TIP3   OH225977   1.687   4.293   3.440  0.3063 -0.1989 -0.0657
 1521TIP3    H125978   1.647   4.380   3.445 -1.7430 -1.1236  0.5521
 1521TIP3    H225979   1.760   4.296   3.503 -1.2795  0.3445  1.8421
 1522TIP3   OH225980   0.684   6.041  13.487  0.1571  0.2632  0.1469
 1522TIP3    H125981   0.669   6.135  13.495  0.7854  0.2565  1.9283
 1522TIP3    H225982   0.758   6.023  13.545 -0.0546 -1.3646 -0.0240
 1523TIP3   OH225983   5.118   4.371  17.155 -0.0434 -0.1502  0.3258
 1523TIP3    H125984   5.190   4.352  17.094 -1.2702 -2.1348 -0.6033
 1523TIP3    H225985   5.065   4.436  17.109  0.8807  1.0167  0.8424
 1524TIP3   OH225986   2.385   1.804  13.408 -0.2949  0.0010  0.3234
 1524TIP3    H125987   2.350   1.858  13.479 -1.4545 -1.5695  0.9896
 1524TIP3    H225988   2.347   1.842  13.329 -1.7420 -0.3124  0.8505
 1525TIP3   OH225989   4.296   1.781   2.374 -0.5033  0.2813 -0.1726
 1525TIP3    H125990   4.265   1.832   2.299 -1.5380 -0.8647 -0.5779
 1525TIP3    H225991   4.350   1.712   2.335  0.4747  0.7494  0.3190
 1526TIP3   OH225992   5.790   2.911   2.869  0.3613  0.0077 -0.7779
 1526TIP3    H125993   5.798   2.937   2.777  0.9698  2.0312 -0.2103
 1526TIP3    H225994   5.859   2.961   2.913 -0.9779  0.3476  1.0196
 1527TIP3   OH225995   4.926   6.811   1.010  0.1891 -0.4425 -0.2645
 1527TIP3    H125996   4.871   6.878   0.969  0.6544  0.8891  1.2047
 1527TIP3    H225997   4.999   6.798   0.948  0.6980  1.2715 -0.0608
 1528TIP3   OH225998   4.583   2.804   3.849 -0.0231  0.2393  0.4676
 1528TIP3    H125999   4.643   2.730   3.861  0.3505  0.4734  0.0767
 1528TIP3    H226000   4.626   2.858   3.783  0.7172  1.8704  2.2122
 1529TIP3   OH226001   1.759   3.779  11.526  0.1660 -0.1366  0.0295
 1529TIP3    H126002   1.663   3.773  11.531 -0.0428 -0.3542 -2.5838
 1529TIP3    H226003   1.788   3.688  11.516  0.6107 -0.0495  0.5201
 1530TIP3   OH226004   1.112   5.680   4.517  0.1591 -0.1020 -0.1711
 1530TIP3    H126005   1.074   5.593   4.528  1.5185 -0.7228 -0.1968
 1530TIP3    H226006   1.199   5.674   4.556  0.1522  1.3587  0.1390
 1531TIP3   OH226007   2.353   1.129   0.329 -0.0955 -0.1571 -0.3359
 1531TIP3    H126008   2.264   1.095   0.325 -0.3628  0.5029  0.0102
 1531TIP3    H226009   2.361   1.168   0.415  0.4492  0.0149 -0.4577
 1532TIP3   OH226010   2.849   3.481   2.372  0.6181  0.4680 -0.0824
 1532TIP3    H126011   2.915   3.462   2.438  0.6483  0.1236 -0.2115
 1532TIP3    H226012   2.858   3.575   2.355 -2.2288  1.6708  3.5418
 1533TIP3   OH226013   2.888   1.540   0.126  0.3313 -0.1639 -0.3164
 1533TIP3    H126014   2.953   1.572   0.188  1.2457  0.5392 -1.5990
 1533TIP3    H226015   2.927   1.461   0.089 -0.0614 -0.3906 -0.2567
 1534TIP3   OH226016   4.267   5.099  12.135 -0.2436 -0.2274  0.2803
 1534TIP3    H126017   4.322   5.023  12.118 -0.0130 -0.3808  1.5555
 1534TIP3    H226018   4.235   5.086  12.225  0.1791  1.3950  0.7095
 1535TIP3   OH226019   6.751   5.347   0.364  0.6305  0.2388  0.5343
 1535TIP3    H126020   6.741   5.386   0.277 -3.7006 -0.3456  0.5516
 1535TIP3    H226021   6.705   5.406   0.423  0.1023 -1.3215  1.7514
 1536TIP3   OH226022   2.321   1.536  13.817 -0.0335  0.4953 -0.3516
 1536TIP3    H126023   2.246   1.543  13.876  1.0910  2.2789  0.9711
 1536TIP3    H226024   2.292   1.578  13.736 -1.2443 -1.0526 -0.7688
 1537TIP3   OH226025   0.961   5.905   0.993  0.3771 -0.5386  0.1006
 1537TIP3    H126026   0.871   5.936   0.984  0.6377  0.1894 -0.0790
 1537TIP3    H226027   1.007   5.976   1.038  1.3372  0.0271 -1.6500
 1538TIP3   OH226028   3.944   1.157  12.072 -0.1421 -0.0023 -0.6751
 1538TIP3    H126029   4.000   1.082  12.089 -1.3932 -0.5008  1.5764
 1538TIP3    H226030   3.985   1.230  12.119 -0.0459  0.2302 -1.1137
 1539TIP3   OH226031   0.475   6.230  15.287  0.4322  0.5202 -0.0937
 1539TIP3    H126032   0.530   6.309  15.292  1.4487 -0.1734  4.6233
 1539TIP3    H226033   0.385   6.264  15.289  0.7456  1.5528 -1.6936
 1540TIP3   OH226034   1.160   6.588  16.156  0.1028  0.0293 -0.7028
 1540TIP3    H126035   1.101   6.536  16.211 -0.4301  0.0727 -1.2157
 1540TIP3    H226036   1.145   6.555  16.067  2.2178 -1.2352 -0.6486
 1541TIP3   OH226037   0.029   1.608   4.995  0.1779  0.3130  0.6567
 1541TIP3    H126038  -0.016   1.528   4.967  1.2216 -0.7230  1.7947
 1541TIP3    H226039   0.119   1.596   4.964 -0.0396  1.9089 -0.7484
 1542TIP3   OH226040   0.971   6.125   0.620  0.1569 -0.3170  0.2347
 1542TIP3    H126041   1.048   6.099   0.569  0.3132 -0.5126  0.5715
 1542TIP3    H226042   0.897   6.098   0.565  0.3090 -1.6244  0.6385
 1543TIP3   OH226043   5.693   5.719   3.474 -0.7394 -0.5979 -0.5587
 1543TIP3    H126044   5.637   5.777   3.423  0.3821  0.7988 -0.2946
 1543TIP3    H226045   5.661   5.728   3.564 -1.0036 -0.9388 -0.6175
 1544TIP3   OH226046   6.332   1.812  14.386 -0.4654 -0.5570 -0.2795
 1544TIP3    H126047   6.381   1.732  14.406 -0.7064 -0.9053 -1.0107
 1544TIP3    H226048   6.376   1.849  14.309  1.7236  1.8630  1.9658
 1545TIP3   OH226049   1.700   0.705  15.350 -0.6228 -0.4116 -0.2473
 1545TIP3    H126050   1.745   0.660  15.423  1.9478  0.7612 -0.9862
 1545TIP3    H226051   1.676   0.634  15.290 -2.8086 -1.4074  1.6408
 1546TIP3   OH226052   5.121   5.379   4.095  0.3416  0.8230 -0.5987
 1546TIP3    H126053   5.065   5.425   4.033  0.3811  0.7881 -0.6597
 1546TIP3    H226054   5.080   5.394   4.180  0.8406  1.7257 -0.5044
 1547TIP3   OH226055   6.218   3.827  11.580 -0.5329 -0.2173  0.1332
 1547TIP3    H126056   6.151   3.821  11.513 -0.1808 -0.9905 -0.1622
 1547TIP3    H226057   6.220   3.919  11.604 -1.3061 -0.0954 -0.2545
 1548TIP3   OH226058   4.785   4.943  13.769  0.3175  0.1496  0.1721
 1548TIP3    H126059   4.727   4.868  13.754 -2.2189  1.3553  2.9222
 1548TIP3    H226060   4.737   5.018  13.734  1.1240  0.9605  0.7638
 1549TIP3   OH226061   3.701   4.552  13.384  0.5125  0.4496 -0.1278
 1549TIP3    H126062   3.720   4.640  13.414  0.0530  0.4526  0.1504
 1549TIP3    H226063   3.712   4.497  13.461 -2.4930  0.6808  0.5912
 1550TIP3   OH226064   1.793   2.148   4.016  0.3137  0.4123  0.8756
 1550TIP3    H126065   1.763   2.233   3.985 -0.0990  0.9878  2.7392
 1550TIP3    H226066   1.865   2.125   3.957 -1.0643  0.9003 -1.1345
 1551TIP3   OH226067   0.650   1.707   5.588 -0.3339  0.0788  0.5821
 1551TIP3    H126068   0.623   1.622   5.554  1.6825 -1.2392  2.0186
 1551TIP3    H226069   0.746   1.703   5.590 -0.2417  1.5164  2.7564
 1552TIP3   OH226070   6.714   5.078   0.405 -0.1009  0.2778 -0.2360
 1552TIP3    H126071   6.747   5.132   0.478 -2.9382  3.0346 -0.7999
 1552TIP3    H226072   6.692   5.141   0.337 -1.1183 -1.9022 -2.0340
 1553TIP3   OH226073   4.492   1.000  17.121 -0.1010  0.1252  0.2018
 1553TIP3    H126074   4.532   0.999  17.208  0.4699  1.0041 -0.0291
 1553TIP3    H226075   4.443   1.082  17.118 -0.7319 -0.2538 -0.0474
 1554TIP3   OH226076   6.175   3.850   3.730  0.4003  0.6795  0.7172
 1554TIP3    H126077   6.146   3.895   3.651  0.8351  0.2922  0.3329
 1554TIP3    H226078   6.237   3.911   3.770 -1.4988  1.8836  1.9876
 1555TIP3   OH226079   1.643   3.479  14.709 -0.2053  0.1981  0.0338
 1555TIP3    H126080   1.689   3.505  14.789  0.3773 -1.5186  0.3131
 1555TIP3    H226081   1.648   3.556  14.652  1.2805  0.7355  0.8329
 1556TIP3   OH226082   5.168   0.655   0.276  0.0652  0.0848  0.2067
 1556TIP3    H126083   5.073   0.648   0.269 -0.0400 -0.6100  1.9000
 1556TIP3    H226084   5.184   0.747   0.295 -0.4008 -0.0537  1.3529
 1557TIP3   OH226085   1.253   4.771  17.070  0.1496 -0.1926 -0.6018
 1557TIP3    H126086   1.281   4.703  17.009 -0.3514 -1.0148  0.0581
 1557TIP3    H226087   1.182   4.816  17.025  0.5131 -0.0679 -1.0603
 1558TIP3   OH226088   4.965   5.472  16.294  0.9698 -0.8091 -0.2676
 1558TIP3    H126089   4.992   5.394  16.245  1.5187 -2.3460  2.3090
 1558TIP3    H226090   5.044   5.526  16.297  1.0501 -0.8948 -0.6786
 1559TIP3   OH226091   2.779   3.892  10.230 -0.0952 -0.2684 -0.0556
 1559TIP3    H126092   2.851   3.863  10.285  0.3058  0.2232 -0.3144
 1559TIP3    H226093   2.736   3.812  10.201  0.4619 -0.5693 -0.0518
 1560TIP3   OH226094   5.502   2.004   2.629  0.3987 -0.1836  0.0637
 1560TIP3    H126095   5.476   2.096   2.619  0.5239 -0.1562 -0.0092
 1560TIP3    H226096   5.589   2.000   2.590 -0.0621 -0.5743 -0.9673
 1561TIP3   OH226097   3.644   3.230  13.922  0.0160 -0.6329  0.0851
 1561TIP3    H126098   3.583   3.189  13.983 -0.1623  0.1216  0.4251
 1561TIP3    H226099   3.726   3.236  13.972 -0.2325  0.3253  0.3887
 1562TIP3   OH226100   6.107   1.207  16.634 -0.8182  0.3367 -0.3089
 1562TIP3    H126101   6.100   1.301  16.623  1.5842  0.6832  0.6976
 1562TIP3    H226102   6.198   1.191  16.658 -0.9952 -2.3100 -1.0233
 1563TIP3   OH226103   1.996   3.849  14.165  0.2217  0.0139 -0.4342
 1563TIP3    H126104   2.069   3.843  14.227  0.2483  0.5055 -0.4108
 1563TIP3    H226105   2.031   3.900  14.092  0.0158 -0.0711 -0.5918
 1564TIP3   OH226106   0.497   6.300   4.434 -0.3665  0.6585 -0.3206
 1564TIP3    H126107   0.567   6.299   4.499  1.7285  0.6851 -2.4528
 1564TIP3    H226108   0.478   6.392   4.420  1.4985  0.8602 -1.9905
 1565TIP3   OH226109   2.726   3.949  13.340  0.5002  0.2454  0.2434
 1565TIP3    H126110   2.723   3.936  13.245  0.9015  3.2281 -0.2554
 1565TIP3    H226111   2.666   3.882  13.374 -1.2723  0.3674 -2.2885
 1566TIP3   OH226112   2.179   0.259  16.188 -0.5265  0.4342 -0.0989
 1566TIP3    H126113   2.116   0.226  16.252  1.6892 -2.3164  0.8762
 1566TIP3    H226114   2.203   0.182  16.136  2.5242  1.1074  0.1181
 1567TIP3   OH226115   6.096   5.914   5.201 -0.0647  0.0875  0.5044
 1567TIP3    H126116   6.076   5.888   5.291 -2.4744 -1.4657 -0.3654
 1567TIP3    H226117   6.151   5.844   5.167  1.4628  1.0336  0.9110
 1568TIP3   OH226118   3.204   4.851   1.613 -0.3628 -0.5438 -0.0223
 1568TIP3    H126119   3.274   4.873   1.675 -2.1773  2.5304  1.1755
 1568TIP3    H226120   3.187   4.759   1.628  3.1316 -1.3658 -0.1527
 1569TIP3   OH226121   2.893   3.667  14.367  0.1496 -0.6634 -0.3190
 1569TIP3    H126122   2.883   3.610  14.443 -0.5934 -0.2630 -0.0988
 1569TIP3    H226123   2.933   3.747  14.402  1.0393 -0.9754 -0.5965
 1570TIP3   OH226124   4.723   5.534   4.453  1.0417  0.2841 -0.5682
 1570TIP3    H126125   4.781   5.585   4.397  0.9761  1.9821  0.8373
 1570TIP3    H226126   4.778   5.508   4.527  0.3973  0.6734  0.0586
 1571TIP3   OH226127   2.308   1.375   4.195  0.0907 -0.0437  0.4379
 1571TIP3    H126128   2.347   1.433   4.129  0.4073 -0.3528  0.3474
 1571TIP3    H226129   2.218   1.364   4.166  0.0603  0.3086  0.3907
 1572TIP3   OH226130   0.902   2.305  12.348 -0.3413  0.2672 -0.3857
 1572TIP3    H126131   0.962   2.368  12.387  0.0700  1.3713 -2.6393
 1572TIP3    H226132   0.815   2.334  12.374 -0.0158 -0.5694  1.8064
 1573TIP3   OH226133   0.117   2.356   3.933  0.0716  0.7083 -0.4722
 1573TIP3    H126134   0.119   2.360   3.837  1.3948 -1.5163 -0.6210
 1573TIP3    H226135   0.209   2.365   3.958 -0.3348  2.0079  0.6868
 1574TIP3   OH226136   3.362   1.346   0.798  0.2068  0.2261  0.0647
 1574TIP3    H126137   3.282   1.297   0.814 -1.3269  3.0849  1.9989
 1574TIP3    H226138   3.334   1.424   0.751  1.7442  1.5175  1.1651
 1575TIP3   OH226139   3.686   4.538  11.945  0.1207  0.0882  0.4902
 1575TIP3    H126140   3.658   4.490  11.867  0.1498 -0.9293  1.0941
 1575TIP3    H226141   3.637   4.498  12.017  0.5963  0.5615  1.0911
 1576TIP3   OH226142   6.390   2.091  15.813  0.3102  0.3015  0.5065
 1576TIP3    H126143   6.322   2.061  15.754  0.1519  2.4652 -0.5117
 1576TIP3    H226144   6.446   2.014  15.827 -0.2347 -0.5324 -1.6115
 1577TIP3   OH226145   4.479   4.779  12.500  0.2141  0.3178  0.1616
 1577TIP3    H126146   4.463   4.696  12.454 -2.7802  1.1677 -0.5362
 1577TIP3    H226147   4.422   4.776  12.577  0.7188  1.3992  0.6049
 1578TIP3   OH226148   0.060   2.363  17.043  0.1874  0.2045 -0.9275
 1578TIP3    H126149   0.111   2.392  17.118 -2.0516  1.1332  0.3407
 1578TIP3    H226150   0.084   2.423  16.973 -0.0822  1.4754  0.0249
 1579TIP3   OH226151   3.162   3.327  11.373  0.2534 -0.1766  0.3387
 1579TIP3    H126152   3.180   3.384  11.448 -1.7106  0.2822  0.5121
 1579TIP3    H226153   3.151   3.387  11.299  1.1903 -0.5648 -0.1397
 1580TIP3   OH226154   0.098   3.101   0.747  0.2071  0.0694  0.0108
 1580TIP3    H126155   0.050   3.154   0.684  1.1086  0.9770  0.0713
 1580TIP3    H226156   0.170   3.062   0.696 -0.9223 -1.8227 -0.2381
 1581TIP3   OH226157   5.727   4.633  15.055 -0.3746 -0.0399 -0.3279
 1581TIP3    H126158   5.634   4.622  15.038 -0.8782  0.3788  1.8747
 1581TIP3    H226159   5.749   4.718  15.017 -0.7095 -0.4165 -1.4027
 1582TIP3   OH226160   1.141   3.872  10.919  0.1811  0.2746  0.1718
 1582TIP3    H126161   1.109   3.783  10.934 -1.4169  1.1376  2.4723
 1582TIP3    H226162   1.202   3.888  10.991 -0.3865  1.3734  0.4311
 1583TIP3   OH226163   1.134   2.636  14.605  0.1808  0.0115 -0.0124
 1583TIP3    H126164   1.178   2.570  14.551  1.8646 -0.0820  1.3475
 1583TIP3    H226165   1.065   2.672  14.550  0.0849 -1.9456 -1.2513
 1584TIP3   OH226166   3.777   4.765  11.829 -0.5471 -0.1928  0.0015
 1584TIP3    H126167   3.688   4.793  11.809 -0.8384 -1.6845 -0.9052
 1584TIP3    H226168   3.769   4.672  11.850  0.7558 -0.2663  0.2395
 1585TIP3   OH226169   0.767   3.292   1.968  0.3842 -0.2610  0.3107
 1585TIP3    H126170   0.721   3.370   1.998  0.6955 -0.7971  2.2698
 1585TIP3    H226171   0.702   3.245   1.916  0.1100  1.1332 -0.6640
 1586TIP3   OH226172   5.379   6.160   5.907 -0.3423  0.0182 -0.4559
 1586TIP3    H126173   5.447   6.225   5.927  1.7349 -2.5428  1.5929
 1586TIP3    H226174   5.411   6.115   5.829 -0.3036 -0.3558 -0.2288
 1587TIP3   OH226175   4.932   5.002  15.043  0.2893  0.0067 -0.2330
 1587TIP3    H126176   4.986   4.929  15.073  1.1054 -0.1821 -2.0266
 1587TIP3    H226177   4.927   4.990  14.948 -0.8899  1.3993 -0.3659
 1588TIP3   OH226178   5.083   4.528  16.536 -0.3837 -0.3277  0.3593
 1588TIP3    H126179   5.117   4.479  16.611 -0.4577  0.2715  0.7881
 1588TIP3    H226180   5.160   4.572  16.499 -0.3169 -0.7677 -0.0255
 1589TIP3   OH226181   4.545   3.725   2.358  0.3746  0.0432  0.3370
 1589TIP3    H126182   4.626   3.676   2.371 -0.1826 -1.1395 -0.5090
 1589TIP3    H226183   4.569   3.794   2.296  1.1772  0.9534  1.5868
 1590TIP3   OH226184   6.463   6.791  10.703 -0.0709  0.4847 -0.2081
 1590TIP3    H126185   6.494   6.771  10.615  1.2544 -1.1747  0.5735
 1590TIP3    H226186   6.516   6.866  10.731  1.5292 -0.6983  0.1348
 1591TIP3   OH226187   3.332   5.099  14.190 -0.7980 -0.1427  0.2739
 1591TIP3    H126188   3.288   5.163  14.135 -0.2773  1.0733  1.2103
 1591TIP3    H226189   3.406   5.069  14.138 -0.0632  1.3082  0.4270
 1592TIP3   OH226190   4.087   0.466  12.136  0.0731 -0.2330 -0.8075
 1592TIP3    H126191   4.088   0.536  12.201 -0.2611 -0.2148 -0.8221
 1592TIP3    H226192   4.180   0.447  12.120  0.1607 -0.6473  0.1130
 1593TIP3   OH226193   1.972   3.319   0.017 -0.3445 -0.2858  0.7599
 1593TIP3    H126194   1.906   3.367   0.066  0.5622 -0.1910  1.9371
 1593TIP3    H226195   2.053   3.333   0.066  0.5182 -0.5527 -0.5423
 1594TIP3   OH226196   1.143   2.943   2.356  0.4528 -0.2906  0.6495
 1594TIP3    H126197   1.123   3.032   2.386  2.1885  0.7806 -1.0769
 1594TIP3    H226198   1.081   2.927   2.285  0.6403 -0.1125  0.4412
 1595TIP3   OH226199   4.785   5.440   2.114  0.0393 -0.1337  0.0226
 1595TIP3    H126200   4.807   5.529   2.144 -1.2289 -0.0755  0.8334
 1595TIP3    H226201   4.774   5.449   2.019 -2.5217  1.1735  0.3446
 1596TIP3   OH226202   2.092   3.201   2.260  0.1629  0.2770  0.3726
 1596TIP3    H126203   2.154   3.129   2.276 -1.7441 -1.8307 -1.0535
 1596TIP3    H226204   2.007   3.166   2.286 -1.2483  0.9330 -2.8610
 1597TIP3   OH226205   5.182   0.051  14.824  0.6072  0.3171  0.1027
 1597TIP3    H126206   5.152   0.017  14.740  0.8786  0.5734 -0.0980
 1597TIP3    H226207   5.221   0.136  14.804 -2.0731  1.8489  0.9051
 1598TIP3   OH226208   6.405   2.422   3.204 -0.0203  0.0249  0.1817
 1598TIP3    H126209   6.368   2.337   3.230 -0.0677  0.0337  0.1422
 1598TIP3    H226210   6.487   2.400   3.161 -0.2691 -0.0322 -0.2723
 1599TIP3   OH226211   0.726   3.700  14.847 -0.1477  0.4473  0.3915
 1599TIP3    H126212   0.715   3.678  14.939  1.3648 -0.0725  0.4682
 1599TIP3    H226213   0.703   3.620  14.800 -1.7156  0.9541  0.2451
 1600TIP3   OH226214   6.361   4.141  13.763  0.3693 -0.4372 -0.1826
 1600TIP3    H126215   6.455   4.126  13.769  0.2362 -2.2194 -1.5901
 1600TIP3    H226216   6.349   4.231  13.793  2.4477 -0.3241  0.4690
 1601TIP3   OH226217   2.171   2.947  14.528 -0.5919 -0.2086  0.0859
 1601TIP3    H126218   2.217   2.943  14.611 -1.0495 -1.2659  0.3084
 1601TIP3    H226219   2.216   3.016  14.478  1.6843 -1.6448  0.0117
 1602TIP3   OH226220   1.644   2.335  16.828  0.1080 -0.0074  0.1187
 1602TIP3    H126221   1.634   2.430  16.833  2.1413  0.2761 -0.0812
 1602TIP3    H226222   1.711   2.322  16.761  1.0619 -1.4609  1.2962
 1603TIP3   OH226223   5.748   4.278   5.996 -0.1545  0.2892 -0.5904
 1603TIP3    H126224   5.748   4.373   6.003  3.0353  0.4833 -1.5548
 1603TIP3    H226225   5.735   4.261   5.903 -0.9990 -0.2592 -0.3815
 1604TIP3   OH226226   3.475   5.433  16.477 -0.3115 -0.4415  0.1344
 1604TIP3    H126227   3.511   5.479  16.553 -1.0157 -0.3113  0.3954
 1604TIP3    H226228   3.401   5.384  16.512 -0.8736 -0.0823 -0.5382
 1605TIP3   OH226229   6.541   5.766  13.495 -0.0333 -0.0302 -0.0083
 1605TIP3    H126230   6.458   5.741  13.536 -0.6448  0.4261 -0.9287
 1605TIP3    H226231   6.539   5.723  13.409  0.2472  0.7623 -0.4156
 1606TIP3   OH226232   0.482   1.021   4.867 -0.1382  0.3258  0.4073
 1606TIP3    H126233   0.552   1.036   4.930  1.0065 -1.8788 -0.2366
 1606TIP3    H226234   0.421   0.963   4.913  0.0950 -0.3137 -0.0698
 1607TIP3   OH226235   4.114   5.901   5.623  0.3848 -0.1124 -0.1724
 1607TIP3    H126236   4.078   5.814   5.639 -0.8873  0.5945  1.1009
 1607TIP3    H226237   4.189   5.907   5.682  0.9206 -0.5853 -0.7900
 1608TIP3   OH226238   1.333   2.077   1.462  0.1336 -0.5903 -0.1319
 1608TIP3    H126239   1.307   2.169   1.464  2.0508  0.0073  2.1991
 1608TIP3    H226240   1.391   2.070   1.386  0.7046  0.3520  0.2055
 1609TIP3   OH226241   2.028   3.150  11.299 -0.1326  0.1414 -0.0994
 1609TIP3    H126242   2.030   3.222  11.362 -3.6577 -1.2195  1.9049
 1609TIP3    H226243   1.945   3.161  11.253  0.8321 -0.7901 -2.1861
 1610TIP3   OH226244   4.712   0.291   1.486 -0.4053  0.5222  0.5097
 1610TIP3    H126245   4.664   0.299   1.568 -1.7737 -1.1878 -0.0563
 1610TIP3    H226246   4.723   0.197   1.473 -0.0612  0.7586 -1.1613
 1611TIP3   OH226247   3.073   5.632  15.959 -0.3167  0.6910 -0.0003
 1611TIP3    H126248   3.062   5.544  15.996 -2.9026 -0.6754 -3.4633
 1611TIP3    H226249   3.088   5.617  15.866 -1.7839  3.9512 -0.9069
 1612TIP3   OH226250   4.136   4.307  12.513  0.3190 -0.5679 -0.7222
 1612TIP3    H126251   4.195   4.380  12.495 -1.3151  0.6450 -1.3580
 1612TIP3    H226252   4.119   4.313  12.607 -0.7602  0.6446 -0.9753
 1613TIP3   OH226253   5.332   0.239   6.621  0.1922  0.1300 -0.5170
 1613TIP3    H126254   5.411   0.193   6.594  0.1484  0.1065 -0.6056
 1613TIP3    H226255   5.358   0.331   6.628  0.6536 -0.0930  1.0967
 1614TIP3   OH226256   5.436   2.127   5.740  0.1895 -0.2133  0.5433
 1614TIP3    H126257   5.397   2.150   5.656 -0.8927  0.8771  1.3063
 1614TIP3    H226258   5.427   2.206   5.793 -0.8623 -1.4299  2.2922
 1615TIP3   OH226259   3.541   5.558   5.570 -0.0536  0.3432 -0.2687
 1615TIP3    H126260   3.479   5.562   5.642  0.7032 -0.6540  0.4603
 1615TIP3    H226261   3.552   5.650   5.543 -1.1311  0.6237  0.1706
 1616TIP3   OH226262   3.082   0.111   4.437 -0.3813 -0.1162  0.3428
 1616TIP3    H126263   3.061   0.032   4.486 -1.5381 -1.2213 -1.7630
 1616TIP3    H226264   3.177   0.117   4.438 -0.2452 -1.8423  0.1367
 1617TIP3   OH226265   6.704   3.310  14.381  0.4937 -0.0356 -0.3220
 1617TIP3    H126266   6.731   3.349  14.297 -0.7767  1.9216  0.0918
 1617TIP3    H226267   6.675   3.385  14.432  2.4426 -0.9967  2.4027
 1618TIP3   OH226268   1.376   4.687   6.570  0.3210  0.3732  0.3470
 1618TIP3    H126269   1.434   4.610   6.566  0.2091  0.1656  2.1184
 1618TIP3    H226270   1.397   4.736   6.490  0.1614 -1.6331 -1.0309
 1619TIP3   OH226271   1.676   2.345  14.160 -0.1963 -0.1946 -0.3955
 1619TIP3    H126272   1.742   2.278  14.142  2.0457  1.8991 -0.4570
 1619TIP3    H226273   1.720   2.409  14.216 -3.1679 -0.2070  2.2595
 1620TIP3   OH226274   6.398   3.344  12.478  0.0446  0.2339 -0.3805
 1620TIP3    H126275   6.355   3.429  12.474  0.1715  0.2410 -3.6196
 1620TIP3    H226276   6.335   3.284  12.437  0.9134 -0.7827 -0.2598
 1621TIP3   OH226277   4.656   6.643  14.423 -0.1594 -0.4759 -0.0827
 1621TIP3    H126278   4.586   6.616  14.483  0.9769 -4.1347 -0.1372
 1621TIP3    H226279   4.656   6.576  14.355  1.6481  0.9510 -1.6096
 1622TIP3   OH226280   6.621   5.699  15.299 -0.1243  0.2083 -0.1922
 1622TIP3    H126281   6.526   5.701  15.308 -0.1631  1.3087 -0.6549
 1622TIP3    H226282   6.653   5.669  15.384 -0.8887 -0.4456 -0.1226
 1623TIP3   OH226283   5.500   4.262  14.180 -0.1325  0.3872  0.4128
 1623TIP3    H126284   5.441   4.218  14.241 -0.2567 -0.5312 -0.3371
 1623TIP3    H226285   5.441   4.300  14.114  0.1310 -1.6938 -1.0922
 1624TIP3   OH226286   4.187   4.228  13.087 -0.2580 -0.7573  0.1355
 1624TIP3    H126287   4.224   4.300  13.138 -0.7717 -0.4799  0.1204
 1624TIP3    H226288   4.159   4.268  13.005 -0.5181 -0.9798  0.1144
 1625TIP3   OH226289   0.190   1.556  16.373 -0.1562 -0.7865 -0.3300
 1625TIP3    H126290   0.099   1.558  16.404 -0.3995  1.7065 -0.9945
 1625TIP3    H226291   0.193   1.621  16.303  2.2559 -0.4522 -0.0057
 1626TIP3   OH226292   3.999   1.256   4.954 -0.0535  0.3369  0.0101
 1626TIP3    H126293   3.963   1.210   5.030 -1.3574  1.0658 -0.1289
 1626TIP3    H226294   4.093   1.242   4.959 -0.3800 -2.9878 -0.4426
 1627TIP3   OH226295   3.440   5.640  15.002 -0.0304  0.0373 -0.1623
 1627TIP3    H126296   3.493   5.561  14.994  0.3017  0.0257  1.7133
 1627TIP3    H226297   3.353   5.614  14.973  0.2191 -0.8487 -0.1536
 1628TIP3   OH226298   3.624   0.845  12.919 -0.2141  0.2028  0.1490
 1628TIP3    H126299   3.702   0.897  12.938  0.3792 -0.2019 -1.0422
 1628TIP3    H226300   3.628   0.773  12.982 -0.2993  0.8361  0.8991
 1629TIP3   OH226301   5.467   5.518  16.309 -0.5250  0.0388 -0.4518
 1629TIP3    H126302   5.462   5.548  16.218 -0.6369 -1.4427 -0.9480
 1629TIP3    H226303   5.522   5.583  16.352 -1.2252  1.2817 -1.3428
 1630TIP3   OH226304   1.551   1.426   2.197  0.2803 -0.2914 -0.1224
 1630TIP3    H126305   1.615   1.478   2.246  1.2106  3.6959 -4.7188
 1630TIP3    H226306   1.472   1.480   2.196 -0.8775 -1.9331 -0.1215
 1631TIP3   OH226307   2.519   1.246  10.776  0.0827  0.0567  0.2438
 1631TIP3    H126308   2.465   1.221  10.701  0.6501 -0.8685  0.1256
 1631TIP3    H226309   2.609   1.237  10.744  0.3598 -1.2533  1.2804
 1632TIP3   OH226310   3.036   4.938   0.450  0.4210  0.1873  0.0356
 1632TIP3    H126311   2.945   4.944   0.421  0.0731 -2.3711  0.3390
 1632TIP3    H226312   3.052   5.019   0.498 -2.3513 -0.1569  1.6990
 1633TIP3   OH226313   0.679   2.214   5.326 -0.2605 -0.7108  0.4548
 1633TIP3    H126314   0.727   2.297   5.319 -1.4556  0.0503  1.0658
 1633TIP3    H226315   0.737   2.150   5.284  0.4996  0.4953 -0.4149
 1634TIP3   OH226316   2.586   3.605   3.613 -0.4762 -0.4162  0.4746
 1634TIP3    H126317   2.661   3.657   3.643 -0.8329 -0.7199  2.0050
 1634TIP3    H226318   2.512   3.666   3.614 -0.4526 -0.3813  0.0218
 1635TIP3   OH226319   5.228   6.547   2.232  0.3192 -0.3078  0.8605
 1635TIP3    H126320   5.312   6.564   2.189 -0.0947 -0.1230  0.0971
 1635TIP3    H226321   5.251   6.518   2.319  1.2246 -1.7715  0.1642
 1636TIP3   OH226322   2.250   3.258  15.372  0.0214  1.0063 -0.3435
 1636TIP3    H126323   2.270   3.302  15.455 -0.7421  0.5814  0.0731
 1636TIP3    H226324   2.334   3.256  15.326  0.8644 -0.2778  1.1488
 1637TIP3   OH226325   4.222   3.904   1.219 -0.1451  0.4512  0.1320
 1637TIP3    H126326   4.213   3.880   1.127  0.9921 -2.4856  0.6683
 1637TIP3    H226327   4.164   3.843   1.265  0.4021  0.8872  1.4502
 1638TIP3   OH226328   5.101   0.666  16.800 -0.2402  0.1374 -0.3474
 1638TIP3    H126329   5.192   0.648  16.777 -0.2352 -1.6871  0.8471
 1638TIP3    H226330   5.051   0.596  16.757 -0.7317 -0.4977  1.1913
 1639TIP3   OH226331   6.524   1.850   0.141  0.0897  0.1572  0.6469
 1639TIP3    H126332   6.568   1.935   0.150 -1.7460  1.0454  1.7674
 1639TIP3    H226333   6.494   1.848   0.050  0.2424  0.6536  0.5823
 1640TIP3   OH226334   4.164   5.923  14.819 -0.5456  0.9216 -0.1784
 1640TIP3    H126335   4.108   5.960  14.887 -2.2785  1.4331 -1.7827
 1640TIP3    H226336   4.217   5.996  14.789  0.0698  0.7428  0.4353
 1641TIP3   OH226337   0.670   0.266  11.596 -0.9788  0.1176  0.2426
 1641TIP3    H126338   0.668   0.338  11.659  0.4220  1.1747 -0.8515
 1641TIP3    H226339   0.707   0.193  11.646  1.2643  1.2799  0.4101
 1642TIP3   OH226340   3.334   0.985  13.809 -0.1726 -0.3498 -0.1548
 1642TIP3    H126341   3.281   0.934  13.749  1.4388 -1.2723 -0.8659
 1642TIP3    H226342   3.361   0.923  13.877  0.7865 -0.1585 -0.3457
 1643TIP3   OH226343   6.551   3.672  16.218  0.5021 -0.2709 -0.0733
 1643TIP3    H126344   6.461   3.678  16.250  0.8544  1.2451  0.7452
 1643TIP3    H226345   6.603   3.716  16.285  2.2099 -3.2283  0.6710
 1644TIP3   OH226346   2.237   3.953   4.276 -0.1446  0.2043  0.4402
 1644TIP3    H126347   2.327   3.935   4.305  0.8340  0.0095 -2.4652
 1644TIP3    H226348   2.191   3.871   4.290  0.6608 -0.3116  0.1580
 1645TIP3   OH226349   0.358   5.571   1.274  0.2773  0.1307 -0.2177
 1645TIP3    H126350   0.447   5.546   1.298 -0.2551 -1.5737  0.1241
 1645TIP3    H226351   0.326   5.620   1.350  0.2069 -1.1388  0.5993
 1646TIP3   OH226352   3.059   3.121   3.685 -0.4957 -0.1559 -0.6235
 1646TIP3    H126353   3.105   3.129   3.602 -0.5715  1.1642 -0.5619
 1646TIP3    H226354   3.081   3.201   3.733 -0.6984 -0.7499  0.5054
 1647TIP3   OH226355   2.796   6.670  11.618 -0.0802 -0.7957  0.4289
 1647TIP3    H126356   2.802   6.765  11.626 -1.8455 -0.4301 -1.6682
 1647TIP3    H226357   2.725   6.655  11.555  0.3762 -3.5038  0.4170
 1648TIP3   OH226358   1.298   2.381  11.041 -0.0306  0.2517 -0.1646
 1648TIP3    H126359   1.315   2.473  11.062 -0.6029  0.3826 -0.2530
 1648TIP3    H226360   1.332   2.333  11.116 -1.9139  0.7103  1.0508
 1649TIP3   OH226361   4.055   6.176  16.376 -0.1686  0.1716 -0.0704
 1649TIP3    H126362   3.986   6.216  16.323 -1.2782 -1.4103  0.0897
 1649TIP3    H226363   4.114   6.135  16.313 -0.4674 -0.1354 -0.1532
 1650TIP3   OH226364   0.920   5.985  13.619  0.1528 -0.5668  0.3589
 1650TIP3    H126365   1.002   5.985  13.669  1.8259  1.4995 -2.1574
 1650TIP3    H226366   0.930   5.913  13.557 -0.2033 -0.6585  0.4050
 1651TIP3   OH226367   5.852   6.461   3.242 -0.0561  0.0704  0.8033
 1651TIP3    H126368   5.902   6.448   3.323 -1.5173  1.1171  1.9212
 1651TIP3    H226369   5.762   6.440   3.265 -0.1079 -2.8997 -1.4647
 1652TIP3   OH226370   1.376   3.159  14.868  0.1910  0.1441 -0.3875
 1652TIP3    H126371   1.391   3.210  14.788 -0.6468  1.9597  0.5612
 1652TIP3    H226372   1.399   3.218  14.939 -0.5495 -0.8994  0.7550
 1653TIP3   OH226373   1.008   6.156   5.734 -0.4826  0.6035 -0.1524
 1653TIP3    H126374   1.012   6.172   5.640 -1.6432 -0.3951 -0.4021
 1653TIP3    H226375   1.098   6.169   5.764 -0.0177  0.5951 -1.4592
 1654TIP3   OH226376   0.020   4.220   1.456 -0.3169 -0.2732 -0.0971
 1654TIP3    H126377   0.095   4.177   1.497  0.0965  0.1048 -0.4285
 1654TIP3    H226378  -0.052   4.208   1.517 -0.0900 -1.0068  0.0378
 1655TIP3   OH226379   3.306   2.243  15.105 -0.4337 -0.4103  0.5923
 1655TIP3    H126380   3.247   2.168  15.100 -1.2046  0.2611 -1.2147
 1655TIP3    H226381   3.392   2.208  15.079 -1.1732 -0.3570 -2.3117
 1656TIP3   OH226382   6.286   2.291  16.018  0.4141  0.6392 -0.4240
 1656TIP3    H126383   6.337   2.228  15.968 -0.7659 -0.7018 -0.0054
 1656TIP3    H226384   6.302   2.375  15.975  2.6351  0.2164 -0.5300
 1657TIP3   OH226385   2.112   0.547   4.582  0.4024 -0.1608 -0.0552
 1657TIP3    H126386   2.155   0.623   4.621  0.8287  0.1358 -1.0661
 1657TIP3    H226387   2.135   0.474   4.640  1.3827  0.1913  0.0214
 1658TIP3   OH226388   3.374   5.978   3.698 -0.2475  0.8049  0.4014
 1658TIP3    H126389   3.310   5.934   3.754 -1.1767  0.9896 -0.4779
 1658TIP3    H226390   3.379   6.067   3.733  0.8279  0.3439  1.5136
 1659TIP3   OH226391   6.521   3.026  15.950 -0.1411  0.4272  0.0762
 1659TIP3    H126392   6.538   3.102  15.895  0.5029 -0.3807 -0.8720
 1659TIP3    H226393   6.478   2.963  15.892  0.2748 -0.3304  0.5767
 1660TIP3   OH226394   6.738   1.202   0.003 -0.5033  0.6404 -0.4625
 1660TIP3    H126395   6.646   1.179   0.018 -0.0477 -1.5751 -0.6772
 1660TIP3    H226396   6.760   1.157  -0.079  0.6761  1.4882 -0.6340
 1661TIP3   OH226397   6.091   4.243  11.645  0.3524 -0.3778 -0.2596
 1661TIP3    H126398   6.019   4.277  11.697  1.0634  1.1458 -0.2380
 1661TIP3    H226399   6.072   4.270  11.555  1.2343  0.6503 -0.1516
 1662TIP3   OH226400   1.799   2.785  13.462  0.1422  0.1999  0.0432
 1662TIP3    H126401   1.782   2.693  13.441 -0.0626  0.2377  0.0349
 1662TIP3    H226402   1.892   2.788  13.486  0.4747  0.2254 -1.2038
 1663TIP3   OH226403   4.941   5.181   3.837 -0.5148  0.2352 -0.1905
 1663TIP3    H126404   5.035   5.163   3.836 -0.5790 -0.1224 -0.0338
 1663TIP3    H226405   4.912   5.159   3.749 -0.8365 -1.8305  0.3751
 1664TIP3   OH226406   4.399   3.064  12.515  0.0384  0.1970 -0.0717
 1664TIP3    H126407   4.482   3.103  12.490 -0.1373 -0.3970 -1.6956
 1664TIP3    H226408   4.358   3.038  12.432 -1.9039  0.7372  0.6422
 1665TIP3   OH226409   2.816   0.128   5.051 -0.0179  0.5189 -0.3578
 1665TIP3    H126410   2.868   0.051   5.027 -1.3705 -0.2381 -0.9689
 1665TIP3    H226411   2.748   0.133   4.984 -0.4401  1.7825  0.1327
 1666TIP3   OH226412   3.232   1.326  15.995  0.6346  0.5161 -0.2404
 1666TIP3    H126413   3.241   1.348  16.087  0.0668 -0.6998  0.1290
 1666TIP3    H226414   3.147   1.362  15.970  0.9602  1.1894 -0.4104
 1667TIP3   OH226415   0.739   2.239   4.955  0.0278 -0.1492 -0.6086
 1667TIP3    H126416   0.774   2.152   4.974 -0.7284 -0.6784 -1.5327
 1667TIP3    H226417   0.688   2.227   4.875 -1.1499  0.8687 -0.0451
 1668TIP3   OH226418   3.373   1.449  14.677 -0.1362  0.1989  0.4814
 1668TIP3    H126419   3.402   1.462  14.587 -0.6252 -2.5552 -0.1552
 1668TIP3    H226420   3.432   1.382  14.712  0.6183  1.8231  2.5788
 1669TIP3   OH226421   0.070   6.289   0.007  0.3907  0.5566  0.9286
 1669TIP3    H126422   0.079   6.196  -0.012  3.5195  0.6940  1.2416
 1669TIP3    H226423  -0.017   6.312  -0.026 -0.2106 -2.3097  0.2743
 1670TIP3   OH226424   1.179   5.846   4.294  0.2041  0.3213  0.0920
 1670TIP3    H126425   1.173   5.810   4.383  0.4507 -1.1862 -0.4750
 1670TIP3    H226426   1.242   5.918   4.301 -0.1886  0.5718  1.2335
 1671TIP3   OH226427   1.718   5.931  16.559  0.1175  0.1088 -0.1410
 1671TIP3    H126428   1.707   5.977  16.642  3.0982  2.0052 -0.6549
 1671TIP3    H226429   1.642   5.957  16.507 -0.2733  1.2710  0.9549
 1672TIP3   OH226430   6.201   1.253   1.437  0.5311 -0.4652  0.8068
 1672TIP3    H126431   6.183   1.165   1.405 -1.0023 -0.1871  0.8275
 1672TIP3    H226432   6.198   1.308   1.359 -0.1432 -0.2130  1.0041
 1673TIP3   OH226433   0.931   3.157   0.953 -0.0764 -0.4538  0.0174
 1673TIP3    H126434   0.848   3.195   0.981  1.1336  0.5595  2.5128
 1673TIP3    H226435   0.949   3.088   1.017  1.0705 -0.5591 -0.3934
 1674TIP3   OH226436   6.329   4.147  15.893  0.3859  0.5638  0.0055
 1674TIP3    H126437   6.274   4.177  15.966 -1.1891 -0.4497 -0.7163
 1674TIP3    H226438   6.400   4.211  15.889 -2.2840  3.7740 -0.9155
 1675TIP3   OH226439   0.828   1.236  14.886 -0.7249 -0.0538 -0.0725
 1675TIP3    H126440   0.896   1.196  14.940 -1.6919 -0.0357  1.2024
 1675TIP3    H226441   0.876   1.287  14.821  0.4863 -0.9201  0.1064
 1676TIP3   OH226442   1.840   6.607   2.462 -0.2038 -0.1505  0.7869
 1676TIP3    H126443   1.871   6.550   2.391  1.2745  2.7481 -1.0929
 1676TIP3    H226444   1.921   6.639   2.503 -0.7414  2.6307 -0.0655
 1677TIP3   OH226445   5.694   4.421  17.045 -0.4081 -0.4879  0.3425
 1677TIP3    H126446   5.604   4.395  17.066 -0.5139  0.7110  1.4674
 1677TIP3    H226447   5.734   4.437  17.130 -0.6776  4.0774 -0.1739
 1678TIP3   OH226448   6.390   3.387  13.103  0.0958 -0.2226 -0.4118
 1678TIP3    H126449   6.362   3.364  13.014 -0.1268 -1.2864 -0.0846
 1678TIP3    H226450   6.466   3.443  13.090 -0.0024 -0.2775 -1.2811
 1679TIP3   OH226451   3.383   0.446  13.084  0.2641  0.2592  0.0365
 1679TIP3    H126452   3.358   0.434  13.176  0.1519 -0.6282 -0.0988
 1679TIP3    H226453   3.306   0.420  13.034  1.0755 -1.5221 -0.3570
 1680TIP3   OH226454   0.838   6.257  13.949  0.2169 -0.5859 -0.3893
 1680TIP3    H126455   0.770   6.213  13.899  0.0105 -2.1558  1.1525
 1680TIP3    H226456   0.814   6.350  13.947 -1.5468 -1.0095 -0.5335
 1681TIP3   OH226457   3.583   6.498  16.452  0.3101  0.2367  0.3706
 1681TIP3    H126458   3.579   6.592  16.431 -0.9675  0.2643  0.6172
 1681TIP3    H226459   3.642   6.461  16.386  0.1747  1.0828 -0.2468
 1682TIP3   OH226460   0.594   6.646  13.725  0.8517 -0.1572  0.3409
 1682TIP3    H126461   0.530   6.692  13.671  0.0207 -0.7855  0.7745
 1682TIP3    H226462   0.676   6.693  13.710  0.0246  1.5171  0.8477
 1683TIP3   OH226463   4.916   5.218   5.115  0.6752  0.1402  0.0156
 1683TIP3    H126464   4.969   5.158   5.168  0.4441 -0.2584 -0.2020
 1683TIP3    H226465   4.979   5.275   5.073  0.8740  0.3633  0.6007
 1684TIP3   OH226466   5.375   1.536   0.129 -0.4696 -0.2821  0.1739
 1684TIP3    H126467   5.384   1.476   0.055 -2.2395 -0.0662 -0.2511
 1684TIP3    H226468   5.457   1.525   0.178  0.8241 -0.3203 -1.8664
 1685TIP3   OH226469   5.617   6.328   5.657 -0.0427  0.1795 -0.0318
 1685TIP3    H126470   5.664   6.333   5.741  1.2633 -0.7715 -0.6613
 1685TIP3    H226471   5.541   6.384   5.669  0.6645  0.8953  1.4347
 1686TIP3   OH226472   1.839   2.998   1.728 -0.2265 -0.2926 -0.2448
 1686TIP3    H126473   1.889   2.955   1.659  2.3269  0.3322  1.1077
 1686TIP3    H226474   1.848   3.092   1.709  0.7315 -0.1028  1.0260
 1687TIP3   OH226475   6.042   6.207   5.169 -0.3688 -0.0195 -0.3038
 1687TIP3    H126476   6.038   6.113   5.183  0.1466 -0.2838 -1.7601
 1687TIP3    H226477   5.999   6.221   5.084 -0.4305  1.0544 -0.1148
 1688TIP3   OH226478   4.668   1.178  13.853 -0.1840 -0.4304 -0.2214
 1688TIP3    H126479   4.613   1.112  13.810  0.0145 -0.9683  0.3429
 1688TIP3    H226480   4.641   1.177  13.944  0.9876 -0.9490  0.1387
 1689TIP3   OH226481   2.072   6.584   2.220 -0.3049 -1.0639 -0.0815
 1689TIP3    H126482   2.079   6.504   2.271  0.0198 -0.6783  0.4881
 1689TIP3    H226483   2.140   6.641   2.255 -0.9334 -0.3075 -0.0561
 1690TIP3   OH226484   0.377   0.875   2.515  0.5839 -0.7750 -0.0513
 1690TIP3    H126485   0.389   0.849   2.606  0.7787 -0.3551  0.0444
 1690TIP3    H226486   0.333   0.800   2.474  1.2875 -1.3218  0.1828
 1691TIP3   OH226487   5.493   1.697   1.520 -0.1579  0.1685 -0.1465
 1691TIP3    H126488   5.534   1.651   1.447 -0.2722 -0.3583  0.1151
 1691TIP3    H226489   5.480   1.786   1.488  2.2880  0.7034  0.1604
 1692TIP3   OH226490   4.975   4.396  16.237 -0.3839 -0.0566  0.0794
 1692TIP3    H126491   4.929   4.405  16.154 -1.5355  0.4748  0.7477
 1692TIP3    H226492   4.965   4.481  16.280 -0.3994 -0.5315  1.0510
 1693TIP3   OH226493   3.486   3.216  14.145 -0.5419 -0.6064 -0.0383
 1693TIP3    H126494   3.446   3.237  14.230 -1.3516 -0.3693 -0.4732
 1693TIP3    H226495   3.440   3.138  14.116 -1.6379  0.4250 -1.1586
 1694TIP3   OH226496   5.162   6.058   0.207 -0.3749  0.2751  0.0037
 1694TIP3    H126497   5.215   6.125   0.163  2.1499 -1.6301 -0.1085
 1694TIP3    H226498   5.129   6.101   0.286  0.4419  1.8852 -0.4915
 1695TIP3   OH226499   1.528   6.266   1.216  0.5001  0.6686  0.5109
 1695TIP3    H126500   1.473   6.187   1.210  0.0334  0.6242  3.5932
 1695TIP3    H226501   1.614   6.237   1.184  0.0330 -0.7455  0.4400
 1696TIP3   OH226502   2.058   2.895   3.322 -0.1980  0.2285 -0.1373
 1696TIP3    H126503   2.153   2.904   3.321 -0.2402  0.6514 -0.1825
 1696TIP3    H226504   2.026   2.971   3.371 -0.5038  0.0055  0.0160
 1697TIP3   OH226505   1.194   5.715  15.505  1.2912 -0.2354  0.2323
 1697TIP3    H126506   1.126   5.781  15.492  1.4456  0.2587  1.7040
 1697TIP3    H226507   1.261   5.736  15.441  0.0569 -0.7925 -1.3286
 1698TIP3   OH226508   2.580   3.309   0.812  0.1820  0.7717  0.4348
 1698TIP3    H126509   2.547   3.390   0.851 -0.3794  1.2804 -1.0416
 1698TIP3    H226510   2.595   3.251   0.887 -1.0270  1.6414  1.3974
 1699TIP3   OH226511   1.125   1.170  16.754 -0.2115  0.2683  0.2754
 1699TIP3    H126512   1.036   1.136  16.749  0.1068 -0.4433 -0.8049
 1699TIP3    H226513   1.178   1.108  16.704  0.6775  1.4060 -0.2389
 1700TIP3   OH226514   4.304   5.177  10.682 -0.1094 -0.0407  0.1701
 1700TIP3    H126515   4.387   5.206  10.721  0.0675  0.6099 -0.6660
 1700TIP3    H226516   4.296   5.228  10.601 -1.2524 -0.2141  0.1575
 1701TIP3   OH226517   5.232   2.022   4.202  0.2066  0.5568  0.1758
 1701TIP3    H126518   5.149   2.044   4.160  0.3445 -2.1991 -1.7719
 1701TIP3    H226519   5.246   1.929   4.183  1.7493 -0.1923  4.0052
 1702TIP3   OH226520   3.367   3.570   3.694  0.2035 -0.2692 -0.4467
 1702TIP3    H126521   3.312   3.560   3.772 -1.4024 -0.0420 -1.4928
 1702TIP3    H226522   3.343   3.656   3.659 -0.6940 -1.2252 -2.3385
 1703TIP3   OH226523   0.375   5.798   0.318  0.3568  0.2474  0.0109
 1703TIP3    H126524   0.372   5.776   0.225 -0.5580  0.4060 -0.0014
 1703TIP3    H226525   0.462   5.838   0.330  0.5789  0.0002 -0.7151
 1704TIP3   OH226526   2.135   3.350   6.128 -0.1309  0.3177 -0.2380
 1704TIP3    H126527   2.210   3.358   6.186 -0.9535 -0.1214  0.9198
 1704TIP3    H226528   2.094   3.436   6.131  0.5753  0.7106 -1.2596
 1705TIP3   OH226529   1.241   2.698   4.643 -0.0105 -0.1492 -0.1499
 1705TIP3    H126530   1.285   2.721   4.561  0.4560 -1.6965 -0.3741
 1705TIP3    H226531   1.303   2.725   4.712 -0.0173  0.3521 -0.3368
 1706TIP3   OH226532   4.853   6.109   2.014  0.1166 -0.2694 -0.6658
 1706TIP3    H126533   4.781   6.045   2.012  0.4812 -0.8069  1.0376
 1706TIP3    H226534   4.916   6.075   1.951 -0.8374 -0.1260 -1.7301
 1707TIP3   OH226535   2.876   5.530   0.426  0.5553 -0.3976  0.1480
 1707TIP3    H126536   2.906   5.463   0.365 -0.0322  0.0798 -0.6826
 1707TIP3    H226537   2.858   5.606   0.371  0.2077  0.1094  0.9443
 1708TIP3   OH226538   4.779   5.893  13.172  0.4336  0.5929 -0.3729
 1708TIP3    H126539   4.725   5.827  13.215  0.5694 -1.5001 -3.1382
 1708TIP3    H226540   4.867   5.880  13.208  0.0864  0.6292  0.5154
 1709TIP3   OH226541   1.286   4.605  13.300 -0.7629  0.1245 -0.4362
 1709TIP3    H126542   1.298   4.635  13.390 -0.8177  1.1322 -0.7615
 1709TIP3    H226543   1.324   4.517  13.299  0.6673  0.7118  0.1766
 1710TIP3   OH226544   6.760   5.359  14.713  0.3189 -0.3131 -0.1329
 1710TIP3    H126545   6.764   5.277  14.664 -0.3945 -0.1256 -0.5217
 1710TIP3    H226546   6.697   5.342  14.783  0.1788 -0.1150 -0.2063
 1711TIP3   OH226547   5.590   6.750  15.109  0.2200 -0.0943 -0.3153
 1711TIP3    H126548   5.534   6.828  15.112 -1.1343 -1.0515  2.6317
 1711TIP3    H226549   5.584   6.712  15.197  1.9007 -2.8242 -1.2459
 1712TIP3   OH226550   5.553   5.758   4.950  0.2492  0.6651  0.0099
 1712TIP3    H126551   5.642   5.782   4.974  0.7172 -0.2328 -0.7698
 1712TIP3    H226552   5.553   5.662   4.950 -0.7827  0.6543  0.2357
 1713TIP3   OH226553   0.616   3.684   4.274 -0.0994 -0.3631  0.1594
 1713TIP3    H126554   0.671   3.701   4.350 -1.4769  0.0036  1.0970
 1713TIP3    H226555   0.620   3.589   4.263  1.0127 -0.3098 -0.0347
 1714TIP3   OH226556   6.110   1.198   2.913 -0.1686 -0.0026  0.1834
 1714TIP3    H126557   6.172   1.220   2.843 -0.9336  2.2110  0.1248
 1714TIP3    H226558   6.030   1.245   2.890 -0.8414 -0.2220  1.9119
 1715TIP3   OH226559   2.172   6.250   5.180  0.0182  0.1806 -0.3857
 1715TIP3    H126560   2.142   6.229   5.091  1.1867 -0.8709 -0.5670
 1715TIP3    H226561   2.173   6.346   5.183 -1.6108  0.2474 -0.9306
 1716TIP3   OH226562   3.731   2.931   3.565 -0.1155  0.6552 -0.2708
 1716TIP3    H126563   3.696   3.018   3.548 -0.8981  0.6291  1.0925
 1716TIP3    H226564   3.824   2.945   3.584  0.0154  1.0447 -1.1453
 1717TIP3   OH226565   1.416   2.333  14.178  0.0494 -0.0079 -0.2461
 1717TIP3    H126566   1.392   2.426  14.180 -1.0781 -0.2984  0.5798
 1717TIP3    H226567   1.508   2.333  14.151  1.1690  1.5931  3.0291
 1718TIP3   OH226568   3.742   6.658  14.845  0.2304  0.0214  0.4073
 1718TIP3    H126569   3.771   6.592  14.907 -0.0085 -0.1491  0.3352
 1718TIP3    H226570   3.680   6.613  14.788  0.9101  0.0109 -0.3448
 1719TIP3   OH226571   4.711   6.163   5.418  0.1770  0.2150  0.2233
 1719TIP3    H126572   4.766   6.116   5.355  1.6472  0.9154  0.9462
 1719TIP3    H226573   4.728   6.256   5.399 -1.8669  0.4995 -0.4757
 1720TIP3   OH226574   1.973   0.945  16.399 -0.0969  0.5400  0.0890
 1720TIP3    H126575   2.049   1.004  16.407 -0.6849  1.6776 -1.8822
 1720TIP3    H226576   2.000   0.882  16.332 -0.3887  0.0976  0.3918
 1721TIP3   OH226577   5.802   2.390   0.603  0.6473 -0.5178 -0.4189
 1721TIP3    H126578   5.724   2.336   0.610 -1.4403  2.1482 -1.3538
 1721TIP3    H226579   5.796   2.430   0.516  3.3573 -0.5959 -0.7268
 1722TIP3   OH226580   3.192   0.559  11.895  0.2422  0.3288 -0.6384
 1722TIP3    H126581   3.152   0.640  11.926 -0.0689  0.4081 -1.2223
 1722TIP3    H226582   3.238   0.524  11.971 -0.6056  0.4510 -0.0535
 1723TIP3   OH226583   3.044   5.060  16.273 -0.2291 -0.0059  0.1455
 1723TIP3    H126584   3.072   5.147  16.302  0.6925  0.0688 -0.8973
 1723TIP3    H226585   3.050   5.006  16.352  1.2543  0.4065  0.3514
 1724TIP3   OH226586   4.594   1.300   4.655  0.2188  0.0390  0.0554
 1724TIP3    H126587   4.539   1.247   4.596 -1.1008 -0.2567  1.4876
 1724TIP3    H226588   4.619   1.239   4.724 -1.6238  1.2888  1.9342
 1725TIP3   OH226589   6.146   5.486  10.888 -0.4867  0.0601 -0.4868
 1725TIP3    H126590   6.086   5.422  10.850  0.9846 -1.8299  0.1969
 1725TIP3    H226591   6.186   5.440  10.962  2.2678  0.9523 -1.2988
 1726TIP3   OH226592   0.943   5.278  12.265 -0.5466  0.3665 -0.3402
 1726TIP3    H126593   0.988   5.361  12.250  5.4959 -1.6397  3.1203
 1726TIP3    H226594   0.908   5.285  12.354 -1.2507 -0.4000 -0.5375
 1727TIP3   OH226595   4.809   2.132   2.884  0.4582 -0.2483  0.6374
 1727TIP3    H126596   4.733   2.130   2.827  1.0701 -0.9752 -0.1794
 1727TIP3    H226597   4.832   2.040   2.898  3.5737 -0.1427 -2.4663
 1728TIP3   OH226598   3.312   3.461  14.517 -0.5809 -0.2500 -0.6981
 1728TIP3    H126599   3.407   3.453  14.527 -0.6727 -1.0264 -0.3712
 1728TIP3    H226600   3.293   3.552  14.540  0.0109 -0.2519 -0.1841
 1729TIP3   OH226601   1.767   2.109  15.606 -0.2572  0.4009  0.3121
 1729TIP3    H126602   1.756   2.196  15.646  1.3496  0.8049 -0.0685
 1729TIP3    H226603   1.796   2.127  15.517  0.7995 -0.5347  0.4519
 1730TIP3   OH226604   0.593   2.587  12.546 -0.3123 -0.2310  0.9403
 1730TIP3    H126605   0.528   2.626  12.487  0.0355 -0.9202  0.0790
 1730TIP3    H226606   0.547   2.576  12.629 -2.1968 -3.1286 -0.3403
 1731TIP3   OH226607   5.579   2.914   6.394  0.3097 -0.3198  0.5874
 1731TIP3    H126608   5.649   2.849   6.388  0.8619  0.3507 -0.5366
 1731TIP3    H226609   5.524   2.884   6.467  0.8055 -1.7830  0.3847
 1732TIP3   OH226610   5.399   2.266   2.600  0.2071  0.0585 -0.0545
 1732TIP3    H126611   5.369   2.315   2.677 -1.5542 -0.6754 -0.2132
 1732TIP3    H226612   5.423   2.333   2.536  2.2853  0.6876  1.2882
 1733TIP3   OH226613   5.359   5.923   2.866 -0.6987 -0.2332 -0.1396
 1733TIP3    H126614   5.305   5.988   2.820  0.0753  1.9505  1.8493
 1733TIP3    H226615   5.299   5.851   2.883 -1.8243  0.2615 -1.7139
 1734TIP3   OH226616   1.043   0.710  16.398  0.1173 -0.0329  0.2259
 1734TIP3    H126617   1.014   0.774  16.464 -0.6601  0.2610 -0.3832
 1734TIP3    H226618   0.991   0.632  16.416 -1.7309  0.7338 -1.3367
 1735TIP3   OH226619   0.290   4.700   4.514  0.3674 -0.3934 -0.0684
 1735TIP3    H126620   0.301   4.622   4.569 -2.7683 -0.9743 -0.0808
 1735TIP3    H226621   0.289   4.773   4.576  1.8183 -0.4686  0.0849
 1736TIP3   OH226622   3.838   2.134  12.645 -0.1530  0.0574 -0.1319
 1736TIP3    H126623   3.856   2.053  12.694 -1.6456 -1.6847 -2.2288
 1736TIP3    H226624   3.751   2.120  12.609 -0.1818  2.3857 -1.0842
 1737TIP3   OH226625   3.971   4.723   3.356 -0.2280  0.3454  0.8500
 1737TIP3    H126626   3.937   4.747   3.442  0.9030  0.3511  1.3111
 1737TIP3    H226627   3.921   4.644   3.332  0.0230 -0.1478  1.8826
 1738TIP3   OH226628   0.634   6.371  14.566  0.4971 -0.1644 -0.3734
 1738TIP3    H126629   0.720   6.331  14.582  0.9967  0.5075 -1.2621
 1738TIP3    H226630   0.635   6.451  14.619  0.2391 -0.3672 -0.0557
 1739TIP3   OH226631   5.896   5.449   2.538 -0.1990  0.5539 -0.7338
 1739TIP3    H126632   5.857   5.481   2.620 -2.5217 -0.4069 -1.3827
 1739TIP3    H226633   5.907   5.355   2.551  1.3426  0.6991 -0.8273
 1740TIP3   OH226634   2.152   0.232  14.152  0.4353 -0.9305  0.5273
 1740TIP3    H126635   2.124   0.306  14.206 -0.9719  0.1934 -1.5609
 1740TIP3    H226636   2.074   0.178  14.143 -0.2375  0.2918 -2.3577
 1741TIP3   OH226637   6.754   6.569   5.335  0.3344  0.1081 -0.2494
 1741TIP3    H126638   6.670   6.605   5.363  0.6767  0.8444 -0.1379
 1741TIP3    H226639   6.768   6.494   5.393 -0.4243 -0.2675 -0.5338
 1742TIP3   OH226640   0.357   0.081  17.093 -0.2071  0.1497  0.9588
 1742TIP3    H126641   0.350  -0.012  17.069  0.5988  0.4114 -0.3575
 1742TIP3    H226642   0.357   0.128  17.010  0.5917  1.2572  1.5514
 1743TIP3   OH226643   6.088   3.443  13.596  0.2273 -0.0691  0.8118
 1743TIP3    H126644   6.030   3.517  13.574  0.7176  0.4484  1.2247
 1743TIP3    H226645   6.087   3.388  13.517 -0.2353  0.3158  0.5387
 1744TIP3   OH226646   4.773   4.222  14.509  0.0752  0.2081  0.1041
 1744TIP3    H126647   4.817   4.255  14.588  1.7093  0.4181 -0.8512
 1744TIP3    H226648   4.796   4.130  14.505  0.2650  0.2687 -0.2801
 1745TIP3   OH226649   4.644   2.159  14.104  0.0519  0.4045 -0.5390
 1745TIP3    H126650   4.706   2.085  14.103 -0.3054  0.1011 -0.4080
 1745TIP3    H226651   4.606   2.157  14.192 -0.3909  0.3821 -0.7287
 1746TIP3   OH226652   4.533   3.733   5.001 -0.0731 -0.1318  0.3553
 1746TIP3    H126653   4.593   3.741   5.075  0.4296  1.2153 -0.1608
 1746TIP3    H226654   4.553   3.808   4.945 -0.1934 -1.2785 -1.3274
 1747TIP3   OH226655   0.746   5.944   5.022 -0.3179 -0.0596 -0.0217
 1747TIP3    H126656   0.660   5.962   5.059  0.1443 -1.3575  1.7960
 1747TIP3    H226657   0.768   5.856   5.053  2.0364  0.5861  0.3405
 1748TIP3   OH226658   2.877   1.232   3.589 -0.6013 -0.1172  0.5840
 1748TIP3    H126659   2.798   1.285   3.595 -0.2766  0.4438  0.0771
 1748TIP3    H226660   2.948   1.296   3.582 -0.2653 -0.5988 -0.7718
 1749TIP3   OH226661   4.485   3.536  14.527  0.4658  0.4402  0.2557
 1749TIP3    H126662   4.397   3.508  14.502  0.5334  1.1748 -0.8681
 1749TIP3    H226663   4.516   3.467  14.586 -0.0069 -0.9980 -1.1024
 1750TIP3   OH226664   6.146   2.173   0.744 -0.0226 -0.2595  0.2035
 1750TIP3    H126665   6.154   2.094   0.691 -0.1206 -1.2830  1.6458
 1750TIP3    H226666   6.055   2.174   0.773  0.3489 -0.4875  1.4458
 1751TIP3   OH226667   0.085   3.010   5.450  0.2100  0.1889  0.3233
 1751TIP3    H126668   0.031   2.939   5.414 -1.8355  2.2606 -1.0013
 1751TIP3    H226669   0.086   2.993   5.545 -1.3708 -0.8669  0.2003
 1752TIP3   OH226670   2.786   0.734  15.439  0.3191  0.3347  0.9076
 1752TIP3    H126671   2.818   0.662  15.385  1.5008  0.9968  0.6732
 1752TIP3    H226672   2.847   0.806  15.421 -0.5151  1.2224  1.5351
 1753TIP3   OH226673   4.157   1.432   0.078  0.3548 -0.6659 -0.3468
 1753TIP3    H126674   4.220   1.497   0.111 -0.5072 -0.1076  0.2260
 1753TIP3    H226675   4.073   1.478   0.077 -0.2432 -1.7162 -0.0945
 1754TIP3   OH226676   2.399   2.808   3.595 -0.1464 -0.4535  0.0785
 1754TIP3    H126677   2.310   2.806   3.630  0.7205  1.2816  2.7161
 1754TIP3    H226678   2.436   2.889   3.629  1.9198 -0.2158 -2.4423
 1755TIP3   OH226679   4.389   6.671  15.338 -0.2194 -0.1691 -0.0850
 1755TIP3    H126680   4.363   6.725  15.413 -1.7047 -1.0161  0.0519
 1755TIP3    H226681   4.485   6.670  15.341 -0.2398 -1.2675  2.6199
 1756TIP3   OH226682   0.776   5.095  13.332  0.3512  0.2371 -0.2556
 1756TIP3    H126683   0.707   5.067  13.271  0.0634 -0.1680  0.2532
 1756TIP3    H226684   0.729   5.122  13.411  0.8359 -1.2962  0.5923
 1757TIP3   OH226685   1.697   1.087  13.341 -0.3499 -0.0751 -0.3793
 1757TIP3    H126686   1.740   1.002  13.343  0.3799  0.2856 -0.4285
 1757TIP3    H226687   1.683   1.105  13.248 -1.1433 -0.4486 -0.3414
 1758TIP3   OH226688   6.311   0.218  16.838 -0.2616  0.0834  0.0570
 1758TIP3    H126689   6.305   0.138  16.890  0.3100  0.4834  0.7522
 1758TIP3    H226690   6.400   0.216  16.802 -0.1711  0.5198  0.2593
 1759TIP3   OH226691   1.914   2.000  14.963  0.2989  0.2224 -0.0255
 1759TIP3    H126692   1.885   1.968  15.048  0.5160  0.9041  0.3146
 1759TIP3    H226693   2.008   1.981  14.961 -0.1470 -2.2473 -1.2453
 1760TIP3   OH226694   5.861   3.451   0.432 -0.4266 -0.0625  0.0556
 1760TIP3    H126695   5.951   3.459   0.401 -0.8024 -1.1179 -1.4122
 1760TIP3    H226696   5.832   3.365   0.400 -2.0379  0.3683  0.2750
 1761TIP3   OH226697   4.986   6.549   6.933  0.3035 -0.2670 -0.1024
 1761TIP3    H126698   4.909   6.524   6.883  1.2374 -3.1733 -0.2257
 1761TIP3    H226699   5.038   6.602   6.873 -1.6360  2.0462  0.0918
 1762TIP3   OH226700   5.256   1.677  15.500  0.1053 -0.7812 -0.1031
 1762TIP3    H126701   5.227   1.764  15.526  0.5496 -0.6109 -0.1814
 1762TIP3    H226702   5.256   1.626  15.581 -2.7207 -1.4628 -0.4176
 1763TIP3   OH226703   6.153   2.891  10.969 -0.4498  0.3433 -0.1741
 1763TIP3    H126704   6.201   2.950  11.027  0.3211  0.8698 -1.3037
 1763TIP3    H226705   6.120   2.948  10.899  0.5225 -0.5697 -1.4178
 1764TIP3   OH226706   4.027   0.605  12.693  0.1556  0.7578 -0.9289
 1764TIP3    H126707   4.049   0.653  12.773  2.4228 -1.9763  0.2622
 1764TIP3    H226708   3.946   0.558  12.715 -0.2434  1.4331 -0.9245
 1765TIP3   OH226709   0.022   0.290   3.479 -0.4254 -0.3687  0.8978
 1765TIP3    H126710   0.081   0.224   3.516  0.5533  1.2534  2.3632
 1765TIP3    H226711  -0.059   0.280   3.529 -0.8819 -1.5424 -0.0346
 1766TIP3   OH226712   4.640   4.236  15.940  0.1191  0.2609  0.4820
 1766TIP3    H126713   4.624   4.209  16.030 -1.9398  2.2216  0.8183
 1766TIP3    H226714   4.726   4.278  15.941  0.9356 -1.3787  1.0820
 1767TIP3   OH226715   4.090   3.688   1.699  0.1123 -0.0565  0.0858
 1767TIP3    H126716   4.124   3.727   1.618  2.2685 -2.4576 -0.2822
 1767TIP3    H226717   4.066   3.599   1.674 -1.1021 -0.2045  1.6771
 1768TIP3   OH226718   5.946   2.723   1.531 -0.2702 -0.0819 -0.4532
 1768TIP3    H126719   5.875   2.785   1.513 -0.8210  0.3685  2.5956
 1768TIP3    H226720   6.019   2.753   1.477 -1.0279  2.2794 -0.3032
 1769TIP3   OH226721   6.118   0.864  16.245 -0.1470  0.0642  0.4175
 1769TIP3    H126722   6.079   0.945  16.210 -0.5567 -0.0926  0.5059
 1769TIP3    H226723   6.211   0.884  16.252  0.0467 -0.0656 -1.2682
 1770TIP3   OH226724   1.899   5.066   3.291 -0.3983 -0.0722  0.1502
 1770TIP3    H126725   1.863   5.126   3.226 -0.8630 -1.5616 -1.0323
 1770TIP3    H226726   1.826   5.044   3.348 -0.0289  1.1058  1.1200
 1771TIP3   OH226727   2.056   4.918   3.669  0.4398 -0.2753 -0.0133
 1771TIP3    H126728   2.051   4.985   3.600  0.8340 -0.9597 -0.7165
 1771TIP3    H226729   2.054   4.968   3.751 -0.6407  0.5114 -0.5030
 1772TIP3   OH226730   2.957   1.874   0.328 -0.1315  0.1613  0.1589
 1772TIP3    H126731   3.000   1.803   0.280 -2.1648 -0.8539 -0.2872
 1772TIP3    H226732   2.960   1.949   0.269 -2.1581 -0.9362 -1.4720
 1773TIP3   OH226733   2.899   1.694   4.427 -0.1205 -0.2112  0.3030
 1773TIP3    H126734   2.952   1.617   4.450  0.7658  0.1593 -0.4449
 1773TIP3    H226735   2.841   1.706   4.503 -0.7027 -1.9546  0.2017
 1774TIP3   OH226736   2.084   3.460   5.540 -0.1467 -0.0811  0.3464
 1774TIP3    H126737   2.023   3.405   5.490  2.2477 -2.4339 -0.2563
 1774TIP3    H226738   2.093   3.414   5.624  0.1498  0.7249  0.7652
 1775TIP3   OH226739   4.187   6.057   1.680  0.6584 -0.2335 -0.0919
 1775TIP3    H126740   4.123   6.114   1.638 -1.1299 -1.7034  0.4954
 1775TIP3    H226741   4.232   6.014   1.608  0.0965 -0.1117 -0.5260
 1776TIP3   OH226742   0.242   3.613   0.301  0.0569 -0.6307 -0.2746
 1776TIP3    H126743   0.221   3.552   0.231  1.1654 -1.4853  0.1057
 1776TIP3    H226744   0.242   3.560   0.381  0.8319 -0.1063  0.0911
 1777TIP3   OH226745   2.949   0.731   6.302 -0.0099 -0.0430 -0.9267
 1777TIP3    H126746   2.899   0.775   6.234  0.3592  0.0043 -1.1661
 1777TIP3    H226747   3.040   0.738   6.275  0.2570  1.0200  0.1647
 1778TIP3   OH226748   4.599   6.570   4.996  0.0624 -0.3769 -0.3224
 1778TIP3    H126749   4.593   6.657   5.034 -0.7562 -0.7050  0.3189
 1778TIP3    H226750   4.539   6.516   5.048  0.3253 -1.2559 -0.8997
 1779TIP3   OH226751   5.893   1.867  16.203  0.1823 -0.1806  0.1367
 1779TIP3    H126752   5.881   1.804  16.132  0.3206  0.5682 -0.5700
 1779TIP3    H226753   5.984   1.857  16.230 -0.2353 -1.4171  1.1529
 1780TIP3   OH226754   3.052   2.825  13.178 -0.2707 -0.3295  0.5314
 1780TIP3    H126755   3.111   2.781  13.239  1.5983  0.4762 -0.6229
 1780TIP3    H226756   3.069   2.783  13.093 -0.3419  0.8396 -0.0878
 1781TIP3   OH226757   4.738   1.586   2.464 -0.1258 -0.2341  0.5274
 1781TIP3    H126758   4.673   1.521   2.437  0.3135 -0.2425 -0.5861
 1781TIP3    H226759   4.811   1.573   2.403  0.0955  1.0953  0.4877
 1782TIP3   OH226760   1.097   0.595  14.407  0.3537 -0.0270  0.0238
 1782TIP3    H126761   1.159   0.628  14.472  1.5337  0.2844 -1.1957
 1782TIP3    H226762   1.134   0.624  14.323 -1.5534  0.3272 -0.7474
 1783TIP3   OH226763   4.276   1.128  16.232  0.6076  0.1316  0.3939
 1783TIP3    H126764   4.207   1.122  16.166  0.7889  1.6771  0.0253
 1783TIP3    H226765   4.335   1.056  16.211 -0.7020 -0.9994  0.5073
 1784TIP3   OH226766   3.054   4.901  16.477 -0.4818  0.4257 -0.3969
 1784TIP3    H126767   3.093   4.868  16.558 -1.7936 -2.8708 -0.9407
 1784TIP3    H226768   3.079   4.837  16.411 -1.8873  1.4258 -1.9750
 1785TIP3   OH226769   1.613   5.387   1.113  0.4340 -0.2761  0.8385
 1785TIP3    H126770   1.580   5.298   1.103  1.2621 -0.5539  0.4160
 1785TIP3    H226771   1.536   5.443   1.104  0.3704 -0.7052 -3.0683
 1786TIP3   OH226772   5.576   3.899   2.357  0.4064 -0.2850 -0.6034
 1786TIP3    H126773   5.507   3.907   2.292 -0.1220 -1.8382 -0.2864
 1786TIP3    H226774   5.557   3.967   2.421 -0.3219 -0.1373 -0.9702
 1787TIP3   OH226775   0.085   5.797   4.198 -1.0398 -0.2405 -0.5787
 1787TIP3    H126776   0.107   5.881   4.237  1.8077 -1.0869 -0.1070
 1787TIP3    H226777   0.107   5.807   4.105  2.9665 -1.3830  0.0496
 1788TIP3   OH226778   6.036   6.666   3.471  0.4704 -0.4409  0.1083
 1788TIP3    H126779   6.034   6.703   3.383 -0.0289  1.2730  0.8061
 1788TIP3    H226780   5.987   6.728   3.525 -0.6551 -2.2654  1.3118
 1789TIP3   OH226781   6.180   0.186   4.591  0.1967 -0.5508  0.2161
 1789TIP3    H126782   6.114   0.136   4.541  0.2049  0.1914 -0.5497
 1789TIP3    H226783   6.130   0.225   4.663 -0.4132  0.7655 -0.8830
 1790TIP3   OH226784   2.543   6.295  15.724 -0.2489 -0.4101  0.0912
 1790TIP3    H126785   2.533   6.202  15.744 -1.3487 -0.3485 -0.0934
 1790TIP3    H226786   2.577   6.333  15.806 -1.6231 -0.6831  0.8235
 1791TIP3   OH226787   4.003   5.590  13.512  1.2052  0.0769 -0.1536
 1791TIP3    H126788   4.047   5.667  13.476  0.0072  1.7420  1.7535
 1791TIP3    H226789   3.910   5.605  13.494  1.0984 -2.0262 -1.6606
 1792TIP3   OH226790   3.674   4.740   0.545  0.4021 -0.0499 -0.4461
 1792TIP3    H126791   3.726   4.668   0.508  1.3135  1.1437 -1.5973
 1792TIP3    H226792   3.729   4.777   0.613 -0.2955 -0.7398  0.5307
 1793TIP3   OH226793   5.985   1.090   3.382 -0.5929  0.1099 -0.5027
 1793TIP3    H126794   6.013   1.003   3.410 -1.0073 -0.4810 -1.8532
 1793TIP3    H226795   6.057   1.123   3.328 -0.5657  0.4843 -0.2429
 1794TIP3   OH226796   4.917   0.885  11.748  0.1883 -0.1748  0.4496
 1794TIP3    H126797   4.878   0.800  11.770 -0.6758  0.0291 -0.2743
 1794TIP3    H226798   4.866   0.949  11.798 -2.7368  0.4503 -2.9613
 1795TIP3   OH226799   6.130   4.957   4.869  0.2546 -0.4063  0.1581
 1795TIP3    H126800   6.130   4.887   4.804  0.8809 -0.7185  0.4937
 1795TIP3    H226801   6.222   4.969   4.892  0.9826  3.8405 -3.4652
 1796TIP3   OH226802   4.064   4.041   1.696  0.2243 -0.2718  0.0103
 1796TIP3    H126803   3.988   3.994   1.731  0.2216  0.3114  0.8032
 1796TIP3    H226804   4.139   3.998   1.737  0.2399  0.1726  0.4528
 1797TIP3   OH226805   6.575   5.011  10.688 -0.0668  0.3979  0.2876
 1797TIP3    H126806   6.572   5.024  10.593 -0.3745  0.3116  0.2850
 1797TIP3    H226807   6.484   5.022  10.716 -0.6632 -3.0292  0.1281
 1798TIP3   OH226808   1.620   4.094   2.498  0.0017  0.2563  0.2191
 1798TIP3    H126809   1.549   4.037   2.471  0.7766 -1.4682  1.5983
 1798TIP3    H226810   1.603   4.111   2.591 -1.0280  3.6190 -0.4230
 1799TIP3   OH226811   0.700   3.154  13.817 -0.1414 -0.1757 -0.1319
 1799TIP3    H126812   0.710   3.240  13.857 -2.5807 -0.0419  0.3552
 1799TIP3    H226813   0.742   3.162  13.732 -0.1956  1.4572 -0.0283
 1800TIP3   OH226814   5.402   3.891   0.628 -0.0545  0.1209  0.4762
 1800TIP3    H126815   5.335   3.878   0.560  0.4507  2.3031 -0.5247
 1800TIP3    H226816   5.397   3.812   0.681  0.2332 -2.2690 -2.7150
 1801TIP3   OH226817   6.054   2.124   2.754  0.4078  0.3335 -0.2726
 1801TIP3    H126818   6.110   2.078   2.691  1.4173  1.9014 -0.5847
 1801TIP3    H226819   6.080   2.088   2.839  2.1722  1.2059 -0.3778
 1802TIP3   OH226820   0.302   1.186  14.109  0.3564 -0.2316 -0.7145
 1802TIP3    H126821   0.240   1.120  14.139  2.4370 -2.7070 -1.4397
 1802TIP3    H226822   0.329   1.231  14.189 -1.6113  0.2793 -0.2878
 1803TIP3   OH226823   2.436   5.253  10.729 -0.5229  0.4870  0.1832
 1803TIP3    H126824   2.394   5.271  10.645  0.6575  2.0620 -0.1139
 1803TIP3    H226825   2.530   5.254  10.710 -0.2799 -1.0382  1.1807
 1804TIP3   OH226826   6.374   5.404  16.028  0.5925 -0.1362  0.5245
 1804TIP3    H126827   6.388   5.464  16.102  0.0518 -0.6417  1.0485
 1804TIP3    H226828   6.284   5.421  16.000  0.1276 -1.2944  1.2412
 1805TIP3   OH226829   4.093   6.070  14.519  0.0241  0.4025 -0.4481
 1805TIP3    H126830   4.029   6.000  14.531 -0.5924  1.1512  0.8505
 1805TIP3    H226831   4.095   6.085  14.424 -0.3865 -0.8357 -0.6734
 1806TIP3   OH226832   6.323   1.048   2.549  0.2310  0.3402  0.5225
 1806TIP3    H126833   6.285   0.982   2.607 -0.0877  0.0069 -0.0583
 1806TIP3    H226834   6.275   1.128   2.569  1.5548  0.7906  2.2397
 1807TIP3   OH226835   1.416   1.556  11.665  0.8420  0.3991  0.5900
 1807TIP3    H126836   1.424   1.506  11.746  3.6293 -0.4025 -0.0849
 1807TIP3    H226837   1.493   1.612  11.663  0.5179  0.8426 -1.2156
 1808TIP3   OH226838   4.877   3.959  13.778  0.5403 -0.7153 -0.1396
 1808TIP3    H126839   4.937   3.948  13.852  0.8136  0.2439 -0.1993
 1808TIP3    H226840   4.794   3.923  13.809 -0.0000  1.7063  1.5322
 1809TIP3   OH226841   4.060   1.219  11.133  0.2189  0.6158 -0.0443
 1809TIP3    H126842   4.084   1.210  11.041  1.2051  0.9405  0.1760
 1809TIP3    H226843   4.127   1.171  11.181 -0.7539 -0.2645  0.4739
 1810TIP3   OH226844   3.751   3.605  16.191 -0.1040  0.4137 -0.6804
 1810TIP3    H126845   3.822   3.619  16.253  0.2832 -1.3226 -0.6727
 1810TIP3    H226846   3.788   3.627  16.106  0.1997  0.2330 -0.5950
 1811TIP3   OH226847   0.813   1.888  11.665  0.0785  0.4597  0.4205
 1811TIP3    H126848   0.826   1.794  11.678 -1.1344  0.2246  0.1329
 1811TIP3    H226849   0.828   1.927  11.751 -1.2028 -0.2383  0.9977
 1812TIP3   OH226850   5.446   5.016   5.953  0.5294 -0.0785  0.6356
 1812TIP3    H126851   5.443   4.984   6.043  0.0703 -1.6989  0.0812
 1812TIP3    H226852   5.494   4.948   5.905  0.4990  0.6085 -0.4041
 1813TIP3   OH226853   4.956   5.290   0.703 -0.0159 -0.0210  0.3002
 1813TIP3    H126854   4.955   5.376   0.661  0.7288 -0.2666 -0.2249
 1813TIP3    H226855   4.864   5.263   0.705  0.0396 -0.7396 -2.6789
 1814TIP3   OH226856   3.532   0.547   3.659 -0.4787  0.1825 -0.2991
 1814TIP3    H126857   3.549   0.522   3.568 -1.7645 -1.0634 -0.2432
 1814TIP3    H226858   3.436   0.553   3.665 -0.3479  2.1653  0.5106
 1815TIP3   OH226859   6.016   5.195  16.522 -0.0764  0.0664 -0.2851
 1815TIP3    H126860   5.949   5.164  16.461 -1.8649  1.3022  0.9355
 1815TIP3    H226861   5.966   5.231  16.595  1.9032  2.1030  0.1697
 1816TIP3   OH226862   2.839   2.295   3.649 -0.1100  0.1896 -0.6719
 1816TIP3    H126863   2.820   2.287   3.743  0.0202 -2.2067 -0.7829
 1816TIP3    H226864   2.779   2.363   3.618 -2.6500 -1.3113  0.5460
 1817TIP3   OH226865   3.735   3.906  12.404  0.4411 -0.7529 -0.6289
 1817TIP3    H126866   3.752   3.902  12.310 -1.0349  0.5889 -0.9932
 1817TIP3    H226867   3.712   3.997  12.421  2.7097 -0.4617  1.4456
 1818TIP3   OH226868   3.910   3.973  15.147 -0.4570  0.2898  1.0460
 1818TIP3    H126869   3.944   3.959  15.235  1.5906  1.9685  0.6107
 1818TIP3    H226870   3.971   3.925  15.090 -1.2177 -0.0159  0.4741
 1819TIP3   OH226871   0.263   3.909  13.649  0.1406  0.0293 -0.3020
 1819TIP3    H126872   0.268   3.866  13.734 -0.1940  0.1300 -0.2314
 1819TIP3    H226873   0.221   3.993  13.666  2.7882  1.3839 -0.0712
 1820TIP3   OH226874   0.621   4.553  12.448 -0.0018  0.2551  0.0421
 1820TIP3    H126875   0.633   4.585  12.359  2.8677  0.6682  0.5001
 1820TIP3    H226876   0.636   4.630  12.504 -1.5471 -0.0388  0.9357
 1821TIP3   OH226877   6.053   1.081   2.067  0.1180 -0.3314 -0.5227
 1821TIP3    H126878   6.066   1.143   1.995  0.0001  2.0250  1.3414
 1821TIP3    H226879   6.138   1.039   2.079  0.0945 -0.8942 -2.1027
 1822TIP3   OH226880   6.433   2.603   0.757 -0.4371 -0.6037 -0.5552
 1822TIP3    H126881   6.393   2.683   0.789  0.0278 -0.7313  0.4004
 1822TIP3    H226882   6.366   2.563   0.701 -0.5704  0.5684 -1.2663
 1823TIP3   OH226883   6.794   2.405  13.478 -0.6657 -0.1379  0.4845
 1823TIP3    H126884   6.811   2.497  13.461  1.2440 -0.6155 -0.4673
 1823TIP3    H226885   6.862   2.379  13.540  1.0838 -1.7009 -1.9568
 1824TIP3   OH226886   3.312   0.114  16.640 -0.1577 -0.7211 -0.0240
 1824TIP3    H126887   3.262   0.098  16.719 -1.9476 -1.2464 -1.2051
 1824TIP3    H226888   3.393   0.157  16.670 -1.7290  1.1073  1.8681
 1825TIP3   OH226889   2.074   3.358   5.806  0.0812 -0.3528  0.2017
 1825TIP3    H126890   2.007   3.409   5.852 -0.5059 -1.1609  0.2690
 1825TIP3    H226891   2.157   3.395   5.835 -0.2951 -0.4739  1.4939
 1826TIP3   OH226892   6.639   0.540   2.731 -0.3229 -0.2099 -0.1679
 1826TIP3    H126893   6.703   0.596   2.686 -2.2492  0.0398 -2.8625
 1826TIP3    H226894   6.658   0.551   2.824  1.9953  1.6838 -0.7674
 1827TIP3   OH226895   5.139   2.390  12.495 -0.1129  0.5383  1.0729
 1827TIP3    H126896   5.059   2.339  12.504 -0.0307  0.0267 -0.7634
 1827TIP3    H226897   5.111   2.481  12.504 -1.2490  0.4878 -1.3007
 1828TIP3   OH226898   2.890   1.681   0.573  0.1491 -0.1423 -0.2451
 1828TIP3    H126899   2.819   1.622   0.546 -0.3826 -0.1807  1.1354
 1828TIP3    H226900   2.882   1.756   0.514  0.6241 -1.2804 -1.8037
 1829TIP3   OH226901   5.643   3.329  16.968 -0.1225 -0.0749 -0.4908
 1829TIP3    H126902   5.664   3.391  16.898 -1.4229  0.5989 -0.3034
 1829TIP3    H226903   5.669   3.244  16.932  0.7817  0.4536 -1.1287
 1830TIP3   OH226904   0.687   3.366  10.527  0.1067 -0.5227 -0.3340
 1830TIP3    H126905   0.619   3.340  10.465  0.0069 -0.7928 -0.1140
 1830TIP3    H226906   0.653   3.446  10.568 -0.3636 -0.9928  0.2173
 1831TIP3   OH226907   0.218   2.569  10.682  0.0638 -0.0438 -0.3578
 1831TIP3    H126908   0.280   2.622  10.631 -0.4469 -0.3848 -1.3679
 1831TIP3    H226909   0.138   2.569  10.629 -0.7571  0.2296  0.8250
 1832TIP3   OH226910   3.043   2.965   5.055 -0.4287  0.4848 -0.2304
 1832TIP3    H126911   2.957   2.949   5.016 -0.8983 -2.0486  1.6050
 1832TIP3    H226912   3.094   2.886   5.036  1.2209  1.5378 -0.4442
 1833TIP3   OH226913   3.191   5.537  14.242 -0.0276  0.3509  0.3883
 1833TIP3    H126914   3.108   5.498  14.269  0.0714 -1.2662 -1.4362
 1833TIP3    H226915   3.171   5.630  14.232 -0.9393  0.4262  2.3817
 1834TIP3   OH226916   5.237   0.958   3.177 -0.0901  0.1360 -0.5442
 1834TIP3    H126917   5.225   0.923   3.089 -0.0397  0.5180 -0.7033
 1834TIP3    H226918   5.326   0.933   3.201  1.2590  3.0442 -2.0074
 1835TIP3   OH226919   6.755   6.133   4.712  0.7299  0.5900  0.1940
 1835TIP3    H126920   6.665   6.101   4.719  0.4791  0.5901 -2.2605
 1835TIP3    H226921   6.748   6.228   4.716  0.5066  0.6229 -0.8392
 1836TIP3   OH226922   3.169   3.838   2.843 -0.3853  0.1599  0.2180
 1836TIP3    H126923   3.238   3.795   2.894 -1.3770 -0.4925  1.0519
 1836TIP3    H226924   3.185   3.932   2.855  0.5251  0.0243  0.1511
 1837TIP3   OH226925   5.800   4.872  12.508  0.1944  0.1104 -0.7289
 1837TIP3    H126926   5.711   4.907  12.509  0.3526  0.5051  0.0007
 1837TIP3    H226927   5.807   4.821  12.589  0.4844 -0.2971 -1.0084
 1838TIP3   OH226928   0.455   4.408   1.643 -0.4137  0.0283 -0.3965
 1838TIP3    H126929   0.530   4.388   1.699 -0.6755  1.7817  0.6547
 1838TIP3    H226930   0.427   4.495   1.671 -2.6333 -0.4360 -1.0257
 1839TIP3   OH226931   2.336   3.945  13.516 -0.3409 -0.6145 -0.6808
 1839TIP3    H126932   2.341   3.986  13.431  0.1145 -2.1358 -1.4302
 1839TIP3    H226933   2.349   4.016  13.579  0.1317  0.3863 -1.8874
 1840TIP3   OH226934   4.398   3.196  15.452  0.0873  0.3092 -0.0473
 1840TIP3    H126935   4.327   3.201  15.515  0.8574  0.8003  0.7973
 1840TIP3    H226936   4.355   3.209  15.367 -1.1425 -1.6686  0.2207
 1841TIP3   OH226937   0.243   0.958   4.632 -0.3736  0.2447 -0.7160
 1841TIP3    H126938   0.337   0.938   4.631 -0.1796  1.1311 -1.4929
 1841TIP3    H226939   0.212   0.936   4.545 -0.8758  0.0493 -0.4942
 1842TIP3   OH226940   0.491   2.869  11.182 -0.3478 -0.4896 -0.3392
 1842TIP3    H126941   0.420   2.841  11.240  0.8194 -1.5603  0.6494
 1842TIP3    H226942   0.555   2.908  11.241  0.0799  0.0600 -1.1599
 1843TIP3   OH226943   5.945   3.003   0.658 -0.1197 -0.4979  0.0145
 1843TIP3    H126944   5.996   2.943   0.604  1.0972 -0.4646  1.0838
 1843TIP3    H226945   5.888   2.946   0.711  1.1224 -0.7481  1.1189
 1844TIP3   OH226946   2.383   6.389   1.302 -0.5388  0.9439  0.3075
 1844TIP3    H126947   2.348   6.377   1.390  1.6814 -1.4481  0.9686
 1844TIP3    H226948   2.459   6.447   1.315  0.5855 -0.4714  0.2307
 1845TIP3   OH226949   1.512   1.333  16.260 -0.0240  0.3638  0.4018
 1845TIP3    H126950   1.546   1.422  16.247 -0.2594  0.4397  0.2936
 1845TIP3    H226951   1.533   1.287  16.179 -1.4448  0.8222 -0.2697
 1846TIP3   OH226952   0.240   0.185   5.093 -0.2054 -0.1988  0.0629
 1846TIP3    H126953   0.173   0.253   5.093 -0.3679 -0.3597  0.2535
 1846TIP3    H226954   0.209   0.120   5.031  0.4215  0.3605 -0.8679
 1847TIP3   OH226955   4.697   5.997  14.106 -0.1860  0.5183 -0.1264
 1847TIP3    H126956   4.756   6.071  14.122 -0.1792  0.5961 -0.5144
 1847TIP3    H226957   4.755   5.922  14.097 -0.2614  0.1578  1.8979
 1848TIP3   OH226958   1.364   3.341   4.576 -0.0911  0.1527  0.2922
 1848TIP3    H126959   1.354   3.256   4.618 -0.3955 -1.0905 -2.1508
 1848TIP3    H226960   1.368   3.322   4.482  1.2143  2.7123 -0.2662
 1849TIP3   OH226961   6.416   3.269   1.276 -0.0701 -0.0942 -0.0257
 1849TIP3    H126962   6.431   3.319   1.356 -1.0395  0.4246 -0.1418
 1849TIP3    H226963   6.492   3.286   1.221 -1.0000  2.5064 -0.6680
 1850TIP3   OH226964   0.170   4.011   2.382 -0.8340  0.2132  0.1003
 1850TIP3    H126965   0.175   4.037   2.474  1.0969  0.1067  0.0559
 1850TIP3    H226966   0.230   4.070   2.337 -1.5129  0.0497 -1.0671
 1851TIP3   OH226967   1.049   5.801  15.170 -0.6535  0.2551  0.0781
 1851TIP3    H126968   1.010   5.851  15.241 -2.9312  1.3977 -1.8213
 1851TIP3    H226969   1.133   5.844  15.153  0.5167 -0.7715  2.7268
 1852TIP3   OH226970   1.335   5.686  16.691 -0.0340  0.1948 -0.0252
 1852TIP3    H126971   1.401   5.660  16.755 -1.0285 -0.4033  0.8113
 1852TIP3    H226972   1.256   5.637  16.718 -0.7573  0.7417 -1.0887
 1853TIP3   OH226973   0.650   5.796  13.629  0.2567  0.3941  0.5303
 1853TIP3    H126974   0.642   5.883  13.590 -1.7110 -0.3783 -0.9203
 1853TIP3    H226975   0.577   5.746  13.593  0.9992 -1.7208  1.7623
 1854TIP3   OH226976   6.652   0.578   4.218  0.3140  0.0402 -0.1144
 1854TIP3    H126977   6.643   0.644   4.286 -0.6663 -0.9515  0.7566
 1854TIP3    H226978   6.608   0.617   4.142 -1.8176 -0.2586  0.8957
 1855TIP3   OH226979   5.582   1.066   4.738  0.7728 -0.0077 -0.3481
 1855TIP3    H126980   5.638   1.138   4.768 -0.9940  0.9570  0.8406
 1855TIP3    H226981   5.523   1.106   4.674 -0.1197 -0.3986  0.1987
 1856TIP3   OH226982   2.230   3.847   3.173  0.0929  0.2872 -0.7344
 1856TIP3    H126983   2.135   3.849   3.168 -0.0114  1.2669  0.9093
 1856TIP3    H226984   2.249   3.779   3.237  0.4568  0.6070 -0.4971
 1857TIP3   OH226985   5.843   1.648  14.149 -0.1586  0.4038  0.5065
 1857TIP3    H126986   5.769   1.655  14.209  0.5050 -0.4957  1.4553
 1857TIP3    H226987   5.917   1.686  14.196  0.3744 -0.3277  0.2790
 1858TIP3   OH226988   2.757   4.220   3.326 -0.0305 -0.1726  0.2167
 1858TIP3    H126989   2.676   4.263   3.299 -0.2422  0.0562  1.2040
 1858TIP3    H226990   2.792   4.276   3.396  1.2316 -0.0001 -0.5126
 1859TIP3   OH226991   4.909   6.253   1.690  0.4722 -0.1581  0.4844
 1859TIP3    H126992   4.848   6.265   1.763 -0.9619 -0.6317 -0.6024
 1859TIP3    H226993   4.934   6.343   1.665  0.0369  0.0520  0.7908
 1860TIP3   OH226994   5.607   6.749   1.325  0.1006 -0.1322  0.5367
 1860TIP3    H126995   5.538   6.730   1.388 -1.2317  1.1141 -0.4971
 1860TIP3    H226996   5.586   6.836   1.291  0.1247 -1.1657 -2.4147
 1861TIP3   OH226997   4.465   1.826   5.769  0.6367  0.0431  0.7571
 1861TIP3    H126998   4.468   1.842   5.675  0.4762  1.7466  1.0164
 1861TIP3    H226999   4.479   1.912   5.809 -2.0814 -0.1058  2.2840
 1862TIP3   OH227000   5.845   0.031   3.293  0.1375  0.3723 -0.2562
 1862TIP3    H127001   5.847   0.003   3.201  1.0199  2.4187 -0.9235
 1862TIP3    H227002   5.930   0.074   3.307  0.3901 -0.6796  1.8035
 1863TIP3   OH227003   3.341   1.101  13.528 -0.1139 -0.5004  0.6385
 1863TIP3    H127004   3.266   1.112  13.470  0.0992 -0.6489  0.3324
 1863TIP3    H227005   3.307   1.122  13.615 -0.5485 -0.7201  0.5272
 1864TIP3   OH227006   4.436   3.798  11.922  0.3003  0.1030  0.2701
 1864TIP3    H127007   4.416   3.797  12.016 -1.1711 -0.5912 -0.0203
 1864TIP3    H227008   4.434   3.891  11.898  0.8827  0.2973  0.9628
 1865TIP3   OH227009   6.353   5.639   6.029 -0.0275  0.1218  0.1678
 1865TIP3    H127010   6.372   5.727   6.061 -1.9531  1.0010 -0.8804
 1865TIP3    H227011   6.327   5.590   6.107  3.0761 -0.2084  1.1015
 1866TIP3   OH227012   0.837   4.273  15.404  0.0482 -0.0614 -0.0438
 1866TIP3    H127013   0.873   4.297  15.319 -0.4948 -0.1720 -0.3136
 1866TIP3    H227014   0.858   4.346  15.461  1.4860 -0.5201  0.0497
 1867TIP3   OH227015   2.370   6.516  11.133  0.4857 -0.0915 -0.3606
 1867TIP3    H127016   2.391   6.601  11.094 -1.8687  0.3953 -0.7193
 1867TIP3    H227017   2.311   6.474  11.070 -1.1563 -0.4897  1.3584
 1868TIP3   OH227018   6.515   4.593  16.646  1.0465 -0.0273  0.1853
 1868TIP3    H127019   6.597   4.547  16.625  1.8909  1.1021  0.8656
 1868TIP3    H227020   6.490   4.636  16.565  1.1604 -0.3194 -0.0070
 1869TIP3   OH227021   6.554   0.866  14.432  0.1609 -0.3437  0.1608
 1869TIP3    H127022   6.526   0.953  14.405  0.6911 -0.2030  0.0381
 1869TIP3    H227023   6.645   0.878  14.460  0.3612 -0.9215 -0.2238
 1870TIP3   OH227024   1.078   2.983   3.267  1.1039 -0.1662 -0.0377
 1870TIP3    H127025   0.992   2.977   3.308  1.4964  0.5397  0.9046
 1870TIP3    H227026   1.085   3.075   3.240  0.8739 -0.5925 -1.6788
 1871TIP3   OH227027   0.115   4.770  11.482  0.0756  0.1281 -0.3998
 1871TIP3    H127028   0.041   4.711  11.497 -0.2776  0.3403 -1.2070
 1871TIP3    H227029   0.183   4.740  11.542 -0.2407 -0.8440 -0.5054
 1872TIP3   OH227030   5.931   1.110  16.438  0.8896 -0.1635 -0.2763
 1872TIP3    H127031   5.995   1.157  16.492 -1.9843  1.9220  1.6066
 1872TIP3    H227032   5.881   1.180  16.395 -1.6927 -1.5145  0.3435
 1873TIP3   OH227033   5.373   2.684  11.910  0.3839  0.3339  0.5531
 1873TIP3    H127034   5.434   2.758  11.910  1.3093 -0.4211  0.0524
 1873TIP3    H227035   5.426   2.608  11.888 -1.0087 -0.1087 -1.5416
 1874TIP3   OH227036   0.759   2.983   2.438  0.1664 -0.0504 -0.0537
 1874TIP3    H127037   0.766   3.004   2.345 -0.7283 -1.2483 -0.4084
 1874TIP3    H227038   0.766   2.888   2.442 -1.1740 -0.1342  0.9590
 1875TIP3   OH227039   3.562   3.575   5.227 -0.5570  0.0829  0.3123
 1875TIP3    H127040   3.473   3.555   5.199 -0.8884 -0.4821  1.6877
 1875TIP3    H227041   3.615   3.567   5.148 -1.4504 -1.4383 -0.1610
 1876TIP3   OH227042   3.941   5.575   3.434  0.0245 -0.2594  0.0194
 1876TIP3    H127043   4.006   5.618   3.489  1.2402  0.9996 -2.2654
 1876TIP3    H227044   3.992   5.530   3.367 -1.4212 -0.6703 -0.8594
 1877TIP3   OH227045   5.614   0.080  10.941 -0.6634 -0.2538 -0.1597
 1877TIP3    H127046   5.659   0.001  10.912  0.0173  0.6323 -1.6366
 1877TIP3    H227047   5.672   0.117  11.008 -0.0466 -0.0680 -0.7758
 1878TIP3   OH227048   2.670   0.023   0.460  0.3180  0.8551  0.1808
 1878TIP3    H127049   2.628  -0.063   0.471 -0.0562  0.9120 -0.7306
 1878TIP3    H227050   2.757   0.012   0.499 -0.3272  0.5698  1.5832
 1879TIP3   OH227051   3.667   6.130  16.460  0.3005 -0.3980  0.7888
 1879TIP3    H127052   3.590   6.116  16.404  0.0257  0.0025  1.0657
 1879TIP3    H227053   3.714   6.047  16.456  1.4805  0.3051 -1.8356
 1880TIP3   OH227054   2.618   6.066   4.617 -0.0519 -0.1883 -0.2164
 1880TIP3    H127055   2.617   6.036   4.708 -1.2534 -0.1373 -0.2032
 1880TIP3    H227056   2.553   6.136   4.613  0.5475  0.3527 -0.9474
 1881TIP3   OH227057   1.788   0.256  16.484  0.2399  0.2338 -0.1722
 1881TIP3    H127058   1.701   0.290  16.464  0.7635  1.4812 -0.3837
 1881TIP3    H227059   1.817   0.215  16.403 -0.0774 -0.0307 -0.1543
 1882TIP3   OH227060   6.514   0.293   2.710 -0.0694  0.0339  0.1301
 1882TIP3    H127061   6.547   0.382   2.700  0.5866 -0.3135 -1.0933
 1882TIP3    H227062   6.495   0.264   2.620 -1.0357 -0.7804  0.5749
 1883TIP3   OH227063   5.767   6.766  12.071  0.1017  0.4054  0.2279
 1883TIP3    H127064   5.776   6.675  12.096 -1.0095 -0.0722 -0.9831
 1883TIP3    H227065   5.831   6.778  12.000 -1.0894 -0.0152 -0.9678
 1884TIP3   OH227066   2.467   4.711   6.452  0.3203 -0.0397  0.5006
 1884TIP3    H127067   2.479   4.641   6.388  1.2835 -0.7864  1.4436
 1884TIP3    H227068   2.376   4.737   6.443  0.0815 -1.0550 -0.2383
 1885TIP3   OH227069   6.747   2.384  11.970  0.2290 -0.2520  0.0591
 1885TIP3    H127070   6.704   2.389  11.885  1.2290 -0.8375 -0.5022
 1885TIP3    H227071   6.743   2.291  11.994 -0.5181 -0.0123  0.9125
 1886TIP3   OH227072   3.257   4.276   0.090  0.1804 -0.4468  0.3295
 1886TIP3    H127073   3.351   4.261   0.095  0.4011  0.9311  0.8609
 1886TIP3    H227074   3.241   4.347   0.152 -0.9948  0.2116 -0.6725
 1887TIP3   OH227075   0.892   3.870  13.872  0.5342  0.1901 -0.0716
 1887TIP3    H127076   0.913   3.953  13.831 -0.5421 -0.1126 -1.3026
 1887TIP3    H227077   0.797   3.863  13.865  0.7510 -2.1580 -2.1257
 1888TIP3   OH227078   6.692   3.845  13.381  0.5447 -0.1205  0.1799
 1888TIP3    H127079   6.660   3.760  13.353  1.4628  0.0888 -1.6319
 1888TIP3    H227080   6.662   3.907  13.314  3.0195  0.3591 -0.6001
 1889TIP3   OH227081   6.302   4.083  11.609  0.1315 -0.1868 -0.5112
 1889TIP3    H127082   6.256   4.153  11.562 -1.8100 -1.0824 -0.0276
 1889TIP3    H227083   6.289   4.103  11.702  2.7774  0.8094 -0.2549
 1890TIP3   OH227084   1.370   4.908   3.356 -0.0550  0.3246  0.5263
 1890TIP3    H127085   1.459   4.926   3.325  0.1346 -0.2225  0.7264
 1890TIP3    H227086   1.354   4.817   3.329 -0.7880  0.6121 -0.0414
 1891TIP3   OH227087   6.555   5.389  14.447 -0.8280  0.1444 -0.4908
 1891TIP3    H127088   6.629   5.338  14.477 -0.7593  1.3414  1.5544
 1891TIP3    H227089   6.543   5.363  14.355  0.9760 -1.3521 -0.3522
 1892TIP3   OH227090   2.129   1.454  13.244  0.6841 -0.6760  0.2195
 1892TIP3    H127091   2.195   1.509  13.203 -0.8665  0.0439 -1.4826
 1892TIP3    H227092   2.050   1.468  13.191 -0.0728 -3.7320  0.3611
 1893TIP3   OH227093   3.468   5.276   2.323 -0.2178 -0.0021  0.1668
 1893TIP3    H127094   3.418   5.337   2.268  1.3888 -0.7736 -2.3147
 1893TIP3    H227095   3.558   5.281   2.289  0.6244 -1.4158  1.9973
 1894TIP3   OH227096   1.107   4.844   1.720 -0.1823 -0.2825 -0.5839
 1894TIP3    H127097   1.186   4.851   1.773 -0.5088 -0.4766 -0.0695
 1894TIP3    H227098   1.139   4.845   1.630  0.2596  1.5385 -0.4345
 1895TIP3   OH227099   3.933   1.588   0.707 -0.4227  0.3864  0.4174
 1895TIP3    H127100   3.914   1.681   0.722 -0.2357  0.5815 -0.4763
 1895TIP3    H227101   3.962   1.555   0.792  1.7942  1.7264  0.2756
 1896TIP3   OH227102   6.589   5.829  13.090  0.2501 -0.1669  0.3092
 1896TIP3    H127103   6.578   5.800  12.999 -0.8848  0.4491  0.2327
 1896TIP3    H227104   6.605   5.748  13.139 -0.0335 -0.6087 -0.3162
 1897TIP3   OH227105   4.853   3.297   4.402 -0.2177  0.1967 -0.2392
 1897TIP3    H127106   4.852   3.210   4.442 -2.7597  0.1933 -0.1201
 1897TIP3    H227107   4.824   3.356   4.471 -1.6264  0.6371 -1.1526
 1898TIP3   OH227108   5.729   1.769   5.636 -0.0778  0.5368 -0.2747
 1898TIP3    H127109   5.662   1.732   5.578 -0.0178  1.9765 -1.3122
 1898TIP3    H227110   5.680   1.818   5.702 -0.0992 -0.2174  0.2933
 1899TIP3   OH227111   6.788   5.018  14.114  0.1744 -0.4210 -0.1651
 1899TIP3    H127112   6.841   5.050  14.041  1.2669 -1.4205  0.1602
 1899TIP3    H227113   6.712   4.977  14.073 -0.2826  0.8553 -0.6439
 1900TIP3   OH227114   2.413   0.701  11.881  0.6454 -0.7409  0.4942
 1900TIP3    H127115   2.500   0.736  11.897  0.1789 -0.2384  2.1888
 1900TIP3    H227116   2.381   0.675  11.968 -0.8979 -0.8949 -0.0791
 1901TIP3   OH227117   2.171   4.900   5.426 -0.5953  0.1268  0.4361
 1901TIP3    H127118   2.211   4.911   5.512 -0.7053 -0.8551  0.6240
 1901TIP3    H227119   2.097   4.961   5.425 -0.2852  0.5037  0.8468
 1902TIP3   OH227120   4.441   3.092   6.298  0.4403 -0.1616  0.0187
 1902TIP3    H127121   4.452   2.997   6.295  0.9634 -0.1375  0.8238
 1902TIP3    H227122   4.480   3.118   6.382  0.0058  0.7234 -0.0424
 1903TIP3   OH227123   2.045   3.137  15.528 -0.6688  0.3202 -0.2229
 1903TIP3    H127124   2.086   3.219  15.501  0.0213 -0.1991 -0.7875
 1903TIP3    H227125   1.952   3.160  15.537 -0.4092  1.2861  0.1641
 1904TIP3   OH227126   5.618   4.468  15.469  0.0955  0.0212 -0.3856
 1904TIP3    H127127   5.626   4.410  15.393  0.3450  0.0830 -0.4082
 1904TIP3    H227128   5.658   4.419  15.541 -1.2634 -0.5696  0.0091
 1905TIP3   OH227129   3.426   6.065  11.580  0.0170 -0.0750  0.2344
 1905TIP3    H127130   3.512   6.108  11.581  0.0187 -0.0733  1.0039
 1905TIP3    H227131   3.438   5.988  11.524 -0.1294  1.1917 -1.5880
 1906TIP3   OH227132   3.546   1.259   0.138  0.1594  0.0791  0.6186
 1906TIP3    H127133   3.522   1.185   0.195 -0.4798 -1.7413 -1.8129
 1906TIP3    H227134   3.495   1.332   0.172 -1.9878 -1.4891  1.0312
 1907TIP3   OH227135   2.294   1.321  16.525 -0.4446 -0.6708  0.0955
 1907TIP3    H127136   2.310   1.277  16.608  2.8477  1.7538  0.9456
 1907TIP3    H227137   2.371   1.301  16.472 -0.2770  1.5098 -0.5803
 1908TIP3   OH227138   5.132   0.374  10.674 -0.7222  0.0198 -0.4116
 1908TIP3    H127139   5.181   0.455  10.691 -1.2293  0.3407 -0.4546
 1908TIP3    H227140   5.040   0.398  10.687 -0.9609 -0.2779 -1.4331
 1909TIP3   OH227141   3.500   1.942  12.060  0.3096  0.0682  0.1098
 1909TIP3    H127142   3.559   1.882  12.105  1.0613 -0.2088 -1.1903
 1909TIP3    H227143   3.412   1.911  12.081  0.6002  0.3355  1.8742
 1910TIP3   OH227144   6.702   0.825  15.342 -0.8853  0.3959  0.2471
 1910TIP3    H127145   6.697   0.863  15.430 -2.3041 -0.8975  0.7531
 1910TIP3    H227146   6.633   0.760  15.340  0.5816 -1.2090 -1.0676
 1911TIP3   OH227147   4.951   6.337  14.388 -0.2886  0.3443 -0.0606
 1911TIP3    H127148   4.991   6.327  14.302 -0.5640  1.1386 -0.2952
 1911TIP3    H227149   4.857   6.345  14.370 -0.5346 -1.1824  0.4562
 1912TIP3   OH227150   2.154   5.153   1.330  0.2239  0.0057  0.4425
 1912TIP3    H127151   2.201   5.081   1.289 -2.2880 -1.1867 -0.5517
 1912TIP3    H227152   2.171   5.143   1.424 -1.2697 -2.8924  0.4933
 1913TIP3   OH227153   5.817   5.039  13.577 -0.2908 -0.0602 -0.4612
 1913TIP3    H127154   5.737   5.079  13.610  0.9934  1.2762  1.1766
 1913TIP3    H227155   5.886   5.101  13.599  1.1647 -0.9350 -2.2884
 1914TIP3   OH227156   1.783   2.571   4.133  0.1616  0.4473  0.1745
 1914TIP3    H127157   1.729   2.644   4.163  1.0101  1.6384 -1.0585
 1914TIP3    H227158   1.863   2.612   4.101  0.5068 -0.9986 -0.9278
 1915TIP3   OH227159   0.058   2.940   6.825 -0.2237  0.0498 -0.3211
 1915TIP3    H127160   0.126   2.930   6.758 -1.1496  1.9130 -1.6220
 1915TIP3    H227161   0.029   2.850   6.843  2.1166 -0.7487 -0.1576
 1916TIP3   OH227162   3.150   3.386   6.365 -0.7198  0.8148 -0.5777
 1916TIP3    H127163   3.054   3.389   6.360 -0.6870  0.6827 -1.4612
 1916TIP3    H227164   3.179   3.457   6.308 -0.2889  1.1187  0.0082
 1917TIP3   OH227165   6.474   0.110  14.642 -0.7014 -0.2547  0.4374
 1917TIP3    H127166   6.532   0.109  14.565 -0.0297 -0.8279  0.9404
 1917TIP3    H227167   6.386   0.096  14.605 -0.5857  1.0089 -0.3654
 1918TIP3   OH227168   3.626   0.933  11.425  0.0175  0.8003  1.0170
 1918TIP3    H127169   3.604   0.848  11.463  0.2426 -0.1564 -0.8735
 1918TIP3    H227170   3.708   0.918  11.379  0.0725  2.0545  0.6675
 1919TIP3   OH227171   5.382   4.339  13.242  0.0929 -0.5120 -0.3073
 1919TIP3    H127172   5.384   4.287  13.162  1.3120  0.2321 -0.7936
 1919TIP3    H227173   5.296   4.382  13.241  0.6192  0.6063 -1.9944
 1920TIP3   OH227174   1.642   2.204   1.299  0.1015 -0.3925 -0.6636
 1920TIP3    H127175   1.589   2.131   1.267 -2.0350  0.6045  0.4544
 1920TIP3    H227176   1.680   2.171   1.381  0.0950 -0.6261 -0.7535
 1921TIP3   OH227177   2.459   2.669   2.832  0.2566 -0.0746 -0.5340
 1921TIP3    H127178   2.387   2.616   2.866  1.1368 -0.4251  0.8237
 1921TIP3    H227179   2.468   2.641   2.741 -1.9800  0.7074 -1.0588
 1922TIP3   OH227180   2.805   6.447   4.296  0.0812 -0.2763 -0.4236
 1922TIP3    H127181   2.771   6.362   4.268  0.9887 -0.3089 -1.5023
 1922TIP3    H227182   2.857   6.478   4.222  1.4937  0.2553  0.7284
 1923TIP3   OH227183   0.549   6.124  12.998  0.2426  0.0500  0.2099
 1923TIP3    H127184   0.490   6.171  13.057 -0.2310  0.1230 -0.3155
 1923TIP3    H227185   0.573   6.045  13.047  0.9516  0.7642  1.0553
 1924TIP3   OH227186   0.573   0.054   1.389  0.5601  0.1241 -0.3144
 1924TIP3    H127187   0.495   0.089   1.346  0.0108  0.2531  0.7716
 1924TIP3    H227188   0.592  -0.026   1.340 -0.5866 -0.2087 -0.2568
 1925TIP3   OH227189   2.406   0.461   3.950  0.1783  0.1543 -0.2795
 1925TIP3    H127190   2.328   0.416   3.984 -0.7398  0.6773 -1.6162
 1925TIP3    H227191   2.372   0.539   3.907  1.6208  1.4193  0.7430
 1926TIP3   OH227192   4.301   1.489   4.242  0.1611  0.6345  0.1080
 1926TIP3    H127193   4.363   1.561   4.236  1.1477  0.0454  2.2702
 1926TIP3    H227194   4.232   1.522   4.299  0.1301  0.1971  0.3273
 1927TIP3   OH227195   3.604   4.269  12.066 -0.0348  0.2352 -0.3481
 1927TIP3    H127196   3.637   4.339  12.122 -0.0841  0.5937 -0.7547
 1927TIP3    H227197   3.679   4.244  12.012  0.0518 -0.2076 -0.0235
 1928TIP3   OH227198   1.755   1.967   5.165 -0.1288  0.3248  0.2348
 1928TIP3    H127199   1.789   2.056   5.166 -1.8850  1.0371  0.2335
 1928TIP3    H227200   1.830   1.912   5.191  1.0841  1.7313 -0.1526
 1929TIP3   OH227201   5.852   1.414   5.361 -0.0963  0.8282  0.1870
 1929TIP3    H127202   5.890   1.335   5.322  1.9039  1.3283  1.0462
 1929TIP3    H227203   5.761   1.389   5.378  0.0263 -0.7088 -1.1213
 1930TIP3   OH227204   3.486   3.527  13.278 -0.2251  0.6068 -0.0640
 1930TIP3    H127205   3.464   3.539  13.185 -0.0394  2.2195  0.0726
 1930TIP3    H227206   3.424   3.582  13.324 -1.1729 -1.1981  0.8968
 1931TIP3   OH227207   3.225   2.623  12.300  0.3807 -0.3538 -0.2662
 1931TIP3    H127208   3.268   2.693  12.348 -2.0710  1.3609 -0.3642
 1931TIP3    H227209   3.174   2.576  12.367 -0.8130  0.2602 -0.7147
 1932TIP3   OH227210   4.436   3.161   5.949  0.1248 -0.6398  0.5103
 1932TIP3    H127211   4.508   3.181   6.009  1.0514  1.4082 -1.1472
 1932TIP3    H227212   4.357   3.187   5.996  0.8066  0.7799  0.9288
 1933TIP3   OH227213   2.950   4.296  11.349 -0.1214  0.0399 -0.0108
 1933TIP3    H127214   2.879   4.239  11.377 -1.9997  1.9905 -0.5392
 1933TIP3    H227215   3.029   4.254  11.382 -1.4484 -2.4397  0.2325
 1934TIP3   OH227216   1.527   2.668  16.841 -0.1710  0.1646 -0.1893
 1934TIP3    H127217   1.620   2.647  16.847 -0.4742 -0.9781  0.8004
 1934TIP3    H227218   1.516   2.744  16.899  0.3105  0.9758 -1.1251
 1935TIP3   OH227219   1.033   3.130  13.317 -0.2483 -0.0452  0.1447
 1935TIP3    H127220   0.977   3.055  13.339 -0.6757  0.3599  0.4429
 1935TIP3    H227221   1.083   3.100  13.241 -1.7346  0.0008 -0.9101
 1936TIP3   OH227222   5.201   5.690  12.194 -0.6887  0.2767  0.2887
 1936TIP3    H127223   5.183   5.783  12.181  2.3565  0.9755  0.2154
 1936TIP3    H227224   5.210   5.655  12.105  2.2795  0.9640  0.2071
 1937TIP3   OH227225   2.348   1.896  14.622  0.0741  0.8847 -0.3529
 1937TIP3    H127226   2.344   1.989  14.598  1.4362  0.6596 -1.5889
 1937TIP3    H227227   2.404   1.894  14.700 -0.5177  1.1450  0.0927
 1938TIP3   OH227228   4.535   6.479  11.618  0.1400 -0.2080 -0.7877
 1938TIP3    H127229   4.477   6.496  11.692  1.2268  0.1697  0.0068
 1938TIP3    H227230   4.582   6.561  11.604  1.3952 -0.8515 -0.5747
 1939TIP3   OH227231   6.297   0.755  14.473 -0.1890  0.5403 -0.3621
 1939TIP3    H127232   6.226   0.800  14.428 -0.2754 -0.5651 -1.3788
 1939TIP3    H227233   6.375   0.805  14.450 -0.3685  0.5848 -0.8773
 1940TIP3   OH227234   1.296   5.838   3.937 -0.4801 -0.2479  0.6879
 1940TIP3    H127235   1.353   5.788   3.995  0.1356 -0.0094  0.3030
 1940TIP3    H227236   1.322   5.811   3.849 -0.9121 -0.0827  0.5102
 1941TIP3   OH227237   3.229   3.555   1.684  0.2604 -0.4631 -0.3724
 1941TIP3    H127238   3.175   3.544   1.762  0.8458 -1.0382 -0.0349
 1941TIP3    H227239   3.186   3.624   1.634  0.7371  1.0658  1.2246
 1942TIP3   OH227240   5.165   1.950   3.664 -0.0262  0.5113  0.2591
 1942TIP3    H127241   5.076   1.937   3.698 -0.2173  2.7457  0.7759
 1942TIP3    H227242   5.155   1.952   3.569 -0.4008 -0.0256  0.2855
 1943TIP3   OH227243   0.068   1.616   1.027 -0.0754 -0.2167  0.0704
 1943TIP3    H127244   0.153   1.660   1.035 -0.1829  0.0443 -0.2018
 1943TIP3    H227245   0.085   1.525   1.052  0.2623 -0.1427  0.1103
 1944TIP3   OH227246   4.257   5.188   2.449 -0.1722  0.5322 -0.2577
 1944TIP3    H127247   4.281   5.100   2.422  3.0676  0.7459  1.4182
 1944TIP3    H227248   4.171   5.179   2.490  0.3416 -1.9404  0.3819
 1945TIP3   OH227249   4.190   6.021   3.989 -0.2763 -0.2203  0.2457
 1945TIP3    H127250   4.246   5.971   3.930 -0.1116  0.8788 -0.5587
 1945TIP3    H227251   4.165   6.099   3.939 -0.3119  0.6425  1.5522
 1946TIP3   OH227252   1.349   1.522   1.648  0.1006  0.0061 -0.8208
 1946TIP3    H127253   1.345   1.434   1.612 -0.1155 -1.0571  1.6491
 1946TIP3    H227254   1.261   1.557   1.634  0.4063  0.1870 -2.5247
 1947TIP3   OH227255   1.925   0.752   0.597 -0.2215  0.4683  0.5948
 1947TIP3    H127256   1.982   0.779   0.525 -0.2498 -2.0317 -0.4498
 1947TIP3    H227257   1.978   0.767   0.676 -0.0166  2.8073  0.0877
 1948TIP3   OH227258   2.977   2.398  13.111 -0.0748  0.6173 -0.1490
 1948TIP3    H127259   2.978   2.485  13.150 -1.9130  0.7460 -0.3079
 1948TIP3    H227260   3.009   2.411  13.022  2.4045  0.6145  0.6547
 1949TIP3   OH227261   3.366   2.624  14.701 -0.3098 -0.2843 -0.3492
 1949TIP3    H127262   3.412   2.637  14.618 -0.3453  0.8457 -0.2124
 1949TIP3    H227263   3.385   2.703  14.751 -0.3763 -0.9090  0.6820
 1950TIP3   OH227264   6.616   3.603  13.313 -0.1414 -0.4318  0.2832
 1950TIP3    H127265   6.676   3.528  13.314 -0.3979 -0.6391  0.1821
 1950TIP3    H227266   6.578   3.602  13.226 -0.0643 -0.1154  0.2438
 1951TIP3   OH227267   4.302   6.176   3.661  0.5428 -0.1703  0.8046
 1951TIP3    H127268   4.229   6.214   3.710  0.5237  0.5378  0.2501
 1951TIP3    H227269   4.276   6.086   3.643  0.0945 -0.1153  1.1690
 1952TIP3   OH227270   1.252   2.111  10.885 -0.0096  0.7416 -0.9103
 1952TIP3    H127271   1.294   2.192  10.913 -1.2945  1.4041 -0.8110
 1952TIP3    H227272   1.257   2.053  10.961 -1.3132  1.6545 -0.0926
 1953TIP3   OH227273   6.787   4.225   0.418 -0.2600  0.1283 -0.4095
 1953TIP3    H127274   6.821   4.287   0.483  1.3607 -1.3316  0.2310
 1953TIP3    H227275   6.812   4.262   0.334  0.2683  0.5807 -0.0611
 1954TIP3   OH227276   5.896   3.114   4.983 -0.1178  0.6995 -0.0696
 1954TIP3    H127277   5.979   3.116   5.032  0.2152  0.6816 -0.6281
 1954TIP3    H227278   5.911   3.171   4.908 -0.8284  1.1897  0.1513
 1955TIP3   OH227279   5.262   4.897   5.522 -0.4436  0.3243  0.5501
 1955TIP3    H127280   5.242   4.848   5.602  0.4746 -1.4006 -0.2310
 1955TIP3    H227281   5.347   4.936   5.539 -0.7806  0.9600  0.8357
 1956TIP3   OH227282   2.155   4.284  12.967 -0.0434  0.0645  0.4630
 1956TIP3    H127283   2.079   4.226  12.959  0.9773 -1.4320  1.2276
 1956TIP3    H227284   2.127   4.350  13.030 -0.3028 -1.2469  1.7908
 1957TIP3   OH227285   2.365   3.230   1.973 -0.2784 -0.0287 -0.0650
 1957TIP3    H127286   2.320   3.169   1.915  1.2524 -0.4583 -0.8552
 1957TIP3    H227287   2.329   3.315   1.951  2.0154  0.2181 -3.6067
 1958TIP3   OH227288   2.631   6.402  15.068  0.2148  0.1414 -0.0254
 1958TIP3    H127289   2.679   6.427  15.147 -0.3803  0.8439  0.1292
 1958TIP3    H227290   2.540   6.395  15.098 -0.1901  1.4550 -0.8472
 1959TIP3   OH227291   3.837   4.716  12.600  0.5117 -0.7450 -0.3135
 1959TIP3    H127292   3.809   4.806  12.621 -0.8411 -0.7044 -2.1006
 1959TIP3    H227293   3.783   4.661  12.657  2.3487 -0.4654  1.8542
 1960TIP3   OH227294   0.582   4.715   2.783  0.3812  0.4315 -0.4865
 1960TIP3    H127295   0.516   4.685   2.721 -1.3932 -0.5362  1.7287
 1960TIP3    H227296   0.566   4.810   2.790  0.1756  0.4400 -1.0177
 1961TIP3   OH227297   3.584   3.649   5.509 -0.2909  0.1912 -0.7560
 1961TIP3    H127298   3.662   3.637   5.454 -1.0668 -0.1306 -1.8156
 1961TIP3    H227299   3.510   3.637   5.449 -1.1689 -0.0854  0.3489
 1962TIP3   OH227300   5.817   2.288  12.380  0.6690 -0.6903  0.3533
 1962TIP3    H127301   5.882   2.218  12.374  1.2743 -0.2634  1.6154
 1962TIP3    H227302   5.820   2.316  12.472  0.8098  1.3342 -0.2281
 1963TIP3   OH227303   1.432   0.774   3.709 -0.4863 -0.0830  0.0212
 1963TIP3    H127304   1.415   0.716   3.635 -1.8373 -1.7034  1.4948
 1963TIP3    H227305   1.345   0.795   3.744  0.1237 -0.0870  1.6432
 1964TIP3   OH227306   5.903   4.404  15.572  0.7647 -0.4026 -0.7201
 1964TIP3    H127307   5.962   4.473  15.540 -1.0448  1.3731 -0.4598
 1964TIP3    H227308   5.933   4.325  15.529  2.0084  0.8432 -2.2713
 1965TIP3   OH227309   3.802   3.117   2.185 -0.5757 -0.5234 -0.0441
 1965TIP3    H127310   3.829   3.068   2.107 -0.4360  0.5740 -0.7000
 1965TIP3    H227311   3.749   3.054   2.235  1.9472 -2.2970  0.6046
 1966TIP3   OH227312   0.884   0.401  13.845 -0.1290  0.1774  0.3052
 1966TIP3    H127313   0.823   0.331  13.866  0.1829 -0.7457 -1.7001
 1966TIP3    H227314   0.829   0.477  13.830 -0.7407 -0.4274 -0.6088
 1967TIP3   OH227315   3.145   0.586  13.381  0.4791 -0.4928 -0.0872
 1967TIP3    H127316   3.214   0.523  13.400 -0.7349 -1.8746 -0.0822
 1967TIP3    H227317   3.093   0.545  13.312  0.0600  0.8372 -0.6048
 1968TIP3   OH227318   0.462   6.604   2.771  0.3316 -0.2209 -0.4522
 1968TIP3    H127319   0.382   6.568   2.731 -0.1959 -0.7359  0.9781
 1968TIP3    H227320   0.481   6.682   2.720 -0.8052 -0.3648 -1.1488
 1969TIP3   OH227321   0.208   3.104   1.299  0.3708 -0.2407  0.2559
 1969TIP3    H127322   0.130   3.158   1.313  1.4787  0.7843  3.1048
 1969TIP3    H227323   0.210   3.090   1.204 -2.8527  0.2619 -0.0195
 1970TIP3   OH227324   1.187   4.565   3.813  0.1989  0.0066 -0.2463
 1970TIP3    H127325   1.192   4.482   3.765  1.2317 -0.4048  0.5502
 1970TIP3    H227326   1.208   4.542   3.903  0.6910  1.1624 -0.0493
 1971TIP3   OH227327   2.974   2.791  15.976  0.1572 -0.1301 -0.1079
 1971TIP3    H127328   2.986   2.884  15.995  0.9926  0.2177 -2.1462
 1971TIP3    H227329   2.902   2.764  16.033 -0.2149  1.7869  0.3906
 1972TIP3   OH227330   6.033   0.452  15.809 -0.0652 -0.3890  0.7076
 1972TIP3    H127331   5.986   0.413  15.736 -0.0632  0.9384 -0.0260
 1972TIP3    H227332   5.965   0.488  15.866 -0.0133 -0.1551  0.6230
 1973TIP3   OH227333   2.821   3.587   3.816 -0.0334 -0.2989  0.0991
 1973TIP3    H127334   2.859   3.578   3.903  0.6197 -0.0087 -0.1526
 1973TIP3    H227335   2.801   3.680   3.808 -0.7055 -0.4248  0.1799
 1974TIP3   OH227336   0.640   5.650  13.335 -0.2163  0.0116 -0.0295
 1974TIP3    H127337   0.676   5.583  13.393 -2.1733  0.6004  2.0507
 1974TIP3    H227338   0.648   5.614  13.247  1.9036 -1.4184  0.6850
 1975TIP3   OH227339   0.278   1.504   4.898 -0.2300  0.0357 -0.1164
 1975TIP3    H127340   0.334   1.561   4.952  0.1116 -0.9336  0.5821
 1975TIP3    H227341   0.248   1.561   4.827 -1.0723  1.4907  1.3234
 1976TIP3   OH227342   5.483   2.014   3.445 -0.0888 -0.1451 -0.1620
 1976TIP3    H127343   5.573   2.038   3.471 -0.4493 -0.6996  1.7863
 1976TIP3    H227344   5.480   1.919   3.454 -0.7656 -0.1661 -0.5846
 1977TIP3   OH227345   3.585   2.873   5.707 -0.2121  0.1530  0.1381
 1977TIP3    H127346   3.653   2.822   5.751  0.9389  1.2750 -0.3093
 1977TIP3    H227347   3.615   2.963   5.712 -2.2811  0.8642  1.0297
 1978TIP3   OH227348   3.947   2.745  12.207 -0.4520  0.3281  0.7180
 1978TIP3    H127349   3.895   2.737  12.287 -1.7798  0.3687 -0.1022
 1978TIP3    H227350   3.986   2.659  12.195 -1.5652 -0.1822  0.5741
 1979TIP3   OH227351   1.841   1.096  12.528 -0.6044  0.2260  0.4582
 1979TIP3    H127352   1.812   1.136  12.610  0.3675  0.0364  0.9115
 1979TIP3    H227353   1.813   1.005  12.535 -0.5301  0.2118  0.5785
 1980TIP3   OH227354   6.283   2.012  16.740  0.0999  0.0435 -0.1546
 1980TIP3    H127355   6.265   1.921  16.715 -0.1191 -0.0950  0.4834
 1980TIP3    H227356   6.371   2.029  16.707 -0.8842  0.5420 -2.8355
 1981TIP3   OH227357   1.509   6.739  12.201 -0.1754 -0.0446 -0.4815
 1981TIP3    H127358   1.520   6.646  12.183  1.5584  0.1257 -0.4852
 1981TIP3    H227359   1.503   6.780  12.115 -0.7583 -0.1273 -0.4830
 1982TIP3   OH227360   3.936   1.313   3.030  0.4480 -0.6024  0.0125
 1982TIP3    H127361   3.918   1.295   2.938  0.4562 -1.7539  0.2205
 1982TIP3    H227362   3.850   1.309   3.072 -0.0628  2.9002 -0.3393
 1983TIP3   OH227363   6.024   1.394  16.105 -0.1949  0.0399 -0.2541
 1983TIP3    H127364   6.086   1.412  16.034 -0.1746  1.6550  0.1255
 1983TIP3    H227365   6.079   1.374  16.181 -0.2065 -1.1261 -0.5374
 1984TIP3   OH227366   3.903   6.153   6.268  0.3171 -0.6414  0.1969
 1984TIP3    H127367   3.970   6.097   6.228 -0.3026 -1.5683  0.3993
 1984TIP3    H227368   3.880   6.108   6.350  1.1097  0.8966  1.2967
 1985TIP3   OH227369   2.102   1.009  12.400  0.0572  0.0892 -0.3740
 1985TIP3    H127370   2.067   0.923  12.422 -0.4200  0.5055  0.5329
 1985TIP3    H227371   2.027   1.068  12.404  0.9715  1.2969  3.1813
 1986TIP3   OH227372   2.930   3.941   0.262 -0.5376 -0.8393 -0.1746
 1986TIP3    H127373   2.990   4.003   0.304 -0.4417 -1.3021  0.3838
 1986TIP3    H227374   2.930   3.966   0.170  0.0113 -0.4231 -0.0638
 1987TIP3   OH227375   0.706   1.012  11.418 -0.0881  0.4928 -0.1883
 1987TIP3    H127376   0.705   0.919  11.395 -2.3235  0.3258  0.4097
 1987TIP3    H227377   0.620   1.044  11.392  0.0215  2.0003  1.2042
 1988TIP3   OH227378   6.308   3.945  14.628  0.3506  1.0152 -0.1831
 1988TIP3    H127379   6.242   4.003  14.666  0.3863  0.4950  0.6944
 1988TIP3    H227380   6.376   3.939  14.695 -0.4379 -1.4021  0.5303
 1989TIP3   OH227381   2.694   1.426  10.665  0.3992  0.3347  0.1195
 1989TIP3    H127382   2.632   1.493  10.692 -0.8629 -1.0704  0.8655
 1989TIP3    H227383   2.778   1.471  10.661 -0.5518  2.1387 -0.2838
 1990TIP3   OH227384   4.419   4.911   2.445  0.4799 -0.1913 -0.0273
 1990TIP3    H127385   4.440   4.847   2.377 -0.9130  0.1084 -0.7816
 1990TIP3    H227386   4.414   4.859   2.526  0.7820 -0.7865 -0.3816
 1991TIP3   OH227387   2.322   2.630  16.763  0.2025 -0.0240 -0.9976
 1991TIP3    H127388   2.289   2.583  16.840 -0.4781  2.0312  0.0385
 1991TIP3    H227389   2.252   2.621  16.698  0.5574 -1.3286 -1.2399
 1992TIP3   OH227390   2.948   6.664  16.132 -0.1672 -0.0908 -0.6376
 1992TIP3    H127391   3.026   6.710  16.163  1.4988 -1.4007 -2.6572
 1992TIP3    H227392   2.901   6.640  16.212  0.5316  2.2678  0.5751
 1993TIP3   OH227393   2.358   3.510   3.080  0.0203 -0.5970  0.6249
 1993TIP3    H127394   2.452   3.497   3.069 -0.0202 -1.1596  0.8957
 1993TIP3    H227395   2.322   3.421   3.087 -0.6277 -0.4136 -0.2178
 1994TIP3   OH227396   1.076   4.012  15.066  0.3265  0.5759  0.2469
 1994TIP3    H127397   1.029   4.007  15.149  1.2421 -1.7787  0.6829
 1994TIP3    H227398   1.024   3.960  15.006  1.7465 -1.1712  0.4600
 1995TIP3   OH227399   2.955   3.985   5.426 -0.3034 -0.0989  0.5771
 1995TIP3    H127400   3.036   3.954   5.466 -0.3489  0.6258  1.2535
 1995TIP3    H227401   2.887   3.932   5.468 -0.2011 -0.6461  0.0729
 1996TIP3   OH227402   4.956   2.746  13.642 -0.0782 -0.2293  0.6299
 1996TIP3    H127403   4.871   2.704  13.647  0.3997 -1.8165 -2.3963
 1996TIP3    H227404   4.949   2.808  13.570  1.0242  0.4386  1.0610
 1997TIP3   OH227405   1.542   2.095   0.025 -0.3802 -0.0972  0.0797
 1997TIP3    H127406   1.520   2.026  -0.037 -0.0493 -0.5039  0.4141
 1997TIP3    H227407   1.546   2.175  -0.028 -2.1709 -0.0695 -0.0890
 1998TIP3   OH227408   4.031   3.967   2.600  0.3641  0.4522 -0.2914
 1998TIP3    H127409   4.101   3.942   2.539 -1.2833 -0.4438 -1.8866
 1998TIP3    H227410   3.952   3.927   2.565 -0.7569  0.2593  2.2289
 1999TIP3   OH227411   3.620   1.215  16.038 -0.3187  0.1589 -0.3819
 1999TIP3    H127412   3.679   1.157  15.989 -0.3869 -1.4811  1.3437
 1999TIP3    H227413   3.652   1.209  16.128 -1.4142  1.4789  0.1138
 2000TIP3   OH227414   4.487   5.923  14.839  0.6513  0.5254  0.1003
 2000TIP3    H127415   4.425   5.975  14.788 -0.4665 -1.1071 -0.2999
 2000TIP3    H227416   4.451   5.923  14.928  1.3785  1.5081  0.4095
 2001TIP3   OH227417   5.023   1.188   5.436  0.0840 -0.7196 -0.0613
 2001TIP3    H127418   5.015   1.171   5.342 -0.5246 -0.1974 -0.1079
 2001TIP3    H227419   5.055   1.105   5.472  1.5878 -0.5367 -0.8854
 2002TIP3   OH227420   5.591   4.838   5.026 -0.3094 -0.0200  0.0799
 2002TIP3    H127421   5.589   4.742   5.026 -0.7498 -0.0147 -0.1741
 2002TIP3    H227422   5.676   4.860   4.988 -0.4815 -0.3089 -0.4802
 2003TIP3   OH227423   5.928   5.151   0.891  0.1095 -0.2586 -0.2033
 2003TIP3    H127424   5.907   5.240   0.861  0.7249 -1.0520 -3.3841
 2003TIP3    H227425   6.019   5.156   0.918 -0.0132  0.1939  0.1404
 2004TIP3   OH227426   3.315   3.455   5.040 -0.1032 -0.2638  0.0970
 2004TIP3    H127427   3.310   3.433   5.133  1.0181  0.0794  0.2540
 2004TIP3    H227428   3.346   3.375   4.998 -1.3347 -0.6576 -0.1051
 2005TIP3   OH227429   5.691   1.343   1.403  0.0008 -0.3181 -0.2338
 2005TIP3    H127430   5.716   1.421   1.355  2.5898 -0.3820  0.8505
 2005TIP3    H227431   5.646   1.288   1.339 -0.4657  1.3827 -1.4082
 2006TIP3   OH227432   2.147   5.595  11.702  0.1874 -0.2774 -0.2354
 2006TIP3    H127433   2.104   5.679  11.714  0.1362 -0.3672  0.2279
 2006TIP3    H227434   2.093   5.549  11.638  0.9188  0.5273 -1.4638
 2007TIP3   OH227435   0.270   5.000  15.205  0.2777 -0.4220 -0.1861
 2007TIP3    H127436   0.290   4.955  15.123  1.7848  0.3319 -0.2725
 2007TIP3    H227437   0.286   4.933  15.273  1.8830 -0.2459 -0.3514
 2008TIP3   OH227438   4.515   3.808  13.040 -0.2220  0.2138 -0.1153
 2008TIP3    H127439   4.433   3.854  13.054 -1.6681 -2.4684  1.0098
 2008TIP3    H227440   4.559   3.811  13.125  1.0205  1.7763 -0.7497
 2009TIP3   OH227441   4.807   1.291   0.823  0.3337  0.5554  0.1535
 2009TIP3    H127442   4.733   1.318   0.878  0.7110  0.5354  0.6818
 2009TIP3    H227443   4.794   1.339   0.741 -0.5373  0.1632  0.0447
 2010TIP3   OH227444   0.825   5.721   5.837 -0.2295 -0.1423 -0.3385
 2010TIP3    H127445   0.821   5.779   5.761  1.1040  3.2356  1.9224
 2010TIP3    H227446   0.746   5.742   5.887  0.6545  0.3567  0.8902
 2011TIP3   OH227447   5.933   6.724   3.037 -0.2514  0.3119 -0.4260
 2011TIP3    H127448   5.869   6.728   2.965 -0.9154 -0.3346  0.1139
 2011TIP3    H227449   5.912   6.642   3.082  1.5401 -0.3789 -0.7689
 2012TIP3   OH227450   5.583   2.608  15.449 -0.5996 -0.0016 -0.0310
 2012TIP3    H127451   5.669   2.577  15.478 -0.8493  0.3104  1.0868
 2012TIP3    H227452   5.523   2.537  15.473 -0.6986 -0.1080 -0.5763
 2013TIP3   OH227453   4.136   5.282   5.600 -0.4697  0.6778  0.5464
 2013TIP3    H127454   4.174   5.241   5.523 -0.8561  1.8760 -0.3199
 2013TIP3    H227455   4.194   5.258   5.672 -0.8467 -1.5951  0.1496
 2014TIP3   OH227456   3.578   2.161   3.442  0.1668  0.0004 -0.1029
 2014TIP3    H127457   3.643   2.092   3.425  0.0432  0.2182 -1.6757
 2014TIP3    H227458   3.575   2.210   3.360 -0.5210  1.2367  0.6484
 2015TIP3   OH227459   3.021   6.626  11.984 -0.2599  0.1383  0.0426
 2015TIP3    H127460   3.089   6.690  12.005 -0.9477  0.9308 -0.1005
 2015TIP3    H227461   3.068   6.555  11.940  0.4296  0.8248 -0.3494
 2016TIP3   OH227462   1.596   1.216   0.862 -0.4037  0.1107 -0.3530
 2016TIP3    H127463   1.547   1.158   0.803 -0.6692 -0.7347  0.6498
 2016TIP3    H227464   1.537   1.290   0.877 -0.3042  0.3694 -1.1812
 2017TIP3   OH227465   2.375   3.606   3.889 -0.2631 -0.3055  0.4809
 2017TIP3    H127466   2.452   3.659   3.912 -0.0595 -1.4329  2.5355
 2017TIP3    H227467   2.411   3.523   3.858 -0.6255 -0.7107  1.1205
 2018TIP3   OH227468   0.149   5.722  10.964 -0.2581 -0.1784  0.3858
 2018TIP3    H127469   0.107   5.680  10.889  0.6556  1.2915 -1.0193
 2018TIP3    H227470   0.236   5.685  10.967 -0.5034 -0.7097  1.1489
 2019TIP3   OH227471   2.681   3.617  13.314  0.8273 -0.2189 -0.2853
 2019TIP3    H127472   2.629   3.537  13.315  1.6938 -0.8165  1.2633
 2019TIP3    H227473   2.652   3.665  13.391  1.1289  0.4103 -0.5563
 2020TIP3   OH227474   6.739   1.158   3.226 -1.3010  0.0264 -0.2875
 2020TIP3    H127475   6.682   1.187   3.155 -1.4393 -0.3728 -0.3373
 2020TIP3    H227476   6.807   1.106   3.182 -2.2010 -1.4485  0.0327
 2021TIP3   OH227477   5.287   2.833  13.151 -0.1134  0.8471 -0.2915
 2021TIP3    H127478   5.378   2.841  13.124  0.1982 -0.4967  0.2987
 2021TIP3    H227479   5.289   2.780  13.231 -1.5442 -1.1030 -1.4478
 2022TIP3   OH227480   2.338   0.816   2.660  1.1170  0.2088  0.1230
 2022TIP3    H127481   2.243   0.817   2.667  1.0109 -0.6027 -0.9895
 2022TIP3    H227482   2.356   0.773   2.576  2.4144  1.9682 -0.5746
 2023TIP3   OH227483   1.508   2.492   3.715  0.4019  0.4205  0.1558
 2023TIP3    H127484   1.450   2.467   3.642 -0.2886  0.7993  0.5653
 2023TIP3    H227485   1.450   2.534   3.778  1.2303  1.3557  0.3137
 2024TIP3   OH227486   1.710   0.107  13.063 -0.5789  0.0552  0.4632
 2024TIP3    H127487   1.785   0.156  13.097 -0.5883  0.8771 -0.6608
 2024TIP3    H227488   1.723   0.019  13.098  0.2528  0.4765  1.2852
 2025TIP3   OH227489   1.726   0.578   3.292 -0.1334 -0.1899  0.4548
 2025TIP3    H127490   1.782   0.606   3.219 -0.8327  1.6217  0.5502
 2025TIP3    H227491   1.690   0.494   3.264 -0.6622  0.6216 -1.4865
 2026TIP3   OH227492   5.677   5.091  11.605 -0.3272  0.0710  0.1577
 2026TIP3    H127493   5.679   5.000  11.634 -1.5872  0.0956  0.3905
 2026TIP3    H227494   5.639   5.139  11.679  1.9557  1.0956  0.7527
 2027TIP3   OH227495   6.159   5.579  15.930 -0.3385 -0.2666 -0.9362
 2027TIP3    H127496   6.069   5.613  15.929 -1.0741 -1.9097  1.4895
 2027TIP3    H227497   6.164   5.522  15.853 -1.5495 -0.5254 -0.8405
 2028TIP3   OH227498   2.555   0.107   1.960  0.5719  0.1985 -0.0402
 2028TIP3    H127499   2.513   0.036   2.009 -0.3709  1.1926  0.6396
 2028TIP3    H227500   2.601   0.158   2.028  2.2119 -0.3714 -0.6562
 2029TIP3   OH227501   5.348   1.990   4.445 -0.3189  0.0347 -0.6224
 2029TIP3    H127502   5.388   1.956   4.366 -1.0768 -1.0384 -0.5689
 2029TIP3    H227503   5.296   2.066   4.415 -1.5849 -1.0890 -1.3857
 2030TIP3   OH227504   1.664   0.977   5.980  0.6092  0.2192 -0.0289
 2030TIP3    H127505   1.581   1.009   6.014  0.4358  0.3828 -0.5968
 2030TIP3    H227506   1.722   0.976   6.056  1.1030  3.3998 -0.2310
 2031TIP3   OH227507   0.153   0.888  14.715  0.5935 -0.2366  0.3136
 2031TIP3    H127508   0.227   0.936  14.678  0.7840 -0.7729 -0.0035
 2031TIP3    H227509   0.086   0.955  14.729  0.8040  0.1023 -0.2654
 2032TIP3   OH227510   1.898   5.154   5.887  0.7801 -0.3385  0.9868
 2032TIP3    H127511   1.814   5.136   5.928  1.2982 -0.7407  1.9004
 2032TIP3    H227512   1.877   5.170   5.794 -0.1232 -1.9368  0.8923
 2033TIP3   OH227513   4.782   2.729   1.123 -0.2679 -0.5077  1.4806
 2033TIP3    H127514   4.777   2.811   1.174 -1.4231 -0.0671  0.7024
 2033TIP3    H227515   4.814   2.756   1.038 -1.4810 -0.7044  0.9385
 2034TIP3   OH227516   4.638   1.783  15.312 -0.1522  0.7902  0.4784
 2034TIP3    H127517   4.604   1.697  15.289  1.1228  0.5250 -0.5917
 2034TIP3    H227518   4.586   1.811  15.387 -1.3208 -0.4292  0.1610
 2035TIP3   OH227519   1.241   2.459  13.432  0.0263 -0.1263 -0.1118
 2035TIP3    H127520   1.268   2.417  13.350 -0.7396  1.0521 -0.9976
 2035TIP3    H227521   1.281   2.546  13.429 -1.3846  0.5483 -0.0488
 2036TIP3   OH227522   4.635   2.310  10.792  0.1079 -0.4402 -0.0525
 2036TIP3    H127523   4.571   2.273  10.852 -0.9884 -0.8060 -1.3896
 2036TIP3    H227524   4.686   2.234  10.762  1.7381 -0.0677  1.5665
 2037TIP3   OH227525   0.749   0.808  12.051  0.3163 -0.3882 -0.7195
 2037TIP3    H127526   0.658   0.793  12.028 -0.1810 -1.7194  1.7535
 2037TIP3    H227527   0.795   0.728  12.025  0.8339  0.2766 -1.9589
 2038TIP3   OH227528   2.176   6.667  14.756  0.6234  0.3615  0.1160
 2038TIP3    H127529   2.184   6.621  14.840 -0.9861 -1.9116 -0.8689
 2038TIP3    H227530   2.161   6.759  14.781 -0.3516 -0.3130  2.3517
 2039TIP3   OH227531   2.607   0.380  15.074  0.7131  0.2349 -0.4279
 2039TIP3    H127532   2.684   0.357  15.022  1.2064  2.2200 -0.6449
 2039TIP3    H227533   2.602   0.476  15.069 -1.5846  0.1828 -0.1403
 2040TIP3   OH227534   1.943   6.129  13.509  0.4900 -0.0725 -0.0113
 2040TIP3    H127535   2.019   6.163  13.461 -1.3017  1.8660 -1.6774
 2040TIP3    H227536   1.965   6.143  13.601  2.6823 -0.8791 -0.3355
 2041TIP3   OH227537   1.944   3.116  14.731 -0.2366 -0.3579  0.5507
 2041TIP3    H127538   1.863   3.157  14.701 -0.8156 -0.5398  1.8010
 2041TIP3    H227539   1.996   3.104  14.651 -2.2752 -2.1485 -0.6203
 2042TIP3   OH227540   6.801   4.512   5.811 -0.3397 -0.1677 -0.5473
 2042TIP3    H127541   6.725   4.538   5.863  0.0967  0.4523 -0.2104
 2042TIP3    H227542   6.799   4.570   5.735 -0.8538 -0.9285 -1.1303
 2043TIP3   OH227543   1.580   2.696   0.582 -0.2850  0.6878 -0.1457
 2043TIP3    H127544   1.501   2.683   0.530  0.1277 -1.4617 -0.2993
 2043TIP3    H227545   1.646   2.641   0.540  1.1208  1.8429  0.4312
 2044TIP3   OH227546   1.166   0.709   1.821 -0.1226 -0.3018 -0.1010
 2044TIP3    H127547   1.154   0.663   1.904 -1.0556 -1.2268 -0.7124
 2044TIP3    H227548   1.103   0.781   1.824 -0.0039 -0.2054  0.0784
 2045TIP3   OH227549   3.070   2.432   4.394  0.4220 -0.1892 -0.1507
 2045TIP3    H127550   3.055   2.361   4.332  0.3251  1.1909 -1.7797
 2045TIP3    H227551   3.057   2.512   4.343 -2.3373  1.0857  2.2608
 2046TIP3   OH227552   1.535   0.337  13.659  0.3906  0.4292 -0.2576
 2046TIP3    H127553   1.594   0.412  13.662 -0.3310  1.0880 -1.4512
 2046TIP3    H227554   1.585   0.265  13.697  2.2635  0.7648 -1.9473
 2047TIP3   OH227555   2.226   0.695  13.523  0.3951 -0.3314  0.3198
 2047TIP3    H127556   2.234   0.773  13.468  1.4123  0.9007  2.0989
 2047TIP3    H227557   2.311   0.652  13.517  0.3693 -0.4210  0.6017
 2048TIP3   OH227558   1.735   4.288   3.178 -1.0611  0.1549  0.0435
 2048TIP3    H127559   1.793   4.358   3.150  1.0111 -1.1417  0.8229
 2048TIP3    H227560   1.711   4.310   3.268  2.3373 -1.6348  1.5567
 2049TIP3   OH227561   0.748   1.711   0.854 -0.2456  0.2755  0.0654
 2049TIP3    H127562   0.831   1.759   0.841 -0.7530  1.0671 -0.3676
 2049TIP3    H227563   0.716   1.696   0.765 -1.3242  1.3495  0.2490
 2050TIP3   OH227564   0.157   1.525   0.484  0.0416 -0.0597 -0.0491
 2050TIP3    H127565   0.136   1.540   0.577 -0.4067  0.8247 -0.2814
 2050TIP3    H227566   0.216   1.597   0.461 -0.8237  0.4303 -0.7694
 2051TIP3   OH227567   4.267   2.234   1.768 -0.5270  0.3350  0.2949
 2051TIP3    H127568   4.207   2.224   1.695  0.0058 -2.4119  0.1246
 2051TIP3    H227569   4.338   2.172   1.750  1.1829  1.7722  1.6584
 2052TIP3   OH227570   4.951   2.072  12.296  0.2725  0.4542  0.1234
 2052TIP3    H127571   5.008   2.145  12.271  1.9091 -0.7332  0.2394
 2052TIP3    H227572   5.005   2.016  12.351 -1.9079  0.7287  2.7567
 2053TIP3   OH227573   5.421   5.027   2.901 -0.7996  0.4058 -0.4737
 2053TIP3    H127574   5.478   4.962   2.860  1.2900  2.3363 -0.8488
 2053TIP3    H227575   5.366   5.059   2.830  0.3177  1.1821 -1.0275
 2054TIP3   OH227576   3.260   4.662  15.493 -0.1344  0.4839 -0.3302
 2054TIP3    H127577   3.216   4.747  15.492  1.0934  1.2131  1.5898
 2054TIP3    H227578   3.297   4.653  15.406 -0.8577  1.5945 -0.7791
 2055TIP3   OH227579   2.044   2.188   5.498 -0.0067  0.0678  0.1450
 2055TIP3    H127580   2.120   2.229   5.455 -0.9485  3.4194  1.3457
 2055TIP3    H227581   2.073   2.172   5.588  0.2830 -1.9065 -0.2592
 2056TIP3   OH227582   3.939   3.921  15.748 -0.1708 -0.2191  0.6881
 2056TIP3    H127583   3.966   3.950  15.836  1.4806  0.2898  0.0601
 2056TIP3    H227584   3.920   3.828  15.759 -0.8215  0.0197  1.7542
 2057TIP3   OH227585   6.153   4.747   6.469 -0.1819  0.3819  0.0993
 2057TIP3    H127586   6.244   4.741   6.497  0.8107  1.1240 -2.6842
 2057TIP3    H227587   6.129   4.656   6.447  0.4572  0.3836 -0.6707
 2058TIP3   OH227588   0.710   1.806  11.940  0.2810  0.2946  0.0246
 2058TIP3    H127589   0.629   1.836  11.899  1.0287  0.7807 -1.1290
 2058TIP3    H227590   0.681   1.749  12.011 -1.0667 -0.1376 -0.8375
 2059TIP3   OH227591   0.773   5.203   0.437 -0.0594 -0.3306 -0.0509
 2059TIP3    H127592   0.681   5.204   0.411 -0.1972  1.5006  0.3993
 2059TIP3    H227593   0.772   5.173   0.528 -0.1994 -0.3318 -0.0526
 2060TIP3   OH227594   0.554   4.214  15.296  0.2935  0.0822  0.3819
 2060TIP3    H127595   0.491   4.269  15.249  2.7161  3.6262  0.8482
 2060TIP3    H227596   0.501   4.154  15.348 -2.6223  1.5840 -0.6757
 2061TIP3   OH227597   0.759   4.883  15.030  0.2735 -0.0409 -0.0697
 2061TIP3    H127598   0.843   4.904  15.071 -0.3502  1.5105  0.4682
 2061TIP3    H227599   0.742   4.792  15.057  0.9766  0.1848  1.2360
 2062TIP3   OH227600   3.220   4.525  16.066  0.2040  0.1699  0.1704
 2062TIP3    H127601   3.136   4.493  16.034  0.3337 -0.0270  0.0279
 2062TIP3    H227602   3.262   4.564  15.989  0.9647 -1.2259 -0.1604
 2063TIP3   OH227603   5.726   2.605  11.962  0.0611  0.4818 -0.0808
 2063TIP3    H127604   5.673   2.533  11.927  1.1880 -0.3974 -0.0126
 2063TIP3    H227605   5.683   2.628  12.044  0.2187 -0.7710  0.3791
 2064TIP3   OH227606   2.580   5.972   3.188  0.1005 -0.7063 -0.0151
 2064TIP3    H127607   2.539   5.898   3.143  1.2932 -1.7955  0.6145
 2064TIP3    H227608   2.570   6.045   3.127 -1.3533 -1.3047 -0.5336
 2065TIP3   OH227609   5.992   3.129   4.636  0.2264  0.5554 -0.5415
 2065TIP3    H127610   5.935   3.102   4.564  0.0911 -1.1448  0.1581
 2065TIP3    H227611   5.981   3.224   4.641 -0.9976  0.5065 -1.7026
 2066TIP3   OH227612   0.387   6.138  15.933  0.2857  0.1463 -0.3601
 2066TIP3    H127613   0.317   6.075  15.950 -0.2000  1.0957  1.4077
 2066TIP3    H227614   0.442   6.135  16.011  0.4959  1.5957 -0.4236
 2067TIP3   OH227615   4.915   4.213   1.045  0.1804 -0.9358  0.3535
 2067TIP3    H127616   4.833   4.172   1.073  1.2412 -3.0782  0.5455
 2067TIP3    H227617   4.909   4.214   0.950 -0.1397 -0.9229  0.3710
 2068TIP3   OH227618   4.522   6.340  16.927 -0.1373  0.5715 -0.1315
 2068TIP3    H127619   4.474   6.262  16.898 -1.9754  0.9126  1.7790
 2068TIP3    H227620   4.496   6.408  16.865  0.2097  0.0697 -0.8428
 2069TIP3   OH227621   0.138   2.402   3.653 -0.6418 -0.2068 -0.0651
 2069TIP3    H127622   0.053   2.385   3.613  0.2299 -1.4805 -1.4741
 2069TIP3    H227623   0.152   2.496   3.640 -1.4047 -0.1645 -0.6782
 2070TIP3   OH227624   5.143   5.510   5.312 -0.2179 -0.4244  0.3371
 2070TIP3    H127625   5.170   5.425   5.346  0.1032 -0.1024  0.9099
 2070TIP3    H227626   5.225   5.550   5.283 -0.0726  0.4616  1.8565
 2071TIP3   OH227627   3.120   5.016  14.388  0.1384 -0.5874  0.5488
 2071TIP3    H127628   3.145   5.045  14.475  1.4996  0.5775 -0.1924
 2071TIP3    H227629   3.191   5.046  14.331 -1.0865 -0.6325 -1.0761
 2072TIP3   OH227630   5.229   0.449   6.837  0.7024 -0.1136 -0.3942
 2072TIP3    H127631   5.272   0.449   6.923  2.0485 -0.4938 -1.0576
 2072TIP3    H227632   5.144   0.407   6.854  0.7967  0.1258  0.8087
 2073TIP3   OH227633   4.250   1.975   6.030 -0.5220 -0.3574 -0.0449
 2073TIP3    H127634   4.208   1.985   5.945  1.7056 -0.4097 -1.2280
 2073TIP3    H227635   4.232   1.885   6.055 -2.5981  0.1336  0.3838
 2074TIP3   OH227636   0.418   4.876   4.354  0.3189 -0.2177 -0.0704
 2074TIP3    H127637   0.377   4.805   4.404 -2.9799  1.6831  0.2507
 2074TIP3    H227638   0.429   4.840   4.266  2.8189 -2.4241  0.9937
 2075TIP3   OH227639   3.901   1.986  12.883  0.3287 -0.9104 -0.2289
 2075TIP3    H127640   3.884   1.893  12.867  0.3802 -1.0488  0.4899
 2075TIP3    H227641   3.880   1.999  12.976  0.6763 -0.2885 -0.2309
 2076TIP3   OH227642   5.064   4.847   3.138  0.7594 -0.5661  0.4774
 2076TIP3    H127643   5.015   4.815   3.213 -1.7020  0.6951 -0.4798
 2076TIP3    H227644   5.111   4.924   3.170 -1.1989  0.6738  0.5669
 2077TIP3   OH227645   4.152   5.960  13.856  0.0751 -0.4125 -0.0431
 2077TIP3    H127646   4.140   5.915  13.940 -0.3881  0.2444  0.2535
 2077TIP3    H227647   4.088   5.920  13.798  1.5415 -2.0724 -0.6073
 2078TIP3   OH227648   5.042   4.897  13.525  0.7322 -0.0972  0.2584
 2078TIP3    H127649   4.960   4.895  13.474  1.3357 -0.1450 -0.7381
 2078TIP3    H227650   5.042   4.982  13.567 -0.5091 -0.6325  1.4373
 2079TIP3   OH227651   1.696   0.178  16.061  0.8235  0.1731  0.1501
 2079TIP3    H127652   1.612   0.176  16.107  0.1457 -0.1386 -1.0556
 2079TIP3    H227653   1.681   0.238  15.987  1.6057 -0.0152 -0.1684
 2080TIP3   OH227654   6.572   0.877  13.908 -0.2789 -0.9251  0.1135
 2080TIP3    H127655   6.553   0.801  13.854  1.4833 -0.1380 -1.7741
 2080TIP3    H227656   6.667   0.873  13.923  0.2648  1.8171 -1.7204
 2081TIP3   OH227657   6.720   5.501   1.106 -0.1274  0.3172  0.2191
 2081TIP3    H127658   6.813   5.479   1.110  0.3974  2.3424 -0.0054
 2081TIP3    H227659   6.677   5.417   1.087  1.7690 -0.4462 -1.0209
 2082TIP3   OH227660   5.150   6.108   4.642 -0.0413 -0.2280 -0.5892
 2082TIP3    H127661   5.180   6.050   4.572  1.3700  1.0391 -1.0900
 2082TIP3    H227662   5.195   6.191   4.626  0.3184  0.1217  1.8063
 2083TIP3   OH227663   2.414   3.724  15.913 -0.5733  0.1995  0.5859
 2083TIP3    H127664   2.505   3.734  15.883  0.5640  0.3954  3.7349
 2083TIP3    H227665   2.420   3.664  15.987 -3.1374 -0.1002  0.6323
 2084TIP3   OH227666   5.964   3.853  14.713 -0.7589  0.0456  0.2538
 2084TIP3    H127667   5.947   3.835  14.805  0.5188 -0.2343  0.4563
 2084TIP3    H227668   6.012   3.936  14.712 -0.4792 -0.1139 -0.1293
 2085TIP3   OH227669   3.724   1.514  15.828  0.0155  0.0394 -0.0038
 2085TIP3    H127670   3.748   1.423  15.847  1.4786  0.1659 -1.1275
 2085TIP3    H227671   3.760   1.564  15.901  0.2717 -0.1464 -0.0026
 2086TIP3   OH227672   4.416   0.763   1.788 -0.4240 -0.1991  0.0159
 2086TIP3    H127673   4.497   0.801   1.825 -0.4524  0.0202 -0.1469
 2086TIP3    H227674   4.442   0.676   1.759  0.1262  0.4004 -1.3910
 2087TIP3   OH227675   6.555   0.339   4.936 -0.5099 -0.2615  0.1048
 2087TIP3    H127676   6.481   0.299   4.890  0.4851 -1.0528 -0.8612
 2087TIP3    H227677   6.598   0.392   4.869 -1.0384  1.4316  1.0390
 2088TIP3   OH227678   4.015   2.729   3.268 -0.3144  0.6372  0.5723
 2088TIP3    H127679   3.934   2.686   3.241  0.7224 -1.0346  0.0033
 2088TIP3    H227680   4.039   2.784   3.194  0.1302 -0.4653 -0.1334
 2089TIP3   OH227681   0.162   5.239  11.843  0.1064  1.0006 -0.5358
 2089TIP3    H127682   0.083   5.275  11.883 -0.1510 -0.4684  0.3724
 2089TIP3    H227683   0.197   5.179  11.909  0.4780 -0.4084 -1.9553
 2090TIP3   OH227684   2.849   6.324   1.086  0.3302  0.4758 -0.4610
 2090TIP3    H127685   2.801   6.403   1.062  0.8988  0.9641  0.0048
 2090TIP3    H227686   2.856   6.327   1.181 -0.3636 -0.5641 -0.3498
 2091TIP3   OH227687   5.828   6.259   1.628  0.2034  0.4043  0.2515
 2091TIP3    H127688   5.802   6.167   1.629 -0.0448  0.4686 -0.1490
 2091TIP3    H227689   5.874   6.272   1.711 -0.0313 -0.0030  0.4470
 2092TIP3   OH227690   3.941   5.187   3.106 -0.0841  0.0500  0.3639
 2092TIP3    H127691   4.033   5.212   3.093 -0.0094 -0.3938  0.0167
 2092TIP3    H227692   3.893   5.269   3.103  0.3780  0.3619  1.2218
 2093TIP3   OH227693   2.785   0.250   5.729  0.1179  0.4057  0.3459
 2093TIP3    H127694   2.810   0.249   5.821 -1.3517 -1.7192  0.7959
 2093TIP3    H227695   2.831   0.175   5.691  0.1637  0.8567 -0.5119
 2094TIP3   OH227696   4.983   5.363   4.345  0.0517 -0.2356  0.1027
 2094TIP3    H127697   4.986   5.276   4.386  0.9104 -0.0664  0.4221
 2094TIP3    H227698   4.958   5.422   4.416 -0.4840 -0.2073 -0.1039
 2095TIP3   OH227699   6.462   1.577  12.412 -0.2084  0.1637 -0.0465
 2095TIP3    H127700   6.391   1.608  12.356 -0.2997 -1.3365 -0.7933
 2095TIP3    H227701   6.476   1.486  12.386  3.2761  0.8861 -1.3446
 2096TIP3   OH227702   2.917   6.547  14.713 -0.1913  0.3475 -0.6885
 2096TIP3    H127703   2.835   6.552  14.761  0.2730  1.4537  0.0450
 2096TIP3    H227704   2.972   6.489  14.767 -1.3322 -2.7519 -2.5912
 2097TIP3   OH227705   4.435   1.099  14.809  0.1730  0.5694  0.1155
 2097TIP3    H127706   4.395   1.033  14.752  0.9934  0.9709 -0.9621
 2097TIP3    H227707   4.375   1.174  14.806 -0.1586  0.3200  0.3941
 2098TIP3   OH227708   6.087   3.556   4.088 -0.0212 -0.2594  0.6665
 2098TIP3    H127709   6.034   3.532   4.165  0.0922 -0.4518  0.6858
 2098TIP3    H227710   6.074   3.484   4.027 -2.0186  0.9971 -0.4772
 2099TIP3   OH227711   6.738   0.830   6.060  0.2084 -0.4522  0.6214
 2099TIP3    H127712   6.690   0.873   6.131 -1.5069  0.4021 -0.9683
 2099TIP3    H227713   6.676   0.765   6.026  0.9486 -0.7520 -0.1984
 2100TIP3   OH227714   1.616   1.132   6.245 -0.2587  0.0050  0.2076
 2100TIP3    H127715   1.630   1.199   6.312 -1.8079 -1.4536  2.1336
 2100TIP3    H227716   1.674   1.060   6.270  0.3264  0.0362 -0.9890
 2101TIP3   OH227717   0.919   2.477   6.460  0.2437  0.0281 -0.0070
 2101TIP3    H127718   0.981   2.472   6.388 -1.1655  0.6438 -1.3257
 2101TIP3    H227719   0.910   2.571   6.478  0.5663 -0.1131  0.9873
 2102TIP3   OH227720   6.340   4.192  16.917 -0.0896  0.0506  0.7750
 2102TIP3    H127721   6.339   4.269  16.861  0.1842  0.0980  0.8348
 2102TIP3    H227722   6.349   4.227  17.006 -0.5520 -0.0223  0.8524
 2103TIP3   OH227723   1.775   3.072   4.595  0.0767  0.1877 -0.1522
 2103TIP3    H127724   1.702   3.024   4.635 -0.6547  2.5881  1.6109
 2103TIP3    H227725   1.739   3.105   4.513 -0.8179  1.1535  0.5934
 2104TIP3   OH227726   4.503   4.212  13.189 -0.2053  0.1825  0.1390
 2104TIP3    H127727   4.480   4.120  13.179  1.6037 -0.2340 -0.6928
 2104TIP3    H227728   4.551   4.215  13.272 -0.4206  0.4094  0.2554
 2105TIP3   OH227729   5.403   3.198  14.168  0.3840 -0.2154  0.0034
 2105TIP3    H127730   5.359   3.274  14.206  1.1373 -0.8874  2.4598
 2105TIP3    H227731   5.336   3.154  14.117 -0.9649  0.4190  1.1514
 2106TIP3   OH227732   1.905   0.647   3.484  0.7471  0.0288  0.5953
 2106TIP3    H127733   1.912   0.563   3.529  0.4673  0.4918  1.5234
 2106TIP3    H227734   1.834   0.635   3.420  0.8281 -0.4836  0.5982
 2107TIP3   OH227735   6.165   0.058   3.074 -0.1618 -0.0976 -0.8978
 2107TIP3    H127736   6.182   0.105   2.993  1.8191  0.0677 -0.4326
 2107TIP3    H227737   6.082   0.013   3.059 -0.7616  1.3953 -2.3176
 2108TIP3   OH227738   3.235   4.848   0.710  0.0130  0.4989  0.2882
 2108TIP3    H127739   3.194   4.915   0.765 -0.3581 -1.5886  2.7882
 2108TIP3    H227740   3.302   4.895   0.660  0.7081  2.5648  2.9141
 2109TIP3   OH227741   4.896   3.011  15.486  0.3191  0.1504  0.6488
 2109TIP3    H127742   4.868   3.101  15.467  0.5595  0.2364  0.7008
 2109TIP3    H227743   4.816   2.967  15.514 -0.1579 -0.1023 -0.9873
 2110TIP3   OH227744   0.626   1.268   2.340 -0.4968 -0.8091  0.0904
 2110TIP3    H127745   0.629   1.218   2.422 -0.1487 -0.1798  0.4717
 2110TIP3    H227746   0.554   1.330   2.351 -0.5045 -0.7783 -0.1176
 2111TIP3   OH227747   0.049   3.197  14.592  0.9743  0.3344 -0.7965
 2111TIP3    H127748  -0.010   3.213  14.519 -0.9744  0.1510  0.6788
 2111TIP3    H227749   0.106   3.274  14.594  1.0191  0.3750 -2.4344
 2112TIP3   OH227750   6.162   5.371  15.485  0.1965  0.4545 -0.5771
 2112TIP3    H127751   6.084   5.319  15.504 -0.0546  1.0467  0.0640
 2112TIP3    H227752   6.153   5.396  15.393 -1.4176  2.2089  0.0019
 2113TIP3   OH227753   1.579   5.227  14.767  0.9934 -1.3168 -0.2505
 2113TIP3    H127754   1.584   5.320  14.744 -2.2699 -0.8539  0.3159
 2113TIP3    H227755   1.563   5.182  14.684 -2.1100 -0.6796 -0.1426
 2114TIP3   OH227756   5.961   2.990   1.856  0.4482  0.1048  0.4588
 2114TIP3    H127757   6.017   3.022   1.785  1.3634 -2.1427  0.0869
 2114TIP3    H227758   5.969   2.895   1.852  0.1783 -0.1139  3.3305
 2115TIP3   OH227759   2.653   6.214   4.283 -0.4331 -0.0075 -0.0227
 2115TIP3    H127760   2.578   6.171   4.242 -0.6676  1.0894 -0.7974
 2115TIP3    H227761   2.624   6.232   4.372 -1.6893  1.7029 -0.7133
 2116TIP3   OH227762   2.402   3.024  15.250 -0.1173  0.3180 -0.0138
 2116TIP3    H127763   2.393   3.088  15.180  0.7460  2.2106  1.4892
 2116TIP3    H227764   2.495   3.028  15.274 -0.3318 -0.4477  1.0433
 2117TIP3   OH227765   0.454   2.005   1.265 -0.6748  0.4572  0.1130
 2117TIP3    H127766   0.414   2.091   1.277 -1.3582  0.2802 -0.7853
 2117TIP3    H227767   0.433   1.981   1.175  1.1343  0.1716 -0.2903
 2118TIP3   OH227768   4.481   2.035   6.174  0.4864 -0.2758 -0.2362
 2118TIP3    H127769   4.454   2.086   6.251 -0.1270  1.1190 -1.3368
 2118TIP3    H227770   4.399   2.010   6.132  0.8237 -0.8814 -0.5447
 2119TIP3   OH227771   3.106   4.458  13.373 -0.7607 -0.3690  0.4347
 2119TIP3    H127772   3.018   4.494  13.360 -0.2089  1.1665  0.8271
 2119TIP3    H227773   3.156   4.529  13.411  0.6132 -1.2986  0.4341
 2120TIP3   OH227774   2.575   6.793  16.368 -0.0394 -0.4315 -0.4274
 2120TIP3    H127775   2.559   6.856  16.297 -0.3144 -2.4782 -2.2810
 2120TIP3    H227776   2.504   6.730  16.361  0.0664 -0.8277  1.5598
 2121TIP3   OH227777   3.091   0.648  11.441 -0.3038 -0.4013 -0.1042
 2121TIP3    H127778   3.161   0.591  11.473  0.4465  0.2476 -0.5947
 2121TIP3    H227779   3.094   0.639  11.346  0.5574  1.3165 -0.2576
 2122TIP3   OH227780   4.292   3.555  16.779  0.2150 -0.0348  0.2636
 2122TIP3    H127781   4.217   3.571  16.721 -0.6035  1.4462  1.6447
 2122TIP3    H227782   4.364   3.604  16.740 -0.1165  0.3022  0.0727
 2123TIP3   OH227783   5.514   5.294   2.094 -0.1338  0.4351 -0.0120
 2123TIP3    H127784   5.440   5.353   2.106  1.7147  3.2409 -1.3253
 2123TIP3    H227785   5.566   5.305   2.173  0.1611  0.4626 -0.2106
 2124TIP3   OH227786   2.084   1.092   0.337 -0.5565  0.3807 -0.2584
 2124TIP3    H127787   2.028   1.075   0.413 -0.3560  0.0114 -0.1871
 2124TIP3    H227788   2.043   1.166   0.293 -1.2094 -0.0027 -0.3132
 2125TIP3   OH227789   1.818   1.554  12.612 -0.1873 -0.4928 -0.3343
 2125TIP3    H127790   1.881   1.567  12.541 -1.1477  1.9750 -0.8318
 2125TIP3    H227791   1.851   1.610  12.683 -0.3161 -1.4031  0.4693
 2126TIP3   OH227792   5.177   6.306  14.892 -0.6457  0.2332 -0.0772
 2126TIP3    H127793   5.105   6.352  14.849 -0.6803  2.9198  2.5693
 2126TIP3    H227794   5.249   6.369  14.893  0.5366 -1.0635  0.6404
 2127TIP3   OH227795   3.542   2.410  12.143 -0.6680 -0.2039 -0.6591
 2127TIP3    H127796   3.503   2.497  12.153 -0.8008 -0.2930 -0.3832
 2127TIP3    H227797   3.474   2.350  12.174 -0.2533 -0.3531 -0.0179
 2128TIP3   OH227798   1.288   4.135  12.619 -0.4510  0.3034 -0.4341
 2128TIP3    H127799   1.256   4.218  12.653 -0.8919 -0.0861  0.1319
 2128TIP3    H227800   1.381   4.149  12.603 -0.6658  1.1161 -1.0235
 2129TIP3   OH227801   2.563   0.545  17.046 -0.0274  1.4314  0.1657
 2129TIP3    H127802   2.644   0.550  17.097 -1.0246  0.7483  1.9093
 2129TIP3    H227803   2.555   0.453  17.022 -0.7385  1.3090  0.8227
 2130TIP3   OH227804   0.112   2.807   3.824  0.3782  0.5273 -0.3578
 2130TIP3    H127805   0.153   2.884   3.863 -0.1468  0.3485  0.5836
 2130TIP3    H227806   0.096   2.748   3.898 -0.3104  0.0222 -0.8925
 2131TIP3   OH227807   0.488   4.159  11.419  0.1630 -0.1440  0.2111
 2131TIP3    H127808   0.511   4.088  11.358 -1.2717 -2.2627  1.9815
 2131TIP3    H227809   0.464   4.114  11.500  0.6130  2.4968  1.9161
 2132TIP3   OH227810   2.273   1.232   3.859  0.3910 -0.2736 -0.0464
 2132TIP3    H127811   2.301   1.169   3.926 -0.7050 -0.3386  0.3706
 2132TIP3    H227812   2.244   1.177   3.786  2.0270 -0.2032 -0.8102
 2133TIP3   OH227813   0.926   5.437   2.285  0.8875 -0.2922  0.8190
 2133TIP3    H127814   0.877   5.354   2.285  1.0033 -0.3601  0.9500
 2133TIP3    H227815   0.949   5.452   2.377  0.9834 -0.1832  0.7775
 2134TIP3   OH227816   6.371   1.129  16.677  0.6570 -0.1512 -0.2966
 2134TIP3    H127817   6.407   1.052  16.632  1.4806 -1.5871  2.5916
 2134TIP3    H227818   6.385   1.111  16.770  0.6827  3.4274  0.5272
 2135TIP3   OH227819   3.430   5.334  14.343  0.4956  0.1688  0.6446
 2135TIP3    H127820   3.383   5.412  14.313  1.6408  0.0886 -1.5886
 2135TIP3    H227821   3.394   5.263  14.290  2.0480 -0.1371 -0.0622
 2136TIP3   OH227822   6.236   4.369  12.275  0.1140  0.1715 -0.0313
 2136TIP3    H127823   6.203   4.458  12.287  1.2846  0.5509  0.5086
 2136TIP3    H227824   6.316   4.365  12.328  0.6393 -0.8751 -0.8513
 2137TIP3   OH227825   2.549   1.948   4.755 -0.2791  0.5942  0.4195
 2137TIP3    H127826   2.458   1.960   4.730 -0.1509 -0.1818 -0.4832
 2137TIP3    H227827   2.588   1.898   4.683  0.9620  1.2578  0.5862
 2138TIP3   OH227828   6.768   1.078  14.616 -0.1910  0.0166 -0.5510
 2138TIP3    H127829   6.782   1.158  14.565  2.9212  0.1011  0.2501
 2138TIP3    H227830   6.727   1.108  14.697  0.4263  0.7276 -0.4966
 2139TIP3   OH227831   4.313   2.884   5.263  0.1556 -0.7567 -0.4699
 2139TIP3    H127832   4.392   2.913   5.217  0.0263 -1.1300 -0.9279
 2139TIP3    H227833   4.334   2.796   5.292  0.7260 -0.0841  1.3344
 2140TIP3   OH227834   3.105   2.492   2.656  0.1486  0.1231  0.4624
 2140TIP3    H127835   3.106   2.402   2.624  2.4360 -0.3544  1.6172
 2140TIP3    H227836   3.061   2.488   2.741 -0.6860  0.3162  0.0507
 2141TIP3   OH227837   6.482   3.048  12.249  0.2661  0.3405 -0.1834
 2141TIP3    H127838   6.444   2.974  12.295  0.7065  0.6384  0.6908
 2141TIP3    H227839   6.464   3.031  12.157  0.4275 -0.8900 -0.0085
 2142TIP3   OH227840   5.473   5.119   6.608  0.0717 -0.1703 -0.5310
 2142TIP3    H127841   5.482   5.194   6.550 -0.6827  1.2374  1.0833
 2142TIP3    H227842   5.383   5.125   6.642 -0.1721 -2.0817 -0.6999
 2143TIP3   OH227843   2.961   3.100  14.175  0.6976  0.0279 -0.2524
 2143TIP3    H127844   2.930   3.034  14.112  0.1816  0.8322 -0.8508
 2143TIP3    H227845   3.015   3.050  14.236  0.5604 -0.9080 -0.8688
 2144TIP3   OH227846   0.496   6.174  12.521 -0.2860  0.2529  0.4476
 2144TIP3    H127847   0.454   6.113  12.459  0.7002  1.6291 -1.7115
 2144TIP3    H227848   0.428   6.193  12.586 -1.9891  0.0055 -1.1630
 2145TIP3   OH227849   2.662   2.226  15.615  0.0936 -0.0341  0.4227
 2145TIP3    H127850   2.645   2.153  15.674 -0.0447 -0.7823 -0.5348
 2145TIP3    H227851   2.743   2.202  15.569 -0.0315  0.3400 -0.0057
 2146TIP3   OH227852   1.405   3.705  13.516  0.3099 -0.2766 -0.4511
 2146TIP3    H127853   1.320   3.749  13.525 -0.4233 -1.5385 -0.9511
 2146TIP3    H227854   1.410   3.646  13.590 -0.0594 -1.4829 -1.3568
 2147TIP3   OH227855   2.612   2.488   5.037  0.1047 -0.1078 -0.2117
 2147TIP3    H127856   2.652   2.562   5.081 -1.3323  1.5570 -1.5530
 2147TIP3    H227857   2.686   2.442   4.995  0.8045  2.0389 -1.4550
 2148TIP3   OH227858   1.314   4.379   5.488  0.0261  0.6242 -0.5007
 2148TIP3    H127859   1.374   4.319   5.444 -0.7059  1.1069 -2.2597
 2148TIP3    H227860   1.261   4.416   5.417  0.8750  3.8770  0.4168
 2149TIP3   OH227861   4.675   3.339  14.358  0.0814 -0.4195  0.4025
 2149TIP3    H127862   4.629   3.265  14.319  0.3902 -0.2296 -0.3354
 2149TIP3    H227863   4.712   3.303  14.439  0.4570 -1.1597 -0.0761
 2150TIP3   OH227864   4.588   0.944  12.065 -0.3500  0.1666  0.8060
 2150TIP3    H127865   4.623   0.992  11.990 -0.6731  2.2271  1.9026
 2150TIP3    H227866   4.563   0.859  12.029 -0.6295  1.1287 -1.4538
 2151TIP3   OH227867   5.594   2.350  10.359 -0.1594 -0.5768 -0.2363
 2151TIP3    H127868   5.626   2.287  10.295  1.8213  1.1961 -1.1220
 2151TIP3    H227869   5.510   2.380  10.324 -0.3256 -1.5012 -0.6417
 2152TIP3   OH227870   2.233   6.230   0.722 -0.4121 -0.3449 -0.7393
 2152TIP3    H127871   2.222   6.151   0.669 -2.5782 -1.1722  0.8286
 2152TIP3    H227872   2.190   6.210   0.805  1.0352  1.6703  0.5800
 2153TIP3   OH227873   1.479   4.009  14.104  0.0640 -0.3538  0.1470
 2153TIP3    H127874   1.410   4.014  14.170 -0.0678 -0.8137  0.0420
 2153TIP3    H227875   1.553   3.970  14.150  0.1760 -0.0966  0.1902
 2154TIP3   OH227876   3.793   4.458   6.621  0.2530  0.2080 -0.7637
 2154TIP3    H127877   3.712   4.421   6.585  1.2401 -2.2043 -0.7159
 2154TIP3    H227878   3.842   4.382   6.652  2.2572  1.6560 -0.1657
 2155TIP3   OH227879   0.435   6.080   2.453 -0.4211 -0.6682  0.4298
 2155TIP3    H127880   0.382   6.083   2.532 -0.2491 -0.6601  0.5461
 2155TIP3    H227881   0.525   6.075   2.485 -0.2213  1.1428  0.2655
 2156TIP3   OH227882   5.410   5.091  14.422  0.0275  0.0449 -0.0998
 2156TIP3    H127883   5.502   5.111  14.443  1.0432 -2.8341 -1.2335
 2156TIP3    H227884   5.359   5.140  14.486  2.3856  1.1709  1.0465
 2157TIP3   OH227885   4.951   6.798  11.449  0.3235 -0.1863 -0.3347
 2157TIP3    H127886   4.949   6.739  11.374  0.5356 -0.7841  0.1192
 2157TIP3    H227887   5.020   6.763  11.505  0.1431  0.2292  0.1573
 2158TIP3   OH227888   4.392   0.432  15.288  0.8787 -0.3936  0.9356
 2158TIP3    H127889   4.299   0.443  15.305  0.7273  0.3296 -0.2815
 2158TIP3    H227890   4.419   0.512  15.243  1.5964 -1.4604 -0.6531
 2159TIP3   OH227891   1.365   4.183   0.708 -0.1495 -0.2955 -0.0000
 2159TIP3    H127892   1.382   4.198   0.615 -0.5506  1.1699  0.1441
 2159TIP3    H227893   1.276   4.149   0.711  0.1003 -0.9834 -0.1917
 2160TIP3   OH227894   5.388   6.263   1.472  0.1547  0.2570 -0.3030
 2160TIP3    H127895   5.456   6.330   1.465 -0.6523  0.9315 -4.4335
 2160TIP3    H227896   5.417   6.194   1.412 -1.1306 -1.1142  0.5887
 2161TIP3   OH227897   4.749   2.229   2.309  0.3160 -0.3074  0.2923
 2161TIP3    H127898   4.733   2.172   2.234  2.5377 -1.1000  0.3740
 2161TIP3    H227899   4.753   2.317   2.272 -0.2251 -0.5100 -0.2607
 2162TIP3   OH227900   5.434   0.606   0.227 -0.0009 -0.1418 -0.5051
 2162TIP3    H127901   5.339   0.618   0.238 -0.3616 -2.9751  0.1529
 2162TIP3    H227902   5.473   0.659   0.296 -1.2757 -0.9541  0.9029
 2163TIP3   OH227903   2.381   5.015   0.304  0.0084  0.1924  0.3372
 2163TIP3    H127904   2.451   4.992   0.243 -1.6584  0.9148 -1.9604
 2163TIP3    H227905   2.422   5.078   0.364  1.4150  0.2844 -0.6654
 2164TIP3   OH227906   3.340   1.875   2.419  0.5220 -0.5087  1.0682
 2164TIP3    H127907   3.404   1.945   2.434  1.0564 -1.0791  1.5623
 2164TIP3    H227908   3.257   1.920   2.404  1.2979  0.3143 -1.0944
 2165TIP3   OH227909   4.274   3.266  13.887  0.1060 -0.4115  0.2689
 2165TIP3    H127910   4.325   3.323  13.829  3.3286 -1.5457  1.7243
 2165TIP3    H227911   4.322   3.267  13.970 -1.9694 -2.1184  1.5920
 2166TIP3   OH227912   4.934   1.782  12.955 -0.4415 -0.4762  0.0262
 2166TIP3    H127913   4.930   1.877  12.965  1.3890 -0.3089 -0.3968
 2166TIP3    H227914   4.848   1.751  12.983 -0.4265  1.1347  2.0686
 2167TIP3   OH227915   4.468   4.294   5.454 -0.1777 -0.0729 -0.1590
 2167TIP3    H127916   4.417   4.293   5.373 -0.7908  1.5019  0.1784
 2167TIP3    H227917   4.530   4.365   5.442 -0.1274  0.0234  0.6735
 2168TIP3   OH227918   5.572   1.904   1.976  1.0147 -0.7530 -0.1147
 2168TIP3    H127919   5.602   1.859   1.897  1.1882  0.2964 -0.6567
 2168TIP3    H227920   5.647   1.956   2.004  0.6564 -0.4113  0.2240
 2169TIP3   OH227921   6.517   1.837  11.634  0.5859  0.6249 -0.0174
 2169TIP3    H127922   6.511   1.900  11.706  0.8043 -1.3810  1.8380
 2169TIP3    H227923   6.611   1.830  11.616  0.6593  0.0188  0.5609
 2170TIP3   OH227924   4.472   6.358  13.597 -0.4308 -0.5840 -0.0111
 2170TIP3    H127925   4.423   6.291  13.550  0.3240 -1.1992  0.0637
 2170TIP3    H227926   4.564   6.335  13.585 -0.0419  1.4055 -1.4499
 2171TIP3   OH227927   5.644   2.732   1.274 -0.1186 -0.1597  0.2348
 2171TIP3    H127928   5.548   2.730   1.273 -0.1638  0.7049 -1.9480
 2171TIP3    H227929   5.666   2.771   1.358 -1.7036  0.4124  0.4237
 2172TIP3   OH227930   1.311   1.878   2.642 -0.1164 -0.0940 -0.3444
 2172TIP3    H127931   1.325   1.865   2.548 -0.2890 -1.0406 -0.2481
 2172TIP3    H227932   1.318   1.972   2.654 -2.0220  0.2739 -1.6307
 2173TIP3   OH227933   2.070   2.814  13.525  0.1355  0.0939  0.0951
 2173TIP3    H127934   2.134   2.796  13.455  0.7311  0.2202  0.5974
 2173TIP3    H227935   2.065   2.909  13.527  0.8380  0.1232  0.8531
 2174TIP3   OH227936   0.880   0.893  16.553  0.7084  0.1497 -0.2438
 2174TIP3    H127937   0.891   0.951  16.628  0.7157  0.4798 -0.5008
 2174TIP3    H227938   0.827   0.943  16.491 -0.2738 -0.5366  0.0047
 2175TIP3   OH227939   1.765   3.451   3.685 -0.1155 -0.0032  0.1930
 2175TIP3    H127940   1.755   3.544   3.665 -0.6305 -0.1120 -0.0793
 2175TIP3    H227941   1.677   3.415   3.676  0.2208 -0.6817 -0.5400
 2176TIP3   OH227942   2.236   6.799   3.903  0.3054  0.4307 -0.6773
 2176TIP3    H127943   2.252   6.791   3.997  2.0975 -3.3759 -1.1127
 2176TIP3    H227944   2.308   6.853   3.870  0.6451  0.3598 -0.0673
 2177TIP3   OH227945   0.830   0.420  12.991 -0.8452  0.0270  0.6753
 2177TIP3    H127946   0.841   0.507  13.030 -1.8405  0.7546 -0.6070
 2177TIP3    H227947   0.893   0.419  12.918  0.5301 -1.0773  1.8093
 2178TIP3   OH227948   4.548   1.117  12.844  0.3478 -0.4556  0.0700
 2178TIP3    H127949   4.618   1.149  12.787 -0.5986  1.6447 -0.0329
 2178TIP3    H227950   4.468   1.139  12.796 -0.4308  0.2392  1.6414
 2179TIP3   OH227951   2.329   0.717  16.677 -0.1044  0.2628  0.2851
 2179TIP3    H127952   2.329   0.779  16.749  0.2629  0.3392  0.2207
 2179TIP3    H227953   2.249   0.737  16.628  0.2524  0.9988 -0.0009
 2180TIP3   OH227954   1.020   6.478   2.380  0.5995 -0.3088 -0.6734
 2180TIP3    H127955   1.056   6.519   2.301 -0.0510 -0.4049 -1.0258
 2180TIP3    H227956   1.086   6.414   2.406  0.0510 -1.5216 -2.1593
 2181TIP3   OH227957   0.115   5.099  14.362 -0.7108 -0.2747 -0.2927
 2181TIP3    H127958   0.075   5.062  14.284  0.0772  1.0954 -1.3808
 2181TIP3    H227959   0.191   5.043  14.379  1.2984  1.4912 -2.7500
 2182TIP3   OH227960   1.012   2.804  16.997  0.5943 -0.1540  0.2622
 2182TIP3    H127961   1.009   2.787  16.902 -0.5949 -0.8518  0.4078
 2182TIP3    H227962   0.957   2.736  17.035  0.7231  0.3771  1.4343
 2183TIP3   OH227963   1.810   1.638  13.888  0.3325  0.2769  0.1121
 2183TIP3    H127964   1.762   1.670  13.965 -1.0994  0.6147 -0.8659
 2183TIP3    H227965   1.741   1.615  13.825  1.4555 -0.4410 -0.8985
 2184TIP3   OH227966   6.073   5.224   1.728 -0.5763 -0.0297  0.3921
 2184TIP3    H127967   6.042   5.136   1.748 -1.0718  0.4427  1.8248
 2184TIP3    H227968   6.052   5.275   1.806 -0.9688  1.5331 -0.6896
 2185TIP3   OH227969   5.799   3.402   5.213 -0.5674 -0.0490  0.2077
 2185TIP3    H127970   5.780   3.496   5.215 -0.4197 -0.0185  0.1784
 2185TIP3    H227971   5.733   3.363   5.270  0.0048  0.1885  1.0632
 2186TIP3   OH227972   1.604   0.647   4.724 -0.0508 -0.7843  0.0495
 2186TIP3    H127973   1.611   0.742   4.740 -0.6635 -0.9295  1.2912
 2186TIP3    H227974   1.666   0.630   4.653  0.9289  0.3569  0.6046
 2187TIP3   OH227975   6.564   4.750  16.005  0.2302 -0.2461  0.0647
 2187TIP3    H127976   6.506   4.706  15.942 -2.3479  0.2981  1.8996
 2187TIP3    H227977   6.558   4.696  16.084  1.1842  0.5993  0.7395
 2188TIP3   OH227978   4.459   0.312  12.835 -0.1481  0.2809 -0.0261
 2188TIP3    H127979   4.551   0.284  12.831 -0.4365 -1.0912  1.6259
 2188TIP3    H227980   4.443   0.354  12.750  2.1933  1.2295 -0.0788
 2189TIP3   OH227981   2.289   3.988  14.953 -0.4008  0.4772 -0.9880
 2189TIP3    H127982   2.231   3.928  15.000 -0.9615  0.4309 -1.7101
 2189TIP3    H227983   2.302   4.061  15.013  0.2725 -0.3456 -0.1068
 2190TIP3   OH227984   2.465   4.749  14.375 -0.6674 -0.0385 -0.0219
 2190TIP3    H127985   2.484   4.808  14.302  0.4807  0.9161  0.9976
 2190TIP3    H227986   2.405   4.798  14.431  0.5418  0.3501  0.9942
 2191TIP3   OH227987   6.785   1.874  13.419  0.7804 -0.6556  0.1236
 2191TIP3    H127988   6.841   1.951  13.416  0.7142 -0.6498 -1.5748
 2191TIP3    H227989   6.828   1.811  13.361 -0.7034 -0.8320 -0.8174
 2192TIP3   OH227990   2.438   2.869  16.668 -0.0754  0.3690  0.1646
 2192TIP3    H127991   2.420   2.788  16.716  1.3141 -0.7112 -1.0282
 2192TIP3    H227992   2.352   2.901  16.641 -0.6584 -0.6837  0.7220
 2193TIP3   OH227993   4.147   1.734  11.882 -0.8907  0.3283 -0.3853
 2193TIP3    H127994   4.094   1.665  11.842 -0.1136 -0.2371 -0.4542
 2193TIP3    H227995   4.227   1.737  11.829  0.7878 -1.3759  1.8703
 2194TIP3   OH227996   2.710   4.445  15.947  0.3435  0.3619  0.4404
 2194TIP3    H127997   2.635   4.444  16.006 -0.8540  0.5799 -1.0112
 2194TIP3    H227998   2.734   4.537  15.940 -0.6124  0.5559 -0.6834
 2195TIP3   OH227999   0.825   5.806  16.375 -0.8220  0.2876  0.3730
 2195TIP3    H128000   0.753   5.846  16.424  0.4977  0.6516  2.1017
 2195TIP3    H228001   0.793   5.719  16.352 -1.8948  0.5222  0.8983
 2196TIP3   OH228002   0.994   3.987   4.473 -0.0024 -0.3225  0.4461
 2196TIP3    H128003   1.084   4.019   4.467 -0.2195  0.1571 -0.4304
 2196TIP3    H228004   0.990   3.917   4.408 -1.8022  3.4829 -4.0997
 2197TIP3   OH228005   5.812   0.381  13.809  0.0886  0.3470  0.2275
 2197TIP3    H128006   5.730   0.334  13.825  0.3082 -0.1737 -0.1555
 2197TIP3    H228007   5.826   0.432  13.889 -0.1349 -0.2621  0.6635
 2198TIP3   OH228008   4.297   3.762  15.246  0.2863  0.0328 -0.2285
 2198TIP3    H128009   4.301   3.798  15.335  0.1247  0.3662 -0.3557
 2198TIP3    H228010   4.353   3.819  15.194  0.0963  0.0537 -0.4140
 2199TIP3   OH228011   3.543   4.499  14.204 -0.0120 -0.7287 -0.2945
 2199TIP3    H128012   3.533   4.432  14.137 -1.5541  0.5058 -1.3914
 2199TIP3    H228013   3.464   4.491  14.258 -0.1641  0.0920 -0.3729
 2200TIP3   OH228014   6.785   2.800  11.125  0.5459  0.0588 -0.1849
 2200TIP3    H128015   6.697   2.779  11.156  0.9650 -2.0526 -0.2616
 2200TIP3    H228016   6.779   2.798  11.030  0.5688  0.4191 -0.1944
 2201TIP3   OH228017   3.299   1.324  16.787 -0.3084 -0.1533 -0.5200
 2201TIP3    H128018   3.336   1.269  16.856 -0.3555 -0.7617 -0.9736
 2201TIP3    H228019   3.251   1.263  16.731 -1.6442  0.5667 -0.1826
 2202TIP3   OH228020   3.579   2.676  16.036 -0.0895  0.3535  0.5076
 2202TIP3    H128021   3.549   2.587  16.017  0.5879 -0.1036  1.4829
 2202TIP3    H228022   3.500   2.730  16.031 -0.4783 -0.2651 -0.2780
 2203TIP3   OH228023   0.658   5.339  12.185 -0.2080 -0.2322 -0.1675
 2203TIP3    H128024   0.753   5.335  12.200  0.2894 -0.9530 -3.0692
 2203TIP3    H228025   0.635   5.430  12.208  0.8390 -0.4382  1.9950
 2204TIP3   OH228026   6.752   1.763   1.585  0.1788 -0.0872  0.1571
 2204TIP3    H128027   6.680   1.719   1.541 -1.0808  2.7728 -0.8979
 2204TIP3    H228028   6.831   1.730   1.541 -0.5474 -2.1141  0.2807
 2205TIP3   OH228029   5.291   4.282  16.380  0.5986  0.3343  0.4952
 2205TIP3    H128030   5.268   4.338  16.306  0.8350 -1.2125 -0.8158
 2205TIP3    H228031   5.207   4.257  16.418  0.3658 -0.2029 -0.3306
 2206TIP3   OH228032   5.019   1.822   4.005  1.0725  0.9617  0.6932
 2206TIP3    H128033   4.955   1.818   3.934  1.7287 -0.3432  0.1321
 2206TIP3    H228034   5.008   1.909   4.043 -0.0319  1.2866 -0.3122
 2207TIP3   OH228035   3.232   4.392  15.488  0.3137  0.0479 -0.1190
 2207TIP3    H128036   3.157   4.354  15.534  1.9372 -1.7083  1.2373
 2207TIP3    H228037   3.242   4.479  15.526 -1.0260  0.3150 -0.3377
 2208TIP3   OH228038   2.324   6.736   2.305  0.6161 -0.7814 -0.3786
 2208TIP3    H128039   2.414   6.710   2.322  0.9524  0.8397  0.5945
 2208TIP3    H228040   2.289   6.759   2.391  0.1609  1.1431 -1.0222
 2209TIP3   OH228041   2.043   3.118   3.870 -0.6245 -0.5026 -0.0694
 2209TIP3    H128042   2.082   3.178   3.935 -1.8436  0.2761 -0.0259
 2209TIP3    H228043   1.980   3.067   3.920  0.6073 -2.0801 -0.0494
 2210TIP3   OH228044   5.914   5.972   5.658 -0.0655  0.7480 -0.1331
 2210TIP3    H128045   5.851   6.017   5.713  1.9619  1.2904  1.9039
 2210TIP3    H228046   5.918   5.883   5.694  0.8781  0.9504  0.3005
 2211TIP3   OH228047   3.925   2.035  15.241  0.2880 -0.0959 -0.2459
 2211TIP3    H128048   3.989   1.996  15.301  0.0694  0.7990  0.6053
 2211TIP3    H228049   3.861   1.966  15.225  2.6427 -1.8664 -3.0437
 2212TIP3   OH228050   5.306   4.047   5.201  0.6559 -0.2619 -0.4087
 2212TIP3    H128051   5.348   4.057   5.287 -0.8776 -0.5334  0.4235
 2212TIP3    H228052   5.275   4.135   5.179  0.1638 -0.3700 -0.1777
 2213TIP3   OH228053   1.459   6.335   5.518 -0.2261 -0.6133 -0.1833
 2213TIP3    H128054   1.389   6.281   5.481 -0.4062 -0.4094 -0.1393
 2213TIP3    H228055   1.516   6.353   5.444 -0.2830 -0.6800 -0.2440
 2214TIP3   OH228056   2.180   5.223  15.952  0.1110  0.7301 -0.1167
 2214TIP3    H128057   2.197   5.244  15.860  0.5703  0.6727 -0.0472
 2214TIP3    H228058   2.110   5.159  15.949 -1.3264  2.2597 -0.3322
 2215TIP3   OH228059   5.034   0.390  16.955  0.0086  0.2720 -0.2627
 2215TIP3    H128060   4.998   0.479  16.951  1.0293  0.7786  1.0214
 2215TIP3    H228061   5.111   0.398  17.011  2.1745 -0.7645 -2.8430
 2216TIP3   OH228062   3.259   5.536  12.377  0.1715 -0.1303 -0.7055
 2216TIP3    H128063   3.275   5.593  12.451 -1.8631 -0.5841  0.1441
 2216TIP3    H228064   3.305   5.578  12.304 -0.1510  1.8602  0.1727
 2217TIP3   OH228065   5.765   5.050   2.090  0.4185  0.6544  0.4907
 2217TIP3    H128066   5.798   4.960   2.082  0.8690  0.8643 -0.1202
 2217TIP3    H228067   5.677   5.047   2.053 -0.3321  0.0679  2.2202
 2218TIP3   OH228068   2.685   0.025  10.535  0.1846 -0.2836  0.3777
 2218TIP3    H128069   2.661   0.002  10.625  1.2101 -0.5879  0.5789
 2218TIP3    H228070   2.762   0.080  10.543  0.4180 -0.4923 -0.3268
 2219TIP3   OH228071   5.460   5.477   3.428  0.9212 -0.3926 -0.3015
 2219TIP3    H128072   5.474   5.517   3.514  3.4086 -1.1320 -0.2959
 2219TIP3    H228073   5.547   5.450   3.399 -0.2519 -3.2103 -1.5836
 2220TIP3   OH228074   4.981   0.786   2.942  0.4674 -0.1593  0.6637
 2220TIP3    H128075   4.939   0.702   2.961 -0.4318  0.4918  1.6546
 2220TIP3    H228076   4.932   0.850   2.994 -0.9712  1.4972 -2.4391
 2221TIP3   OH228077   5.029   0.753   0.893  0.0510  0.3501  0.5133
 2221TIP3    H128078   5.081   0.674   0.876  0.3634  0.6554 -0.0012
 2221TIP3    H228079   4.941   0.731   0.863 -0.1172 -0.1543  1.3404
 2222TIP3   OH228080   2.354   5.512  16.912 -0.0093  0.0661 -0.4446
 2222TIP3    H128081   2.318   5.438  16.865  1.0353 -0.1946 -0.8724
 2222TIP3    H228082   2.331   5.497  17.004 -0.8650 -0.1376 -0.6880
 2223TIP3   OH228083   0.067   4.572   3.166  0.3217 -0.5113 -0.0012
 2223TIP3    H128084   0.008   4.601   3.098 -0.8507  0.7792  1.4916
 2223TIP3    H228085   0.127   4.645   3.179 -0.4029 -0.1276  1.3411
 2224TIP3   OH228086   4.249   0.061   3.401 -0.1985 -0.3885 -0.4619
 2224TIP3    H128087   4.212   0.080   3.314  0.4724 -0.7514 -0.8370
 2224TIP3    H228088   4.261   0.148   3.441 -1.9854 -0.2859 -0.0871
 2225TIP3   OH228089   4.217   0.022  16.670 -0.4620  0.0111 -0.3344
 2225TIP3    H128090   4.252   0.080  16.602 -1.1572  0.5801 -0.2221
 2225TIP3    H228091   4.282   0.025  16.740 -0.9387  1.4631  0.0933
 2226TIP3   OH228092   0.005   5.859  14.156 -0.0459  0.5403 -0.0261
 2226TIP3    H128093   0.070   5.801  14.194  0.7043  1.4896  0.1935
 2226TIP3    H228094  -0.054   5.801  14.109  0.4627 -0.4240  0.4868
 2227TIP3   OH228095   0.438   2.989   0.102 -0.0601  0.3243  0.3517
 2227TIP3    H128096   0.354   2.958   0.068  0.1154 -0.2833  0.4637
 2227TIP3    H228097   0.417   3.022   0.190 -0.3449  1.0479  0.0251
 2228TIP3   OH228098   4.424   4.879   1.348  0.1551 -0.3105  0.6768
 2228TIP3    H128099   4.411   4.856   1.256  3.4188 -0.9908  0.2782
 2228TIP3    H228100   4.456   4.969   1.346 -2.0377  0.5599  1.4212
 2229TIP3   OH228101   2.809   4.880  17.114  0.2412  0.1903  0.0793
 2229TIP3    H128102   2.882   4.933  17.144  1.5093 -1.6569  0.4312
 2229TIP3    H228103   2.850   4.810  17.063 -1.5851  1.2977 -3.2154
 2230TIP3   OH228104   3.162   1.782   3.881  0.2864  0.6626  0.2114
 2230TIP3    H128105   3.215   1.765   3.804  0.6156  0.8864  0.3839
 2230TIP3    H228106   3.193   1.867   3.913 -0.7581  1.2105 -0.1722
 2231TIP3   OH228107   6.222   0.811  11.309  0.0275  0.0188  0.3209
 2231TIP3    H128108   6.187   0.797  11.220  0.7002 -1.1155  0.2150
 2231TIP3    H228109   6.225   0.723  11.347 -0.4965  0.5261  1.5796
 2232TIP3   OH228110   0.292   1.366   2.736 -0.4239  0.2009 -0.3166
 2232TIP3    H128111   0.348   1.288   2.736  0.5601  0.8221 -2.2783
 2232TIP3    H228112   0.319   1.415   2.814 -0.6690 -1.1349  0.6353
 2233TIP3   OH228113   2.055   3.954   0.898 -0.4831  0.0477 -0.5548
 2233TIP3    H128114   2.016   3.946   0.811 -2.1571 -0.6071  0.2306
 2233TIP3    H228115   1.986   3.928   0.959 -0.8891  4.4808  1.2799
 2234TIP3   OH228116   0.335   5.498  12.570 -0.2878 -0.1717  0.0530
 2234TIP3    H128117   0.411   5.552  12.593 -0.6034  0.4135 -0.2400
 2234TIP3    H228118   0.371   5.411  12.553  0.5003  0.3797 -1.2874
 2235TIP3   OH228119   4.923   5.966  12.799  0.0325 -0.2160  0.3130
 2235TIP3    H128120   4.992   5.938  12.739 -0.8538  1.0530 -1.3800
 2235TIP3    H228121   4.971   6.001  12.875  1.1704 -3.0910  1.0948
 2236TIP3   OH228122   5.667   5.605  15.410 -0.5543  0.2303  0.5587
 2236TIP3    H128123   5.585   5.610  15.361  0.5089  0.8067 -1.2653
 2236TIP3    H228124   5.695   5.695  15.419  0.7142 -0.0527 -0.3611
 2237TIP3   OH228125   4.016   6.751  11.276 -0.3479 -0.1924  0.2557
 2237TIP3    H128126   3.980   6.839  11.271 -0.4415 -0.2002  0.7023
 2237TIP3    H228127   3.953   6.702  11.330 -1.2982 -1.0453 -1.5380
 2238TIP3   OH228128   0.722   2.231  14.849 -0.4096 -0.9980  0.1789
 2238TIP3    H128129   0.753   2.153  14.802  0.4667  0.1236 -1.1982
 2238TIP3    H228130   0.715   2.298  14.781  1.6171  0.9326  1.7458
 2239TIP3   OH228131   6.322   4.898   2.866  0.0128 -0.2251 -0.1062
 2239TIP3    H128132   6.242   4.924   2.912 -0.5166 -1.5600 -0.2354
 2239TIP3    H228133   6.300   4.815   2.824  1.0386  0.0854 -1.3091
 2240TIP3   OH228134   5.011   2.327  13.272 -0.3674  0.0833  0.3080
 2240TIP3    H128135   4.955   2.405  13.275 -1.3243 -0.5669 -0.1201
 2240TIP3    H228136   4.993   2.282  13.355  0.4104  0.4534  0.6902
 2241TIP3   OH228137   2.401   6.066  16.174 -0.0501 -0.3295 -0.0461
 2241TIP3    H128138   2.312   6.078  16.207  0.1666  0.2666  0.3375
 2241TIP3    H228139   2.440   6.002  16.234  0.2650  0.5676  0.7385
 2242TIP3   OH228140   5.909   1.815  15.334  0.1482 -1.1321  0.6193
 2242TIP3    H128141   5.981   1.877  15.325  0.0753 -0.5483  3.2474
 2242TIP3    H228142   5.941   1.735  15.293  2.6829 -1.1490  2.4178
 2243TIP3   OH228143   0.202   3.450   1.584 -0.2023 -0.3413 -0.7074
 2243TIP3    H128144   0.238   3.371   1.544 -0.4686 -0.2462 -1.1493
 2243TIP3    H228145   0.276   3.489   1.631 -0.3671 -1.4724  0.5204
 2244TIP3   OH228146   6.328   5.024  14.254  0.4900  0.3605  0.0767
 2244TIP3    H128147   6.332   4.930  14.238  1.1150  0.2742  0.7056
 2244TIP3    H228148   6.341   5.064  14.168  1.4824 -0.1149 -0.0113
 2245TIP3   OH228149   1.231   5.859  14.375 -0.5235 -0.1282 -0.1176
 2245TIP3    H128150   1.165   5.836  14.309 -0.0448 -0.7683 -0.3768
 2245TIP3    H228151   1.315   5.843  14.332 -0.1755  1.3081 -0.0162
 2246TIP3   OH228152   4.556   0.171  12.618  0.1454  0.2778  0.2917
 2246TIP3    H128153   4.591   0.131  12.538  1.7665  0.1552  1.0133
 2246TIP3    H228154   4.465   0.141  12.622 -0.1978  0.8868 -1.8674
 2247TIP3   OH228155   6.442   1.072  11.701  0.1243  0.1504 -0.6573
 2247TIP3    H128156   6.384   1.004  11.736  0.5383 -0.1773 -0.6061
 2247TIP3    H228157   6.463   1.127  11.777  1.8422 -1.1492 -0.1452
 2248TIP3   OH228158   3.295   5.997  15.357  0.2884  0.1419 -0.8673
 2248TIP3    H128159   3.340   5.912  15.361  0.0863  0.0678  0.1699
 2248TIP3    H228160   3.213   5.978  15.313 -1.8842 -1.2680  3.2545
 2249TIP3   OH228161   2.755   4.230  11.931  0.5889 -0.0634 -0.1211
 2249TIP3    H128162   2.810   4.283  11.874 -1.1737  0.7613 -1.1468
 2249TIP3    H228163   2.678   4.210  11.878 -0.3057 -0.7925  1.3921
 2250TIP3   OH228164   3.486   3.063   3.135 -0.0442  0.2243 -0.0665
 2250TIP3    H128165   3.429   3.139   3.146  0.1596  0.2950  0.5335
 2250TIP3    H228166   3.502   3.058   3.041  0.5277  1.3477 -0.0457
 2251TIP3   OH228167   6.537   0.370  10.627  0.0436  0.1811 -0.0938
 2251TIP3    H128168   6.587   0.294  10.658  1.2611  1.1351  0.3668
 2251TIP3    H228169   6.477   0.390  10.699  2.0740  1.6883  1.3097
 2252TIP3   OH228170   6.105   5.147   4.114 -0.1625 -0.1519 -0.0258
 2252TIP3    H128171   6.057   5.110   4.188 -0.0448 -0.0234  0.1154
 2252TIP3    H228172   6.042   5.205   4.071  0.1381  0.7405  0.7042
 2253TIP3   OH228173   6.230   2.581   1.162  0.5941  0.0461 -0.1896
 2253TIP3    H128174   6.198   2.546   1.079 -0.4308  0.0464  0.1953
 2253TIP3    H228175   6.160   2.562   1.224  0.1334  2.5035  0.1133
 2254TIP3   OH228176   1.267   1.553   4.566  0.0273  0.4161 -0.2422
 2254TIP3    H128177   1.361   1.571   4.575 -0.1480  1.0778  0.4243
 2254TIP3    H228178   1.243   1.590   4.482  0.2226  0.9180 -0.0804
 2255TIP3   OH228179   4.026   5.124   4.628 -0.0502  0.5173  0.0044
 2255TIP3    H128180   3.956   5.149   4.688  0.5809  0.0956  0.9256
 2255TIP3    H228181   4.089   5.076   4.681 -0.5292 -1.8514 -1.4221
 2256TIP3   OH228182   1.875   6.162  16.313 -0.2824  0.4533  0.1457
 2256TIP3    H128183   1.839   6.154  16.402 -0.6363 -0.6541 -0.0808
 2256TIP3    H228184   1.857   6.077  16.272  2.1282  0.0295 -0.1769
 2257TIP3   OH228185   4.766   0.303  12.802  0.2373  0.5148  0.1041
 2257TIP3    H128186   4.723   0.255  12.731 -1.2885 -0.1141  1.3839
 2257TIP3    H228187   4.841   0.248  12.826  0.7939  0.7551 -1.0139
 2258TIP3   OH228188   0.574   1.256   0.445  0.2386 -0.0794  0.1431
 2258TIP3    H128189   0.484   1.277   0.421  0.5861  0.1980 -0.9510
 2258TIP3    H228190   0.586   1.165   0.416  0.7379  0.3379 -1.0291
 2259TIP3   OH228191   2.525   1.267  10.404  0.2778 -0.0351  1.2108
 2259TIP3    H128192   2.462   1.267  10.475 -0.3355 -0.1439  0.6710
 2259TIP3    H228193   2.548   1.359  10.393  0.5321 -0.0385  1.6797
 2260TIP3   OH228194   1.740   0.915   4.793  0.3070 -0.3068  0.3514
 2260TIP3    H128195   1.657   0.950   4.760  0.3179 -0.9754 -0.4322
 2260TIP3    H228196   1.724   0.902   4.887 -0.1534  0.4551  0.3891
 2261TIP3   OH228197   2.651   0.511   2.853  0.3984 -0.9425 -0.3205
 2261TIP3    H128198   2.574   0.498   2.908  0.8203 -1.6921  0.1068
 2261TIP3    H228199   2.648   0.603   2.828 -1.0437 -1.1348 -0.9335
 2262TIP3   OH228200   3.437   2.092  11.331  0.2989 -0.0389  0.1632
 2262TIP3    H128201   3.447   2.055  11.419 -0.7905  0.9419  0.7308
 2262TIP3    H228202   3.344   2.079  11.310  0.6414 -0.7007 -1.0662
 2263TIP3   OH228203   2.276   5.329   4.770  0.2751 -0.2850 -0.2429
 2263TIP3    H128204   2.268   5.308   4.863 -0.4894  0.9951  0.0094
 2263TIP3    H228205   2.193   5.372   4.748  1.3682  1.5689 -0.9155
 2264TIP3   OH228206   5.678   2.246  16.650 -0.0367 -0.3946  0.0688
 2264TIP3    H128207   5.715   2.312  16.592  1.6266 -0.7640  0.6574
 2264TIP3    H228208   5.724   2.165  16.628 -2.2137 -1.4868 -0.8247
 2265TIP3   OH228209   1.595   1.555  14.558 -0.5763  0.2680  0.4136
 2265TIP3    H128210   1.608   1.512  14.643 -1.5709  0.8411  0.8604
 2265TIP3    H228211   1.502   1.546  14.539 -0.6422  1.4496  0.0864
 2266TIP3   OH228212   5.920   2.695  13.750  0.1037  0.5149  0.0387
 2266TIP3    H128213   5.853   2.703  13.682 -0.0483 -0.2339  0.0900
 2266TIP3    H228214   5.870   2.682  13.831  0.2954  0.9046  0.2204
 2267TIP3   OH228215   2.168   3.481   2.337 -0.5483 -0.2089  0.7964
 2267TIP3    H128216   2.257   3.465   2.368 -0.4123 -0.0062  0.5195
 2267TIP3    H228217   2.143   3.401   2.291  0.1226  0.3409 -0.5701
 2268TIP3   OH228218   1.057   6.736   3.555 -0.2735  0.0974  0.1996
 2268TIP3    H128219   1.114   6.729   3.479 -0.3832 -1.1340  0.2170
 2268TIP3    H228220   1.112   6.708   3.629 -0.3271  0.7719  0.5023
 2269TIP3   OH228221   6.169   0.314  16.053 -0.0964 -0.2059  0.0342
 2269TIP3    H128222   6.126   0.369  15.987  0.2492  0.4341  0.3324
 2269TIP3    H228223   6.241   0.368  16.085  0.1954 -0.8092  0.3945
 2270TIP3   OH228224   2.268   2.805  14.070 -0.2843  0.3760  0.0514
 2270TIP3    H128225   2.303   2.753  13.997 -1.9396  0.0528 -0.5662
 2270TIP3    H228226   2.213   2.743  14.119  1.2759  0.4214  1.9947
 2271TIP3   OH228227   2.361   4.443  11.719 -0.1204 -0.1243 -0.1837
 2271TIP3    H128228   2.354   4.477  11.808  0.1091 -1.0469  0.1966
 2271TIP3    H228229   2.331   4.352  11.725 -0.7793  0.0060 -1.1882
 2272TIP3   OH228230   2.808   3.195  11.984 -0.1306  0.0011 -0.4365
 2272TIP3    H128231   2.818   3.288  11.964  0.1420 -0.0663 -0.6356
 2272TIP3    H228232   2.893   3.157  11.962 -0.7578 -0.5788 -1.9684
 2273TIP3   OH228233   2.148   2.838   0.234 -0.0397 -0.3561 -0.1367
 2273TIP3    H128234   2.126   2.897   0.162  0.2387  0.8627  0.7546
 2273TIP3    H228235   2.065   2.825   0.280 -0.1535 -0.8927 -0.4759
 2274TIP3   OH228236   6.110   2.829   3.328  0.1543  0.0616  0.3260
 2274TIP3    H128237   6.091   2.823   3.234 -0.6294  1.8143  0.3377
 2274TIP3    H228238   6.205   2.821   3.334  0.4295  1.9327 -0.8483
 2275TIP3   OH228239   6.373   4.329   1.236 -0.0213  0.0562  0.2730
 2275TIP3    H128240   6.407   4.418   1.232  3.1092 -1.0642 -1.9069
 2275TIP3    H228241   6.342   4.311   1.146 -0.1690 -1.2075  0.5569
 2276TIP3   OH228242   2.103   3.605   3.897  0.2209 -0.0131 -0.2618
 2276TIP3    H128243   2.193   3.621   3.926  0.1074  1.2514 -0.5179
 2276TIP3    H228244   2.112   3.556   3.816  0.8620  2.5783 -1.8764
 2277TIP3   OH228245   4.826   0.059  13.088  0.1776  0.4020  0.6319
 2277TIP3    H128246   4.898   0.088  13.145 -0.5337 -0.5262  2.0656
 2277TIP3    H228247   4.750   0.057  13.146 -0.6268 -0.3655 -0.4276
 2278TIP3   OH228248   3.898   0.542   2.064  0.0049 -0.1256 -0.1021
 2278TIP3    H128249   3.874   0.633   2.083 -0.4564 -0.3686  0.5157
 2278TIP3    H228250   3.915   0.504   2.150 -1.4286 -1.0745 -0.2134
 2279TIP3   OH228251   5.647   0.191  12.306 -0.1741  0.2493 -0.4070
 2279TIP3    H128252   5.701   0.136  12.363  0.4874  1.0797 -0.1931
 2279TIP3    H228253   5.571   0.214  12.360 -1.0915 -1.4548 -0.9296
 2280TIP3   OH228254   6.575   0.153  16.766  0.1607 -0.5990 -0.5080
 2280TIP3    H128255   6.654   0.196  16.735 -2.1116  2.2946 -2.9714
 2280TIP3    H228256   6.547   0.098  16.692 -0.6445 -0.7652 -0.0975
 2281TIP3   OH228257   4.890   6.683   5.842  0.3009  0.3158 -0.9876
 2281TIP3    H128258   4.939   6.641   5.913 -0.4503  0.6058 -0.2853
 2281TIP3    H228259   4.880   6.614   5.776  0.1732 -0.2432 -0.3987
 2282TIP3   OH228260   2.806   6.024   0.626 -0.0581  0.1943  0.5764
 2282TIP3    H128261   2.816   6.069   0.710 -1.8498  3.3478 -0.7018
 2282TIP3    H228262   2.714   6.002   0.621 -0.3061  1.3581 -1.0539
 2283TIP3   OH228263   1.812   3.278  15.897 -0.0171 -0.1210 -0.6046
 2283TIP3    H128264   1.763   3.231  15.964  2.3520 -0.7801  0.8030
 2283TIP3    H228265   1.802   3.224  15.818  0.2770 -1.4686  0.2326
 2284TIP3   OH228266   0.397   6.282  11.859  0.5940 -0.2317  0.3386
 2284TIP3    H128267   0.427   6.191  11.859 -2.8099 -1.5334  2.0876
 2284TIP3    H228268   0.328   6.285  11.792 -1.1773  0.2213  2.0713
 2285TIP3   OH228269   1.056   4.895  16.921  0.1218 -0.6521 -0.0772
 2285TIP3    H128270   1.097   4.899  16.834 -1.3118 -2.7099 -0.9413
 2285TIP3    H228271   1.066   4.983  16.957  1.1702  0.1300 -2.1259
 2286TIP3   OH228272   1.223   1.701  16.219 -0.4971  0.0161 -0.2044
 2286TIP3    H128273   1.151   1.678  16.160  0.5926 -1.1627 -1.1173
 2286TIP3    H228274   1.297   1.648  16.190  0.1165 -0.5715  2.1940
 2287TIP3   OH228275   1.739   2.201  16.263 -0.0690  0.0849 -0.3923
 2287TIP3    H128276   1.717   2.110  16.243  0.2035 -0.0674 -0.0070
 2287TIP3    H228277   1.681   2.224  16.337  0.1421  0.0959 -0.2283
 2288TIP3   OH228278   4.255   5.472  13.529 -0.0876 -0.1326 -0.0344
 2288TIP3    H128279   4.285   5.554  13.567  0.2368 -0.2486 -0.0320
 2288TIP3    H228280   4.170   5.456  13.569 -1.1158  1.2339 -1.5389
 2289TIP3   OH228281   0.901   2.738   3.364  0.1091  0.0131 -0.0509
 2289TIP3    H128282   0.873   2.646   3.367 -0.4753  0.0681 -2.1201
 2289TIP3    H228283   0.968   2.745   3.431  0.1706 -1.9366  0.1523
 2290TIP3   OH228284   4.725   2.362  12.114 -0.5588 -0.1428 -0.4051
 2290TIP3    H128285   4.712   2.423  12.187  0.3478 -1.5549  0.9973
 2290TIP3    H228286   4.699   2.277  12.150  0.5605 -0.9739 -1.5058
 2291TIP3   OH228287   3.965   5.808   4.704 -0.0897  0.2503  0.2527
 2291TIP3    H128288   4.009   5.723   4.702 -0.2953  0.1294 -1.6749
 2291TIP3    H228289   4.036   5.871   4.715  0.2874 -0.0846 -0.2089
 2292TIP3   OH228290   2.558   4.317  11.151  0.0530 -0.4470  0.4382
 2292TIP3    H128291   2.467   4.299  11.174  0.0712 -0.1015  0.7753
 2292TIP3    H228292   2.599   4.345  11.233  0.5990 -1.1257  0.4166
 2293TIP3   OH228293   5.410   0.872  16.724  0.0415  0.7113  0.3620
 2293TIP3    H128294   5.468   0.843  16.653 -0.4783 -0.5575  0.4364
 2293TIP3    H228295   5.348   0.931  16.682  1.5248  2.3244  0.3278
 2294TIP3   OH228296   0.020   3.470  16.930  0.0851  0.4091  0.0619
 2294TIP3    H128297  -0.051   3.514  16.884 -2.1468 -1.0689  1.8650
 2294TIP3    H228298   0.046   3.530  16.999  1.7482  1.5840 -1.4735
 2295TIP3   OH228299   2.254   5.714  14.884  0.4653  0.4772 -0.0448
 2295TIP3    H128300   2.172   5.690  14.928  0.5246  1.6988  0.7931
 2295TIP3    H228301   2.231   5.714  14.791 -0.5445  0.9293  0.1815
 2296TIP3   OH228302   2.736   6.755   0.775 -0.1309 -0.0414  0.2661
 2296TIP3    H128303   2.734   6.851   0.782 -0.7597 -0.1086  1.2371
 2296TIP3    H228304   2.796   6.738   0.702  1.8657  1.0171  1.5549
 2297TIP3   OH228305   4.901   5.233   2.236 -0.1596  0.3871 -0.0670
 2297TIP3    H128306   4.958   5.285   2.293  0.4503 -0.7329  0.3798
 2297TIP3    H228307   4.840   5.296   2.200  0.1600  1.3151  0.9460
 2298TIP3   OH228308   0.312   4.306   0.105  0.1547 -0.1241 -0.1023
 2298TIP3    H128309   0.369   4.379   0.128 -0.0134  0.0910 -0.3620
 2298TIP3    H228310   0.361   4.256   0.040 -0.3844  0.6690 -1.1490
 2299TIP3   OH228311   1.382   1.591  14.241 -0.1932  0.0686 -0.4269
 2299TIP3    H128312   1.367   1.558  14.330 -2.2397  0.6694 -0.5111
 2299TIP3    H228313   1.409   1.515  14.191 -1.8743 -0.8960  0.0687
 2300TIP3   OH228314   5.094   3.560   3.296 -0.6308 -0.3630  0.1001
 2300TIP3    H128315   5.067   3.619   3.225  0.8246 -2.4506 -2.3582
 2300TIP3    H228316   5.028   3.490   3.295 -0.6742 -0.3370  0.9304
 2301TIP3   OH228317   4.265   0.337   3.457  0.3206 -0.3734  0.1559
 2301TIP3    H128318   4.302   0.334   3.545  0.3221 -0.4823  0.1517
 2301TIP3    H228319   4.234   0.427   3.447  0.7066 -0.2430  0.1104
 2302TIP3   OH228320   4.486   4.440   2.102 -0.1453  0.0181 -0.1729
 2302TIP3    H128321   4.470   4.426   2.195 -0.6222  0.0306 -0.2511
 2302TIP3    H228322   4.416   4.499   2.074 -0.7478 -0.9574 -0.8057
 2303TIP3   OH228323   1.887   6.262   2.201 -0.2436  0.3023  0.6991
 2303TIP3    H128324   1.814   6.324   2.198 -0.1205  0.4199 -0.0685
 2303TIP3    H228325   1.846   6.178   2.221 -0.5754  0.3944  0.4136
 2304TIP3   OH228326   0.855   6.486   5.366 -0.1601  0.5940 -0.0951
 2304TIP3    H128327   0.857   6.405   5.417 -2.1024  1.1972  1.0540
 2304TIP3    H228328   0.764   6.493   5.337 -0.4522  3.1346  1.1801
 2305TIP3   OH228329   4.910   4.018  13.384  0.5127 -0.1611 -0.1448
 2305TIP3    H128330   4.866   4.014  13.299  0.6349 -0.3969 -0.1980
 2305TIP3    H228331   4.858   4.081  13.434  0.2750 -0.2305 -0.2986
 2306TIP3   OH228332   5.450   0.637  15.757 -0.9832 -0.0890 -0.5490
 2306TIP3    H128333   5.402   0.647  15.839 -1.9636 -0.7731 -1.0301
 2306TIP3    H228334   5.512   0.710  15.757  0.7979 -1.4479  1.9823
 2307TIP3   OH228335   0.721   0.573   4.050 -0.3095 -0.1556 -0.1606
 2307TIP3    H128336   0.695   0.481   4.044 -0.3008 -0.3911  2.3875
 2307TIP3    H228337   0.722   0.592   4.143 -1.2918  2.7372 -0.6299
 2308TIP3   OH228338   4.807   2.819  15.937  0.3454 -0.2834  0.4391
 2308TIP3    H128339   4.743   2.885  15.961  2.3881  1.5970  1.0061
 2308TIP3    H228340   4.831   2.777  16.020  1.2404  0.3715  0.5245
 2309TIP3   OH228341   6.804   5.124  16.228  0.3828 -0.5250  0.7872
 2309TIP3    H128342   6.852   5.195  16.186 -0.8311  0.0404  0.2925
 2309TIP3    H228343   6.771   5.071  16.156 -0.1506 -0.6167  1.0913
 2310TIP3   OH228344   4.738   0.146  15.212 -0.0036 -0.3887 -0.3930
 2310TIP3    H128345   4.798   0.213  15.178  1.0098  0.1914  2.2739
 2310TIP3    H228346   4.651   0.184  15.202  0.3311  0.1226 -1.4700
 2311TIP3   OH228347   0.575   3.729  15.796 -0.5157  0.0130  0.6447
 2311TIP3    H128348   0.635   3.671  15.841 -1.2704 -0.2599  1.3142
 2311TIP3    H228349   0.495   3.728  15.849 -0.4461  1.9062  0.8625
 2312TIP3   OH228350   5.656   4.472   2.678  0.1806  0.4388  0.1053
 2312TIP3    H128351   5.702   4.391   2.699  0.3301  0.7380  0.9822
 2312TIP3    H228352   5.699   4.538   2.733 -1.5020  0.6761  1.1892
 2313TIP3   OH228353   0.899   5.273   5.344 -0.6895 -0.1241 -0.3853
 2313TIP3    H128354   0.816   5.257   5.389 -0.9675  0.9899 -0.4664
 2313TIP3    H228355   0.966   5.259   5.411 -1.0806  1.2544  0.3328
 2314TIP3   OH228356   5.179   4.110   2.890  0.8990  0.3836 -0.5185
 2314TIP3    H128357   5.247   4.153   2.943  0.6545  0.5808 -0.3670
 2314TIP3    H228358   5.168   4.167   2.814  2.2803 -0.6176 -1.5263
 2315TIP3   OH228359   5.661   6.320   2.735  0.1962  0.0107 -0.7905
 2315TIP3    H128360   5.739   6.266   2.723  0.3601 -1.3318  4.2863
 2315TIP3    H228361   5.693   6.398   2.781 -1.2131  0.1595 -0.0036
 2316TIP3   OH228362   1.076   4.897  12.537 -0.4934  0.1611  0.5875
 2316TIP3    H128363   1.146   4.935  12.591  0.9084  0.0707 -1.0793
 2316TIP3    H228364   1.084   4.803  12.552 -2.0493  0.2696  2.4432
 2317TIP3   OH228365   3.709   3.984   5.402  0.3236  0.1966 -0.2174
 2317TIP3    H128366   3.738   4.075   5.398  1.1706 -0.0515 -4.1198
 2317TIP3    H228367   3.762   3.945   5.472  1.6372  2.1914 -0.0170
 2318TIP3   OH228368   0.871   4.498   0.663  0.0453  0.0801 -0.5169
 2318TIP3    H128369   0.819   4.458   0.593 -0.7905 -0.5730  0.4521
 2318TIP3    H228370   0.808   4.550   0.713  0.3063 -0.6273  0.6003
 2319TIP3   OH228371   1.521   3.615   5.805 -0.6517  0.2023 -1.1719
 2319TIP3    H128372   1.445   3.665   5.775 -1.1913  0.1144 -0.0039
 2319TIP3    H228373   1.516   3.532   5.759 -1.2826  0.1879 -1.0764
 2320TIP3   OH228374   0.287   2.715  13.277 -0.6847  0.1264 -0.1967
 2320TIP3    H128375   0.335   2.774  13.335 -1.3537 -0.7812  1.3438
 2320TIP3    H228376   0.224   2.770  13.232  0.4202  0.9915 -0.7287
 2321TIP3   OH228377   2.834   3.232   3.984 -0.6380 -0.0201 -0.0595
 2321TIP3    H128378   2.925   3.258   3.970 -1.5291  2.9718 -1.0432
 2321TIP3    H228379   2.820   3.243   4.078  0.2652 -1.5846  0.2862
 2322TIP3   OH228380   1.202   5.100  11.457 -0.3690  0.2659  0.2774
 2322TIP3    H128381   1.138   5.073  11.523 -0.1337 -1.1321 -0.0196
 2322TIP3    H228382   1.151   5.119  11.379 -0.6705  2.1612  0.9012
 2323TIP3   OH228383   2.325   0.652   4.753  0.4974  0.0995 -0.4265
 2323TIP3    H128384   2.267   0.693   4.816  0.8988  0.0551 -0.0208
 2323TIP3    H228385   2.399   0.712   4.744 -0.6095  1.2567 -2.6304
 2324TIP3   OH228386   2.468   6.223   3.066 -0.0778 -0.1105  0.6507
 2324TIP3    H128387   2.461   6.173   2.984  1.2055 -3.1098  2.1987
 2324TIP3    H228388   2.379   6.221   3.103 -0.1514 -0.8831  0.4521
 2325TIP3   OH228389   4.940   0.796   0.389  0.6050  0.1420  0.6206
 2325TIP3    H128390   5.002   0.853   0.435 -0.7335  0.7969  1.7068
 2325TIP3    H228391   4.902   0.853   0.321  2.2105 -0.6776 -1.0194
 2326TIP3   OH228392   6.494   0.635   5.684  0.3416 -0.4189  0.2449
 2326TIP3    H128393   6.429   0.692   5.643  0.9901 -0.1820 -0.4844
 2326TIP3    H228394   6.578   0.675   5.662  0.7078 -0.0091  2.2709
 2327TIP3   OH228395   3.715   6.103   1.288  0.6824 -0.3643  0.6135
 2327TIP3    H128396   3.643   6.041   1.277 -0.7229  1.0704  1.3247
 2327TIP3    H228397   3.762   6.101   1.204 -2.0476  0.8698 -1.0725
 2328TIP3   OH228398   2.538   2.586  16.601 -0.1662 -0.0445  0.7220
 2328TIP3    H128399   2.488   2.544  16.532  0.6986 -1.0498  0.6889
 2328TIP3    H228400   2.475   2.599  16.672 -0.9289  0.5258 -0.0395
 2329TIP3   OH228401   1.661   2.923  15.773  0.0228  1.0551 -0.2347
 2329TIP3    H128402   1.740   2.873  15.755  0.2851  1.7085 -1.0016
 2329TIP3    H228403   1.637   2.960  15.688 -2.3420 -0.8476 -0.4921
 2330TIP3   OH228404   2.400   4.476   0.877  0.0621 -0.2848 -0.4932
 2330TIP3    H128405   2.434   4.442   0.794  2.3180 -0.1931  0.3334
 2330TIP3    H228406   2.377   4.567   0.857  0.1645 -0.3901 -1.1249
 2331TIP3   OH228407   3.869   5.576  16.557  0.2419  0.0880 -0.2509
 2331TIP3    H128408   3.805   5.628  16.605  0.5585  0.1068  0.1601
 2331TIP3    H228409   3.954   5.611  16.584  0.4253  0.2062 -0.9511
 2332TIP3   OH228410   4.720   4.186  12.749  0.0090 -0.0875  0.3948
 2332TIP3    H128411   4.646   4.243  12.772  1.1766  0.7372  2.4469
 2332TIP3    H228412   4.689   4.098  12.767 -1.0520  0.0828 -0.5131
 2333TIP3   OH228413   6.710   0.634  13.585  0.1724 -0.0725  0.0020
 2333TIP3    H128414   6.685   0.725  13.571 -0.3679 -0.4113 -1.4951
 2333TIP3    H228415   6.686   0.615  13.676  1.5324  1.6332  0.7693
 2334TIP3   OH228416   3.002   4.873  12.898  0.0926 -0.2449  0.6729
 2334TIP3    H128417   2.983   4.914  12.814  0.5869 -0.5795  0.3962
 2334TIP3    H228418   3.084   4.827  12.885  0.7601  0.5978  1.6402
 2335TIP3   OH228419   5.333   5.211   5.127 -0.0153  0.3670  0.4418
 2335TIP3    H128420   5.306   5.259   5.205  1.5581  1.4835  0.3361
 2335TIP3    H228421   5.386   5.138   5.161 -1.9510 -1.0617  0.5663
 2336TIP3   OH228422   4.788   0.040   3.917 -0.0351 -0.7485 -0.2652
 2336TIP3    H128423   4.825   0.058   4.004  0.0240 -0.6985 -0.3004
 2336TIP3    H228424   4.776  -0.055   3.915 -0.1522 -0.7370 -0.1565
 2337TIP3   OH228425   2.349   5.851  13.469  0.1570 -0.0621  0.7145
 2337TIP3    H128426   2.317   5.856  13.379 -0.1885  1.1033  0.8865
 2337TIP3    H228427   2.423   5.912  13.472 -0.1495  0.2910  1.3354
 2338TIP3   OH228428   1.719   3.056  16.698  0.4760  0.3073  0.2187
 2338TIP3    H128429   1.730   3.093  16.610  1.2219 -0.7802 -0.1679
 2338TIP3    H228430   1.788   3.097  16.750  0.6890  0.1817  0.0366
 2339TIP3   OH228431   4.033   2.431  14.483 -0.4546 -0.0079 -0.2888
 2339TIP3    H128432   3.944   2.404  14.462 -0.4731 -0.8001  0.7356
 2339TIP3    H228433   4.024   2.521  14.513 -0.9378 -0.1378 -0.0285
 2340TIP3   OH228434   3.510   1.450  12.779  0.1032 -0.1847 -0.0809
 2340TIP3    H128435   3.589   1.470  12.727 -0.3481 -0.2228 -0.7941
 2340TIP3    H228436   3.487   1.533  12.821 -0.9486  0.5047 -1.9189
 2341TIP3   OH228437   1.141   1.792  14.754 -0.1801  0.1030  0.2461
 2341TIP3    H128438   1.112   1.768  14.842  0.7421  0.4945  0.6752
 2341TIP3    H228439   1.228   1.830  14.767 -0.3692  0.9265 -0.7369
 2342TIP3   OH228440   0.025   2.973  14.734 -0.0649  0.5300 -0.1983
 2342TIP3    H128441   0.010   3.044  14.671 -0.5162 -1.2202 -2.1692
 2342TIP3    H228442   0.112   2.940  14.712 -0.6413 -0.7569 -0.6267
 2343TIP3   OH228443   0.827   0.706  12.347  0.2261 -0.4201  0.1150
 2343TIP3    H128444   0.800   0.794  12.373 -1.4036 -0.8907  0.0840
 2343TIP3    H228445   0.904   0.721  12.292  1.2187  0.8361  1.7629
 2344TIP3   OH228446   5.412   6.724   4.225  0.1952  0.1149  0.8884
 2344TIP3    H128447   5.380   6.681   4.305  2.2685  0.1435  1.8105
 2344TIP3    H228448   5.498   6.757   4.249  0.5449  0.8348 -1.1628
 2345TIP3   OH228449   3.439   5.217  16.766 -0.1678  0.6573 -0.4155
 2345TIP3    H128450   3.506   5.263  16.816 -1.4914  0.2620  1.8162
 2345TIP3    H228451   3.484   5.140  16.730  1.1587  1.7328 -1.1336
 2346TIP3   OH228452   3.095   3.272   4.190 -0.0415 -0.0892 -0.3304
 2346TIP3    H128453   3.046   3.195   4.221  0.7565 -0.3963  0.2150
 2346TIP3    H228454   3.101   3.329   4.267  1.6983 -0.7179  0.0516
 2347TIP3   OH228455   2.950   3.247   0.438  0.2893  0.4387 -0.5089
 2347TIP3    H128456   2.901   3.208   0.510 -0.4194 -0.2251 -1.3396
 2347TIP3    H228457   3.005   3.176   0.405 -0.1449  0.4597 -1.2798
 2348TIP3   OH228458   3.454   1.654   5.149 -0.2210 -0.1039  0.3974
 2348TIP3    H128459   3.399   1.701   5.212 -0.6365  0.6295 -0.4783
 2348TIP3    H228460   3.405   1.574   5.130 -1.4666  0.9103 -0.9885
 2349TIP3   OH228461   3.545   6.742   0.711 -0.0629  0.3466  0.1398
 2349TIP3    H128462   3.462   6.790   0.706 -0.9470 -1.2329 -2.9287
 2349TIP3    H228463   3.609   6.800   0.670 -0.3430  0.3393 -0.3135
 2350TIP3   OH228464   5.093   5.611   6.175 -0.5082  0.1423  0.3200
 2350TIP3    H128465   5.051   5.641   6.256  0.7012 -0.0710  1.0539
 2350TIP3    H228466   5.098   5.516   6.184 -1.5697 -0.0318 -0.6320
 2351TIP3   OH228467   1.977   5.740   0.045 -0.2447 -0.1547  0.3488
 2351TIP3    H128468   1.965   5.810  -0.018  0.3611  0.7157  1.1776
 2351TIP3    H228469   1.965   5.782   0.130 -0.9940 -1.2911  0.8275
 2352TIP3   OH228470   3.857   6.566   2.095 -0.4251 -0.2362  0.2687
 2352TIP3    H128471   3.786   6.569   2.031  0.7641 -1.0650 -1.1621
 2352TIP3    H228472   3.812   6.561   2.180 -2.0958 -1.4016 -0.6114
 2353TIP3   OH228473   0.529   2.748  13.645  0.6019  0.5779  0.1070
 2353TIP3    H128474   0.479   2.824  13.617 -1.4636 -0.0618  1.7593
 2353TIP3    H228475   0.479   2.673  13.613  1.8837 -0.1127 -0.3473
 2354TIP3   OH228476   1.001   5.855  12.919  0.1903  1.0455  0.9524
 2354TIP3    H128477   0.957   5.834  13.002 -1.6790  0.3657 -0.1530
 2354TIP3    H228478   1.005   5.950  12.917 -1.5020  1.1342  0.9859
 2355TIP3   OH228479   4.058   4.712   3.677  0.4993  0.1610  0.0128
 2355TIP3    H128480   4.003   4.746   3.748 -1.2988 -0.3749 -1.0497
 2355TIP3    H228481   4.001   4.651   3.630  1.7729  0.1869 -1.6441
 2356TIP3   OH228482   5.606   5.619  14.428  0.0217  0.3654  0.6801
 2356TIP3    H128483   5.680   5.606  14.369 -0.0690  1.2064  0.3762
 2356TIP3    H228484   5.532   5.638  14.370 -0.0455  1.3030  1.0538
 2357TIP3   OH228485   3.373   5.458  13.303  0.2231  0.4168  0.0022
 2357TIP3    H128486   3.430   5.398  13.351  2.1877  1.9851 -0.2168
 2357TIP3    H228487   3.425   5.539  13.295 -1.4898  1.4463 -1.5084
 2358TIP3   OH228488   4.971   3.944   0.485  0.1332  0.0127  0.2309
 2358TIP3    H128489   4.915   3.973   0.557 -0.4880  2.7702 -1.2095
 2358TIP3    H228490   4.909   3.919   0.416  0.6991 -0.4843 -0.1019
 2359TIP3   OH228491   1.308   0.769  13.971 -0.0463 -0.1796 -0.7815
 2359TIP3    H128492   1.235   0.785  14.031  0.3458 -0.1931 -0.2894
 2359TIP3    H228493   1.368   0.842  13.987  1.2120 -1.4572  0.6216
 2360TIP3   OH228494   2.678   1.385  15.264 -0.2660 -0.1450 -0.2281
 2360TIP3    H128495   2.755   1.343  15.226 -0.6922 -0.2458 -1.0045
 2360TIP3    H228496   2.642   1.321  15.324  1.4865  0.7079  1.8406
 2361TIP3   OH228497   0.995   0.675  14.112 -0.1523  0.2018  0.5544
 2361TIP3    H128498   1.017   0.755  14.160  0.7762  0.2412  0.1057
 2361TIP3    H228499   1.004   0.700  14.020  0.6095 -0.5247  0.4147
 2362TIP3   OH228500   4.518   3.215  13.144  0.2904 -0.0769 -0.3324
 2362TIP3    H128501   4.446   3.211  13.081 -0.4676  0.8152  0.4625
 2362TIP3    H228502   4.575   3.142  13.119 -1.4222 -1.4704 -0.3242
 2363TIP3   OH228503   6.682   4.729   1.616 -0.5755 -0.1033  0.2898
 2363TIP3    H128504   6.775   4.747   1.606 -0.6471 -0.2244 -0.6365
 2363TIP3    H228505   6.638   4.791   1.559 -0.9896 -0.9772 -0.3687
 2364TIP3   OH228506   6.779   6.036   3.449 -0.2750  0.0236 -0.4010
 2364TIP3    H128507   6.873   6.027   3.432 -0.0718 -0.7321  0.9783
 2364TIP3    H228508   6.739   5.962   3.404  0.1918 -1.6148  1.7338
 2365TIP3   OH228509   5.419   5.468  11.363 -0.1080  0.0317 -0.6456
 2365TIP3    H128510   5.432   5.465  11.268  1.3543  1.7979 -0.5410
 2365TIP3    H228511   5.501   5.437  11.399  0.1068  1.3314  0.0303
 2366TIP3   OH228512   5.342   4.295  12.637 -0.2800 -0.3490  0.1913
 2366TIP3    H128513   5.368   4.268  12.725 -0.5340  1.0764  0.7462
 2366TIP3    H228514   5.350   4.216  12.583  0.9234 -0.9927  1.2576
 2367TIP3   OH228515   4.994   4.584   4.613 -0.0523  0.4706 -0.0229
 2367TIP3    H128516   4.981   4.644   4.686 -1.0979  0.6512 -0.3334
 2367TIP3    H228517   4.943   4.506   4.637  2.6869 -1.0824  1.1977
 2368TIP3   OH228518   4.952   6.502   2.287  0.0126  0.0868  0.2624
 2368TIP3    H128519   5.046   6.491   2.272  0.3496 -1.2848  2.7694
 2368TIP3    H228520   4.947   6.564   2.361 -1.0754  0.3333 -0.0041
 2369TIP3   OH228521   1.196   4.068   3.904  0.0504 -0.3413 -0.4053
 2369TIP3    H128522   1.239   4.110   3.978  1.6648 -1.1554 -0.8399
 2369TIP3    H228523   1.255   4.083   3.830 -1.7436  0.8710 -1.6934
 2370TIP3   OH228524   5.398   2.221   0.092 -0.2348  0.0928  0.3332
 2370TIP3    H128525   5.321   2.217   0.035 -1.4689 -0.8621  1.9902
 2370TIP3    H228526   5.464   2.267   0.040 -1.2543 -0.8361 -1.9032
 2371TIP3   OH228527   0.188   5.905   3.658 -0.3692 -0.1423 -0.3836
 2371TIP3    H128528   0.208   5.920   3.565  1.0176  1.5361  0.1269
 2371TIP3    H228529   0.098   5.873   3.658 -0.7305  0.7136 -2.2605
 2372TIP3   OH228530   0.013   4.726   5.217 -0.7258  0.2177  0.1322
 2372TIP3    H128531   0.030   4.640   5.254 -0.5413  0.4549  0.6054
 2372TIP3    H228532  -0.062   4.760   5.265 -1.5332 -0.1503 -0.8439
 2373TIP3   OH228533   3.184   1.613  13.817  0.2496  0.4555  0.0240
 2373TIP3    H128534   3.124   1.556  13.768 -0.2076  0.6517  0.3499
 2373TIP3    H228535   3.133   1.693  13.833 -0.1513 -0.1418  2.0757
 2374TIP3   OH228536   3.271   4.968   2.964 -0.3676  0.3312  0.2685
 2374TIP3    H128537   3.232   4.889   2.928 -0.8484  1.0743 -0.8912
 2374TIP3    H228538   3.214   4.992   3.037  0.0065 -0.5815  0.8892
 2375TIP3   OH228539   4.926   4.337   0.394  0.4023 -0.0605 -0.0045
 2375TIP3    H128540   4.853   4.391   0.424 -1.5321 -3.2053  1.5262
 2375TIP3    H228541   4.991   4.343   0.463 -1.1498 -1.9590  1.7648
 2376TIP3   OH228542   3.227   0.164   0.087  0.1821  0.3587  0.3017
 2376TIP3    H128543   3.153   0.163   0.148 -1.4799 -0.6957 -1.6038
 2376TIP3    H228544   3.189   0.194   0.004  1.5104 -1.6729 -1.1370
 2377TIP3   OH228545   0.289   1.766   0.477 -0.2808 -0.4078 -0.0255
 2377TIP3    H128546   0.233   1.801   0.409  3.5352  3.0586 -1.8162
 2377TIP3    H228547   0.265   1.815   0.556  0.7946  1.8355 -1.0220
 2378TIP3   OH228548   1.830   2.682   1.306 -0.0066  0.3631 -0.4466
 2378TIP3    H128549   1.823   2.592   1.276  3.1360  0.1654 -0.9372
 2378TIP3    H228550   1.920   2.690   1.337 -0.5231  3.0473  0.6284
 2379TIP3   OH228551   5.356   0.339  10.957 -0.8925  0.0108  0.6955
 2379TIP3    H128552   5.369   0.248  10.930 -2.8659  0.1218 -0.8550
 2379TIP3    H228553   5.433   0.385  10.924 -1.4456 -0.5554 -1.6085
 2380TIP3   OH228554   4.110   1.107  16.019 -0.7916 -0.2219  0.0550
 2380TIP3    H128555   4.048   1.163  15.972  0.1442 -0.1533 -1.1519
 2380TIP3    H228556   4.113   1.027  15.966 -0.4977 -0.5554  0.5738
 2381TIP3   OH228557   1.538   2.463  16.208  0.3361  0.3517  0.1074
 2381TIP3    H128558   1.467   2.434  16.150  0.1716  0.4231  0.2727
 2381TIP3    H228559   1.603   2.393  16.201 -0.0328 -0.0353  0.4518
 2382TIP3   OH228560   4.790   1.790  11.562 -0.3306  0.9436 -0.3489
 2382TIP3    H128561   4.848   1.782  11.487 -2.3037 -1.5178 -1.7470
 2382TIP3    H228562   4.759   1.881  11.560  0.1876  1.1042 -2.0928
 2383TIP3   OH228563   6.253   5.972  12.970 -0.3591 -0.4446  0.6550
 2383TIP3    H128564   6.271   6.055  12.926  4.7069 -2.1012 -1.0571
 2383TIP3    H228565   6.198   5.923  12.908 -0.4345  0.3470  0.0902
 2384TIP3   OH228566   0.188   4.281   1.762 -0.1452 -0.4985  0.3193
 2384TIP3    H128567   0.277   4.306   1.737  0.4087 -1.0826  1.6072
 2384TIP3    H228568   0.131   4.336   1.707  0.9862 -0.6466 -1.0447
 2385TIP3   OH228569   1.887   5.204  13.267  0.0074  0.1700  0.0620
 2385TIP3    H128570   1.911   5.185  13.176 -1.1555  0.6830 -0.3765
 2385TIP3    H228571   1.948   5.152  13.319 -0.1281 -1.1574 -1.0269
 2386TIP3   OH228572   5.816   4.498  16.693 -0.6470 -0.0593 -0.0824
 2386TIP3    H128573   5.739   4.463  16.738 -0.1844 -0.3583  0.4957
 2386TIP3    H228574   5.826   4.587  16.728 -0.6718 -0.0578 -0.0789
 2387TIP3   OH228575   5.949   2.590   3.665  0.3893 -0.2657 -0.0747
 2387TIP3    H128576   5.872   2.537   3.685  0.5199 -1.4533 -2.4228
 2387TIP3    H228577   6.021   2.545   3.710  0.3627 -1.6569 -1.3611
 2388TIP3   OH228578   4.281   6.298   0.926 -0.8531  0.3193 -0.5520
 2388TIP3    H128579   4.300   6.205   0.937  0.4339  0.6545  0.2217
 2388TIP3    H228580   4.195   6.310   0.966 -0.4865 -0.3181  0.4639
 2389TIP3   OH228581   1.305   5.968   5.821  0.0791  0.5459  0.7695
 2389TIP3    H128582   1.213   5.954   5.841 -0.1828  1.6645  0.4462
 2389TIP3    H228583   1.322   6.059   5.847  1.0767  0.3762  0.7713
 2390TIP3   OH228584   3.965   1.225  12.416 -0.0386 -0.7934 -0.1160
 2390TIP3    H128585   4.011   1.309  12.421  0.1287 -0.8589 -0.4687
 2390TIP3    H228586   4.035   1.161  12.400 -0.1410 -1.0287  0.3631
 2391TIP3   OH228587   1.532   3.975   4.221  0.0782  0.1435 -0.8165
 2391TIP3    H128588   1.503   4.060   4.256  0.3563 -0.2728  0.4927
 2391TIP3    H228589   1.624   3.970   4.247 -0.6157 -1.7393  1.6237
 2392TIP3   OH228590   1.527   5.296   0.022 -0.0631 -0.5369 -0.0451
 2392TIP3    H128591   1.570   5.276   0.105 -0.0603 -2.0156 -0.3713
 2392TIP3    H228592   1.593   5.279  -0.045 -0.1368  0.4164 -0.3753
 2393TIP3   OH228593   4.046   3.739   4.894  0.4827 -0.2338 -0.0135
 2393TIP3    H128594   4.078   3.754   4.983  0.1805  0.7992 -0.0672
 2393TIP3    H228595   4.021   3.647   4.893  1.1212 -0.4271  0.7717
 2394TIP3   OH228596   1.812   2.192   2.120 -0.2827  0.2135  0.8962
 2394TIP3    H128597   1.876   2.261   2.137  1.5146 -0.5347 -1.9972
 2394TIP3    H228598   1.735   2.238   2.087 -0.6269  1.0200  2.7189
 2395TIP3   OH228599   2.622   0.763  13.431 -0.0349 -0.0860 -0.2121
 2395TIP3    H128600   2.620   0.735  13.522  2.7060  1.7339  0.5358
 2395TIP3    H228601   2.558   0.835  13.426  0.2247  0.1946  0.4477
 2396TIP3   OH228602   0.064   0.374   3.079  0.8130  0.2795 -0.1454
 2396TIP3    H128603   0.048   0.310   3.010  1.0827  0.6362 -0.5436
 2396TIP3    H228604   0.159   0.385   3.081  0.8281  0.1122  0.4336
 2397TIP3   OH228605   4.164   1.557  13.593  0.0918 -0.2981  0.4984
 2397TIP3    H128606   4.244   1.604  13.614  0.6652  0.9302 -3.7158
 2397TIP3    H228607   4.135   1.593  13.510 -3.8396 -2.0546  0.8742
 2398TIP3   OH228608   0.800   3.193  16.231  0.4039 -0.0051 -0.0536
 2398TIP3    H128609   0.877   3.215  16.180 -0.4730  1.0848 -0.9708
 2398TIP3    H228610   0.817   3.227  16.318  0.8072  0.5643 -0.3534
 2399TIP3   OH228611   1.904   5.187   4.747  0.0621 -0.0264  0.2709
 2399TIP3    H128612   1.885   5.113   4.690 -0.0344 -2.4459  3.1828
 2399TIP3    H228613   1.966   5.241   4.698  0.2393 -2.0842 -1.9220
 2400TIP3   OH228614   1.266   1.641  11.387 -0.7622  0.3948  0.2391
 2400TIP3    H128615   1.196   1.600  11.437 -0.6340 -1.3187 -0.8962
 2400TIP3    H228616   1.345   1.595  11.415 -0.4381  0.6374 -0.2650
 2401TIP3   OH228617   1.645   0.592  14.718  0.4169 -0.6854  0.1656
 2401TIP3    H128618   1.585   0.624  14.650  1.3121  1.1310  0.1639
 2401TIP3    H228619   1.590   0.539  14.775 -1.2841  1.0935  0.2985
 2402TIP3   OH228620   5.640   0.500  11.750 -0.6338  0.0458  0.0368
 2402TIP3    H128621   5.548   0.477  11.743 -0.2866 -1.4680  0.2062
 2402TIP3    H228622   5.646   0.551  11.831 -1.5510  1.5450 -0.7796
 2403TIP3   OH228623   6.726   2.525   1.407 -0.2552  0.5705  0.6914
 2403TIP3    H128624   6.643   2.533   1.359 -0.0418 -1.1715 -0.0568
 2403TIP3    H228625   6.771   2.608   1.390 -0.4321  0.2618 -1.7418
 2404TIP3   OH228626   3.672   0.842  14.054  0.0626 -0.2196  0.4080
 2404TIP3    H128627   3.624   0.912  14.098 -0.6534 -0.8302  0.6358
 2404TIP3    H228628   3.605   0.794  14.005  0.5628 -0.6479  0.1314
 2405TIP3   OH228629   2.398   2.529  14.289 -0.2325 -0.2146 -0.1864
 2405TIP3    H128630   2.318   2.559  14.246 -0.5088 -0.0122  0.4748
 2405TIP3    H228631   2.404   2.580  14.369 -0.3145 -1.3684  0.5848
 2406TIP3   OH228632   1.120   1.530  13.419 -0.4143  0.5029 -0.1679
 2406TIP3    H128633   1.034   1.568  13.402 -1.0025  1.1806  3.6135
 2406TIP3    H228634   1.102   1.449  13.466  1.0209  0.1357 -0.2036
 2407TIP3   OH228635   4.735   2.969   5.647 -0.2136  0.0243 -0.0483
 2407TIP3    H128636   4.639   2.968   5.646 -0.3529 -0.7132  3.0070
 2407TIP3    H228637   4.760   2.876   5.642  0.2430  0.0969  0.7261
 2408TIP3   OH228638   1.868   6.461  13.661  0.2900  0.2763 -0.5624
 2408TIP3    H128639   1.817   6.518  13.719  0.3897 -1.2121  1.0860
 2408TIP3    H228640   1.948   6.443  13.710 -0.1197 -1.9636 -0.6232
 2409TIP3   OH228641   4.387   2.424   6.409  0.2048  0.7332 -0.4076
 2409TIP3    H128642   4.311   2.376   6.376  0.1888 -0.0535  0.7193
 2409TIP3    H228643   4.445   2.432   6.333  0.0937 -0.8564 -0.6905
 2410TIP3   OH228644   3.603   6.604  14.424  0.7968  0.0349 -0.4875
 2410TIP3    H128645   3.584   6.698  14.435 -1.8795 -0.4990  0.3791
 2410TIP3    H228646   3.558   6.580  14.343  1.2343 -0.5662 -0.5580
 2411TIP3   OH228647   3.985   0.365  12.997  0.1423 -0.3035  0.2380
 2411TIP3    H128648   3.947   0.279  12.979 -1.0019  0.1277  0.4839
 2411TIP3    H228649   4.079   0.350  12.999  0.1778 -1.0180 -2.6365
 2412TIP3   OH228650   2.694   2.346  15.133 -0.2036 -0.0046  0.0457
 2412TIP3    H128651   2.760   2.413  15.150 -0.9734  1.1444 -1.2701
 2412TIP3    H228652   2.648   2.337  15.217 -0.6671  1.8001  0.0405
 2413TIP3   OH228653   4.285   2.415  11.234 -0.2135  0.8567 -0.3169
 2413TIP3    H128654   4.373   2.378  11.227 -0.2859  0.6598 -0.1795
 2413TIP3    H228655   4.276   2.469  11.156 -0.2047  0.3870 -0.6467
 2414TIP3   OH228656   5.865   4.252  15.075  0.2313 -0.0881 -0.1933
 2414TIP3    H128657   5.790   4.279  15.128  0.4512  0.0693  0.0454
 2414TIP3    H228658   5.852   4.158  15.059 -1.0301  0.3223 -1.8309
 2415TIP3   OH228659   4.786   6.665  15.028 -0.5517 -0.2548  0.0596
 2415TIP3    H128660   4.754   6.685  14.941  0.6227  0.0396 -0.3339
 2415TIP3    H228661   4.767   6.743  15.080 -1.1015 -0.3672  0.0287
 2416TIP3   OH228662   5.683   3.770  15.530 -0.6475 -0.1445  0.5016
 2416TIP3    H128663   5.652   3.753  15.619 -0.7196 -1.4741  0.2314
 2416TIP3    H228664   5.621   3.724  15.474 -0.8650  1.0636 -0.2765
 2417TIP3   OH228665   2.979   5.444   1.971 -0.1950  0.1300 -0.2052
 2417TIP3    H128666   2.911   5.466   2.035 -0.6441 -2.3732  0.2877
 2417TIP3    H228667   2.930   5.410   1.896  0.4444  0.1138 -0.6202
 2418TIP3   OH228668   1.983   2.684   4.637  0.0333  0.0101  0.3961
 2418TIP3    H128669   1.996   2.590   4.644 -0.9641 -0.0870  1.3243
 2418TIP3    H228670   1.973   2.701   4.544 -0.5054 -0.9130  0.2791
 2419TIP3   OH228671   3.677   0.595  12.121  0.6854  0.0513 -0.9389
 2419TIP3    H128672   3.648   0.521  12.175  1.0870 -0.0247 -0.8248
 2419TIP3    H228673   3.675   0.670  12.181  1.7332 -0.1447 -0.6331
 2420TIP3   OH228674   6.138   6.546  14.012 -0.4761  0.4489 -0.5467
 2420TIP3    H128675   6.120   6.624  13.959  0.5205 -0.3237 -2.0798
 2420TIP3    H228676   6.060   6.490  13.999  0.3068 -0.3179 -2.3685
 2421TIP3   OH228677   2.426   5.073   2.624  0.1786  0.0885  0.3884
 2421TIP3    H128678   2.419   5.119   2.707  0.2078  2.3598 -0.7772
 2421TIP3    H228679   2.353   5.012   2.624 -0.2266  0.5325  1.8031
 2422TIP3   OH228680   2.819   0.524  11.504 -0.1297 -0.4819 -0.5823
 2422TIP3    H128681   2.823   0.469  11.582  0.1483  1.1065  0.5755
 2422TIP3    H228682   2.900   0.576  11.507 -2.1398  2.9337  0.7112
 2423TIP3   OH228683   2.957   3.224  15.251  0.0322 -0.1661  0.1127
 2423TIP3    H128684   2.898   3.171  15.198 -0.2900  0.4556 -0.1562
 2423TIP3    H228685   2.995   3.287  15.190 -0.6989  0.8633  0.6836
 2424TIP3   OH228686   6.466   1.120  14.341  0.2577  0.5633  0.1451
 2424TIP3    H128687   6.429   1.127  14.428  0.8125  2.1891  0.3017
 2424TIP3    H228688   6.521   1.199  14.332  2.7430 -1.1046 -0.4797
 2425TIP3   OH228689   4.609   2.868  16.264  0.6965  0.5704  0.0502
 2425TIP3    H128690   4.658   2.828  16.336 -0.7926  0.4378  1.0279
 2425TIP3    H228691   4.565   2.943  16.303 -1.4002 -0.3979 -0.2922
 2426TIP3   OH228692   3.630   0.534  11.807 -0.2152  0.0418 -0.1757
 2426TIP3    H128693   3.664   0.517  11.895 -0.3187 -0.4010 -0.2143
 2426TIP3    H228694   3.608   0.447  11.773  1.3167  0.0419 -1.2597
 2427TIP3   OH228695   5.772   3.203  14.433 -0.2387  0.5441  0.5157
 2427TIP3    H128696   5.867   3.207  14.442 -0.0822 -0.5158 -0.4610
 2427TIP3    H228697   5.749   3.113  14.459 -0.8303  0.4337 -0.3552
 2428TIP3   OH228698   1.607   0.357   4.042 -0.0807 -0.1696 -0.3994
 2428TIP3    H128699   1.582   0.436   3.994 -0.5017 -0.8680 -1.3510
 2428TIP3    H228700   1.593   0.380   4.134 -0.4696  0.7647 -0.6806
 2429TIP3   OH228701   3.225   0.596  12.534  0.2276  0.0955 -0.6945
 2429TIP3    H128702   3.316   0.587  12.504  0.8677  3.6784 -0.2523
 2429TIP3    H228703   3.187   0.660  12.473 -1.3500  0.2301  0.3953
 2430TIP3   OH228704   5.388   6.229   5.366  0.1086 -0.5551  0.5986
 2430TIP3    H128705   5.337   6.235   5.447 -1.5174  0.8793 -0.4449
 2430TIP3    H228706   5.325   6.196   5.301  0.6636  0.6342 -0.5968
 2431TIP3   OH228707   2.346   4.977  15.980  0.2510 -0.2905  0.1724
 2431TIP3    H128708   2.252   4.990  15.985  0.5503  2.7265 -0.0822
 2431TIP3    H228709   2.369   5.001  15.890  1.5960  2.6641  1.1802
 2432TIP3   OH228710   3.971   4.764  15.166 -0.5411 -0.1656 -0.2059
 2432TIP3    H128711   3.964   4.712  15.246  0.3450  1.8934  1.2796
 2432TIP3    H228712   3.892   4.742  15.116 -3.2533  1.3750  3.0268
 2433TIP3   OH228713   1.088   3.013   3.595 -0.2682  0.1609 -0.3516
 2433TIP3    H128714   1.136   3.090   3.564 -0.5308 -0.5955 -2.7922
 2433TIP3    H228715   0.996   3.036   3.581 -0.4373 -0.0091  0.4244
 2434TIP3   OH228716   0.882   3.223   4.156  0.3071  0.0698  0.1629
 2434TIP3    H128717   0.856   3.307   4.118 -0.3941 -0.4135 -0.4542
 2434TIP3    H228718   0.915   3.246   4.243 -1.2573  0.8475  0.5912
 2435TIP3   OH228719   1.212   2.104  13.058 -0.3480 -0.1068 -0.8278
 2435TIP3    H128720   1.182   2.125  12.969 -0.6813 -0.0457 -0.7022
 2435TIP3    H228721   1.158   2.029  13.084 -0.6147  0.2114 -0.4744
 2436TIP3   OH228722   1.106   4.708  15.750 -0.4014  0.5022  0.0160
 2436TIP3    H128723   1.062   4.627  15.777 -1.7110  1.5841  1.2661
 2436TIP3    H228724   1.105   4.704  15.654 -1.9694 -0.1933  0.0211
 2437TIP3   OH228725   2.806   0.548  17.160  0.0218 -0.0615  0.4124
 2437TIP3    H128726   2.855   0.520  17.237 -0.8998 -2.0376  0.3581
 2437TIP3    H228727   2.864   0.527  17.086 -0.0712 -0.4868  0.4557
 2438TIP3   OH228728   2.174   4.819   4.328 -0.0322 -0.6676  0.5823
 2438TIP3    H128729   2.080   4.808   4.343 -0.1620 -0.9489 -0.3969
 2438TIP3    H228730   2.199   4.745   4.273 -0.0375  1.3491 -2.3784
 2439TIP3   OH228731   3.519   1.091   0.368 -0.0237  0.3720  0.4542
 2439TIP3    H128732   3.554   1.105   0.456  1.0849 -0.1937  0.1355
 2439TIP3    H228733   3.569   1.015   0.335  0.1290  1.0447 -0.9320
 2440TIP3   OH228734   2.145   4.984  12.064 -0.0858 -0.7753  0.2635
 2440TIP3    H128735   2.118   4.971  12.155  0.5483 -0.0799  0.5612
 2440TIP3    H228736   2.167   4.896  12.033 -0.5584 -1.0565  0.6901
 2441TIP3   OH228737   4.147   5.464   3.288  0.4971  0.5265  0.2755
 2441TIP3    H128738   4.192   5.527   3.233 -0.2230  2.0455  1.3599
 2441TIP3    H228739   4.150   5.382   3.239  1.5454  1.3676 -1.1193
 2442TIP3   OH228740   1.413   4.214   5.892 -0.1227 -0.4025  0.5555
 2442TIP3    H128741   1.347   4.256   5.947  1.1834  0.6987  1.3365
 2442TIP3    H228742   1.462   4.158   5.952  1.4660  0.9903  0.6188
 2443TIP3   OH228743   0.887   5.425  13.756 -0.3916  0.5489  0.1691
 2443TIP3    H128744   0.960   5.364  13.766 -0.3495  0.6559  0.5184
 2443TIP3    H228745   0.926   5.512  13.766 -0.4527  0.6384 -0.3165
 2444TIP3   OH228746   4.951   0.885  12.156 -0.7825  0.3086  0.3369
 2444TIP3    H128747   5.045   0.883  12.174 -0.8136  2.7503  1.1515
 2444TIP3    H228748   4.928   0.794  12.138  1.7989 -0.2833 -0.3245
 2445TIP3   OH228749   3.851   1.210   0.214 -0.9692  0.0667  0.0326
 2445TIP3    H128750   3.886   1.291   0.177 -2.4471  0.5584 -0.3663
 2445TIP3    H228751   3.759   1.210   0.189 -1.0024 -1.7535  0.0366
 2446TIP3   OH228752   4.311   2.140   5.079 -0.2664 -0.1249  0.2254
 2446TIP3    H128753   4.310   2.166   4.987  1.8266 -0.8321 -0.0615
 2446TIP3    H228754   4.292   2.047   5.077 -0.8503 -0.0127  0.5747
 2447TIP3   OH228755   6.784   3.938   1.608  0.4601 -0.3577  0.1537
 2447TIP3    H128756   6.695   3.911   1.586  0.7851 -0.4314 -1.1176
 2447TIP3    H228757   6.830   3.857   1.629  0.1225 -0.2772  1.2606
 2448TIP3   OH228758   4.394   6.514  10.783 -0.4818 -0.7892  0.0518
 2448TIP3    H128759   4.378   6.454  10.856 -0.7503 -0.3363  0.3681
 2448TIP3    H228760   4.480   6.551  10.800 -1.8936  1.9312  2.0386
 2449TIP3   OH228761   1.924   4.021  10.295 -0.0862  0.2075  0.2960
 2449TIP3    H128762   2.014   4.030  10.263  0.0222  0.3008  0.6264
 2449TIP3    H228763   1.899   4.110  10.321 -0.1502  0.1211  0.5321
 2450TIP3   OH228764   3.855   3.420   0.739 -0.0275  0.0062 -0.6926
 2450TIP3    H128765   3.767   3.452   0.721  0.2702  0.5028 -1.3118
 2450TIP3    H228766   3.904   3.436   0.658  0.5383 -0.5900 -0.4784
 2451TIP3   OH228767   2.376   3.265  15.098 -0.0384 -0.0935  0.0655
 2451TIP3    H128768   2.430   3.237  15.025  0.0261  0.2449 -0.0152
 2451TIP3    H228769   2.423   3.339  15.137 -1.7099  1.9743 -1.6262
 2452TIP3   OH228770   1.753   1.863  13.437 -0.2447 -0.4064  0.1941
 2452TIP3    H128771   1.816   1.830  13.501 -0.7965 -0.4100  0.7495
 2452TIP3    H228772   1.690   1.791  13.426  1.0108 -1.2501 -1.9881
 2453TIP3   OH228773   4.245   1.471  15.155  0.2565 -0.1039  0.1529
 2453TIP3    H128774   4.159   1.431  15.169  0.5027 -0.6563  0.0992
 2453TIP3    H228775   4.277   1.491  15.243  0.6577 -1.1423  0.2470
 2454TIP3   OH228776   2.608   2.790  16.394  0.6741 -0.1808  0.8619
 2454TIP3    H128777   2.521   2.811  16.359  1.4168  2.1281  0.1960
 2454TIP3    H228778   2.591   2.728  16.465 -1.4646 -0.1558  0.4467
 2455TIP3   OH228779   0.248   0.770   1.151  0.8030  0.4686  0.5106
 2455TIP3    H128780   0.250   0.838   1.083  2.9509 -0.2345 -0.1951
 2455TIP3    H228781   0.310   0.801   1.217  1.6504 -0.6688  0.2782
 2456TIP3   OH228782   2.300   2.077  15.477  0.1169 -0.0960  0.4389
 2456TIP3    H128783   2.233   2.132  15.436  0.3448 -0.2016 -0.0854
 2456TIP3    H228784   2.308   2.111  15.566 -0.9305 -0.3393  0.6471
 2457TIP3   OH228785   4.151   3.249   1.075 -0.4495  0.3011 -0.5943
 2457TIP3    H128786   4.112   3.329   1.040  0.5040  0.8403 -0.4764
 2457TIP3    H228787   4.089   3.179   1.053 -0.5378  0.8319 -2.1215
 2458TIP3   OH228788   2.464   4.676   1.449 -0.4213  0.1077 -0.5449
 2458TIP3    H128789   2.539   4.710   1.497 -0.8254 -0.0201  0.1887
 2458TIP3    H228790   2.454   4.586   1.480 -1.9179  0.6555  0.6612
 2459TIP3   OH228791   2.462   2.074  12.012 -0.1053  0.2088 -0.4677
 2459TIP3    H128792   2.499   2.007  11.954  0.3387  1.9717 -2.3288
 2459TIP3    H228793   2.463   2.033  12.099  0.4283 -2.0594 -1.4675
 2460TIP3   OH228794   1.945   6.130   0.521  0.2104 -0.1937  0.6126
 2460TIP3    H128795   1.977   6.178   0.445  0.2088  0.5494  1.0698
 2460TIP3    H228796   1.898   6.195   0.572  1.3758 -0.3397  1.9361
 2461TIP3   OH228797   2.539   5.897  16.417  0.5439  0.0250 -0.1320
 2461TIP3    H128798   2.445   5.911  16.424  0.5709  0.6700 -0.9786
 2461TIP3    H228799   2.551   5.858  16.330  0.9044 -1.5649  0.5953
 2462TIP3   OH228800   6.264   2.075   0.397  0.2774  0.5056 -0.2453
 2462TIP3    H128801   6.210   2.008   0.438 -0.7847  1.7959  0.5406
 2462TIP3    H228802   6.351   2.063   0.435  0.0040 -0.1721  0.1743
 2463TIP3   OH228803   4.289   1.221  17.004 -0.1981  0.7992  0.4847
 2463TIP3    H128804   4.356   1.272  16.958  1.7738 -0.7768  1.4686
 2463TIP3    H228805   4.246   1.171  16.934 -0.8577  2.2987 -0.2394
 2464TIP3   OH228806   3.081   3.132  11.982 -0.5831 -0.3767 -0.3936
 2464TIP3    H128807   3.072   3.045  12.022 -0.2228 -0.3429 -0.2324
 2464TIP3    H228808   3.105   3.189  12.055  0.5860 -0.4041 -0.7308
 2465TIP3   OH228809   1.734   6.080   3.772  0.1324 -0.4251  0.4475
 2465TIP3    H128810   1.750   6.163   3.817 -0.7691  0.3996 -0.6942
 2465TIP3    H228811   1.670   6.101   3.704 -0.0189 -2.0363  0.0437
 2466TIP3   OH228812   6.140   3.619   4.856 -0.5404 -0.3355  0.2863
 2466TIP3    H128813   6.166   3.634   4.946  1.9188  2.2369 -0.7037
 2466TIP3    H228814   6.091   3.698   4.831 -0.3467 -0.5522 -0.8752
 2467TIP3   OH228815   1.471   3.690   5.004  0.2913  0.0703 -0.3901
 2467TIP3    H128816   1.539   3.717   4.943  0.7688  1.2486  0.6121
 2467TIP3    H228817   1.464   3.763   5.066 -1.8309 -0.0415 -0.4050
 2468TIP3   OH228818   4.329   2.333  11.957  0.0276  0.3714 -0.6425
 2468TIP3    H128819   4.243   2.322  11.918  0.6824  0.3271 -2.1148
 2468TIP3    H228820   4.390   2.301  11.891  1.1455 -0.4082  0.7055
 2469TIP3   OH228821   0.932   3.242  15.310 -0.1917  0.1347  0.3081
 2469TIP3    H128822   0.932   3.309  15.378 -1.0282  0.1146  0.3475
 2469TIP3    H228823   1.008   3.187  15.330  0.2681  0.8299  0.5075
 2470TIP3   OH228824   6.586   3.495   4.712  0.3235 -0.8408 -0.1606
 2470TIP3    H128825   6.504   3.476   4.666 -0.2920  0.1783  0.4879
 2470TIP3    H228826   6.594   3.590   4.709  2.3418 -0.9840 -1.6174
 2471TIP3   OH228827   4.326   5.465  16.073 -0.4365  0.4704  0.0950
 2471TIP3    H128828   4.254   5.496  16.129 -0.6774  0.3066 -0.1211
 2471TIP3    H228829   4.341   5.375  16.102  0.2025  0.7555  0.6647
 2472TIP3   OH228830   6.547   5.661   1.274 -0.2639 -0.1642 -0.5873
 2472TIP3    H128831   6.580   5.626   1.192 -0.0729  0.2474 -0.6877
 2472TIP3    H228832   6.570   5.595   1.340  1.1989  0.3432 -0.5694
 2473TIP3   OH228833   2.927   0.951   1.901  0.3673 -0.0951  0.1221
 2473TIP3    H128834   2.873   0.885   1.945  2.9496 -1.8531  0.9214
 2473TIP3    H228835   2.943   0.915   1.814  0.4139  0.2867 -0.0287
 2474TIP3   OH228836   0.717   4.638   4.679 -0.2036 -0.1424  0.3593
 2474TIP3    H128837   0.724   4.608   4.769 -0.4249  0.2459  0.5096
 2474TIP3    H228838   0.720   4.734   4.685 -2.0330 -0.0332  0.1415
 2475TIP3   OH228839   2.451   4.706  16.568  0.9084 -0.0169 -0.0337
 2475TIP3    H128840   2.533   4.657  16.567  2.3087  2.1466  1.2461
 2475TIP3    H228841   2.456   4.764  16.492 -1.0847 -2.1867 -1.9982
 2476TIP3   OH228842   4.469   5.865   5.312 -0.5843  0.4720 -0.2685
 2476TIP3    H128843   4.480   5.910   5.396 -4.1672 -0.0482  0.6462
 2476TIP3    H228844   4.378   5.834   5.313  0.2800 -2.6662 -2.8755
 2477TIP3   OH228845   6.105   5.268   1.154  0.1695  0.6168 -0.4330
 2477TIP3    H128846   6.096   5.242   1.245  1.3680 -1.6913 -0.8948
 2477TIP3    H228847   6.141   5.357   1.157 -1.0574  1.0842  1.2997
 2478TIP3   OH228848   6.013   4.103   0.682  0.4787 -0.9564 -0.9171
 2478TIP3    H128849   6.048   4.153   0.756 -1.9599 -3.1356  1.9617
 2478TIP3    H228850   5.956   4.165   0.637  1.8192  0.3565 -0.9177
 2479TIP3   OH228851   3.209   5.795  10.524  0.1666  0.1574  0.3950
 2479TIP3    H128852   3.143   5.726  10.512  0.7896 -0.4591  0.4563
 2479TIP3    H228853   3.290   5.757  10.492  0.4550  0.9979  0.0971
 2480TIP3   OH228854   3.717   1.157  17.032 -0.2817 -0.2398  0.3804
 2480TIP3    H128855   3.717   1.249  17.007 -4.2796 -0.7683 -2.5093
 2480TIP3    H228856   3.661   1.153  17.109 -0.5273 -0.2855  0.2014
 2481TIP3   OH228857   1.948   2.024   5.905 -0.1775  0.5512 -0.0614
 2481TIP3    H128858   2.031   1.996   5.945 -0.2481  0.7618  0.2376
 2481TIP3    H228859   1.959   2.118   5.890 -1.3298  1.1942  2.4833
 2482TIP3   OH228860   0.082   6.545  15.644  0.0753 -0.4292 -0.3236
 2482TIP3    H128861   0.130   6.593  15.712  0.9303 -0.8914 -0.5904
 2482TIP3    H228862   0.022   6.488  15.693  0.2135 -0.2824  0.0209
 2483TIP3   OH228863   3.128   5.614  13.882  0.4089  0.2917 -0.2913
 2483TIP3    H128864   3.105   5.521  13.881 -0.4550  0.4918 -0.5386
 2483TIP3    H228865   3.053   5.657  13.923  0.9687  0.8435  0.1823
 2484TIP3   OH228866   5.400   1.348   4.672  0.6128  0.0160  0.1943
 2484TIP3    H128867   5.354   1.369   4.591  1.0365 -0.9449 -0.3127
 2484TIP3    H228868   5.460   1.422   4.686  0.3315  0.3234 -0.2009
 2485TIP3   OH228869   0.092   4.344   5.022 -0.1684  0.6681  0.0627
 2485TIP3    H128870   0.040   4.379   5.095 -0.4823  0.1307  0.1085
 2485TIP3    H228871   0.064   4.252   5.015 -0.0030  0.6635 -0.6165
 2486TIP3   OH228872   3.376   1.755   3.731  0.0747  0.0366 -0.3166
 2486TIP3    H128873   3.401   1.666   3.707 -0.2073 -0.4390  1.0878
 2486TIP3    H228874   3.424   1.773   3.811 -1.5387  0.3127  0.6306
 2487TIP3   OH228875   0.444   0.235   2.071  0.1227 -0.1895  0.0094
 2487TIP3    H128876   0.381   0.217   2.142 -0.3572  1.4203  0.0249
 2487TIP3    H228877   0.391   0.230   1.991 -0.0644  1.1437  0.0208
 2488TIP3   OH228878   3.660   6.207   5.857  0.7884  0.0774 -0.1168
 2488TIP3    H128879   3.596   6.198   5.786 -2.4244 -0.6012  2.6059
 2488TIP3    H228880   3.716   6.129   5.849 -2.6142 -2.7271  0.7474
 2489TIP3   OH228881   1.012   3.462   4.658 -0.5351  0.1921 -0.3879
 2489TIP3    H128882   0.971   3.495   4.578  0.5820  2.4377 -0.1139
 2489TIP3    H228883   1.063   3.536   4.691  0.5827 -1.2786  1.3743
 2490TIP3   OH228884   3.355   4.651  12.497  0.6493  0.1680  0.0989
 2490TIP3    H128885   3.395   4.720  12.550  0.4771  1.3584 -1.2942
 2490TIP3    H228886   3.278   4.691  12.458  0.4789 -0.8473 -0.6465
 2491TIP3   OH228887   5.152   4.314   2.668  0.0953  0.1532  0.4087
 2491TIP3    H128888   5.167   4.331   2.575 -0.8819  0.5344  0.3050
 2491TIP3    H228889   5.058   4.330   2.680 -0.0324 -1.0954  1.2095
 2492TIP3   OH228890   1.252   4.992  13.386  0.5036  0.0180 -0.3104
 2492TIP3    H128891   1.321   4.947  13.436 -0.0930  0.8136  1.2807
 2492TIP3    H228892   1.280   4.983  13.295  2.6508  0.1922  0.2738
 2493TIP3   OH228893   4.145   0.716   1.651 -0.5883  0.7361 -0.1913
 2493TIP3    H128894   4.131   0.775   1.578  0.6632  1.4203  0.0948
 2493TIP3    H228895   4.240   0.717   1.666 -0.8695  1.2702  1.9635
 2494TIP3   OH228896   2.264   4.492   0.510 -0.6640  0.5243  0.0995
 2494TIP3    H128897   2.223   4.566   0.466 -0.2427  0.5715 -0.2180
 2494TIP3    H228898   2.345   4.477   0.461  1.7149  2.8743  2.9336
 2495TIP3   OH228899   5.656   0.893   4.352 -0.5528 -0.0649  0.1403
 2495TIP3    H128900   5.707   0.815   4.332  0.8962  0.9766 -0.4242
 2495TIP3    H228901   5.637   0.885   4.446  0.2440 -0.7151  0.2606
 2496TIP3   OH228902   2.688   1.399   6.026  0.5157 -0.2822  0.1853
 2496TIP3    H128903   2.689   1.417   6.120 -0.7829  0.7692  0.0221
 2496TIP3    H228904   2.754   1.331   6.014  1.0187 -0.1169  1.7898
 2497TIP3   OH228905   1.789   5.219   3.756  0.2409  0.3115 -0.2075
 2497TIP3    H128906   1.726   5.266   3.811  0.6303  0.9167 -0.2737
 2497TIP3    H228907   1.855   5.284   3.733  0.3369 -0.0554 -1.0106
 2498TIP3   OH228908   5.927   2.216   3.641  0.0917 -0.3738  0.0455
 2498TIP3    H128909   5.989   2.284   3.614 -0.8920  1.3758  1.8920
 2498TIP3    H228910   5.980   2.152   3.688  0.7204  0.3333  0.3151
 2499TIP3   OH228911   2.632   1.388  14.230 -0.0750 -0.4656  0.5349
 2499TIP3    H128912   2.586   1.307  14.250  0.3504 -0.5263  1.3362
 2499TIP3    H228913   2.639   1.390  14.135  0.9159 -1.9516  0.5442
 2500TIP3   OH228914   3.659   6.067   5.578  0.4361 -0.3240 -0.2441
 2500TIP3    H128915   3.638   5.994   5.636 -2.2706  0.5800  0.0538
 2500TIP3    H228916   3.719   6.030   5.513  0.6592 -2.2882  1.0114
 2501TIP3   OH228917   3.766   6.516  13.959  0.1196  0.2299 -0.1061
 2501TIP3    H128918   3.740   6.608  13.953  0.9183  0.4006 -1.3745
 2501TIP3    H228919   3.747   6.481  13.872 -0.4894 -0.9094  0.4646
 2502TIP3   OH228920   2.454   5.351   5.566  0.1780  0.8003  0.6287
 2502TIP3    H128921   2.445   5.409   5.642 -0.2986 -0.1066  1.2783
 2502TIP3    H228922   2.414   5.269   5.593 -1.5731  0.9739 -1.2104
 2503TIP3   OH228923   6.718   5.152   2.890 -0.7496  0.8678  0.0136
 2503TIP3    H128924   6.773   5.103   2.951 -2.2465  0.6686  1.2628
 2503TIP3    H228925   6.779   5.211   2.845  0.8470 -1.0463 -0.4560
 2504TIP3   OH228926   5.135   2.286  12.241 -0.5200 -0.3292  0.0546
 2504TIP3    H128927   5.115   2.342  12.316  1.2140  1.1666 -0.5127
 2504TIP3    H228928   5.118   2.340  12.164 -0.2470 -1.0985 -0.5706
 2505TIP3   OH228929   6.519   6.532  11.461  0.6342 -0.1769  0.5720
 2505TIP3    H128930   6.524   6.626  11.478 -0.3974  0.0747 -0.3456
 2505TIP3    H228931   6.598   6.512  11.412  1.1559  0.0832  1.2915
 2506TIP3   OH228932   6.468   1.654  16.850 -0.2648  0.0320 -0.1050
 2506TIP3    H128933   6.479   1.621  16.761 -0.4221 -3.0177  0.9053
 2506TIP3    H228934   6.489   1.580  16.906 -0.2552  1.8323  2.4321
 2507TIP3   OH228935   3.278   3.426   5.333  0.4893  0.0363  0.3755
 2507TIP3    H128936   3.259   3.487   5.403 -1.6421 -1.6100  1.3257
 2507TIP3    H228937   3.268   3.340   5.373 -1.6788 -0.9804 -2.0892
 2508TIP3   OH228938   6.435   3.370  12.044  0.1074 -0.1231 -0.1710
 2508TIP3    H128939   6.500   3.330  12.102 -1.4360 -1.3910  0.7699
 2508TIP3    H228940   6.451   3.464  12.051  1.0238 -0.3433  0.9947
 2509TIP3   OH228941   2.202   5.357  15.657 -0.3205  0.2325  0.0356
 2509TIP3    H128942   2.123   5.405  15.633 -0.4208 -0.3890 -0.9356
 2509TIP3    H228943   2.246   5.340  15.574  0.8685  0.6093  0.5721
 2510TIP3   OH228944   1.592   6.303   3.275 -0.1416 -0.1186  0.6792
 2510TIP3    H128945   1.646   6.237   3.318  2.1378  1.2120  0.0580
 2510TIP3    H228946   1.518   6.315   3.334  0.7590 -1.2971  2.1368
 2511TIP3   OH228947   1.898   1.492   2.127 -0.4081 -0.0695 -0.4810
 2511TIP3    H128948   1.885   1.397   2.120 -1.5587 -0.0305  0.8068
 2511TIP3    H228949   1.987   1.501   2.161  0.0212 -0.6480 -1.4103
 2512TIP3   OH228950   1.926   5.642  16.610 -0.3525 -0.2271  0.5313
 2512TIP3    H128951   1.850   5.654  16.552 -1.2017  0.1474  1.6961
 2512TIP3    H228952   1.977   5.722  16.598  1.8704 -1.9083 -2.9984
 2513TIP3   OH228953   2.541   0.630  14.747  0.2550  0.0100 -0.1076
 2513TIP3    H128954   2.485   0.555  14.729  0.4218 -0.0451 -0.4144
 2513TIP3    H228955   2.487   0.707  14.727 -0.5071  0.0462  1.8549
 2514TIP3   OH228956   0.294   4.123  16.178 -0.5604  0.0797  0.1497
 2514TIP3    H128957   0.379   4.163  16.195 -0.9278  1.2038 -0.5627
 2514TIP3    H228958   0.284   4.058  16.248  1.9759 -1.9239 -1.1516
 2515TIP3   OH228959   5.413   2.263  11.081  0.1251  0.1523  0.6317
 2515TIP3    H128960   5.507   2.261  11.098  0.0312 -0.0149  1.1455
 2515TIP3    H228961   5.405   2.266  10.986  0.6578  0.5988  0.5993
 2516TIP3   OH228962   0.830   3.624  16.845 -0.1715  0.3750 -0.3146
 2516TIP3    H128963   0.808   3.592  16.933 -2.8076 -0.6447 -1.2723
 2516TIP3    H228964   0.760   3.684  16.823 -0.1313 -0.1967 -2.1456
 2517TIP3   OH228965   0.038   3.871   4.714 -0.3873 -0.2918 -0.3330
 2517TIP3    H128966   0.061   3.815   4.788 -0.7179 -0.3514 -0.2765
 2517TIP3    H228967   0.046   3.814   4.638 -1.5551 -0.6579 -0.1980
 2518TIP3   OH228968   2.184   2.434   3.668  0.0596 -0.3291  0.2552
 2518TIP3    H128969   2.135   2.442   3.750  0.7062 -0.9029  0.7216
 2518TIP3    H228970   2.214   2.343   3.668  1.3602  0.0859  0.1345
 2519TIP3   OH228971   6.356   2.532  15.413 -0.0676 -0.3655  0.9147
 2519TIP3    H128972   6.278   2.521  15.358  0.0826  1.2388  0.3322
 2519TIP3    H228973   6.335   2.486  15.494 -2.0341  0.8078  1.1367
 2520TIP3   OH228974   2.738   6.263   5.386  0.2034 -0.7748 -0.0766
 2520TIP3    H128975   2.767   6.259   5.295 -0.0309  1.3001 -0.2959
 2520TIP3    H228976   2.806   6.313   5.430  0.2853 -1.7159  0.8899
 2521TIP3   OH228977   3.247   0.457   3.678 -0.1867 -0.4914  0.2655
 2521TIP3    H128978   3.173   0.418   3.631 -0.7802 -1.1030  1.6324
 2521TIP3    H228979   3.245   0.415   3.764  2.0521 -0.8622  0.1928
 2522TIP3   OH228980   6.184   5.775   2.038 -0.0377 -0.9981  0.4260
 2522TIP3    H128981   6.272   5.791   2.003 -0.2030 -0.1841  0.3610
 2522TIP3    H228982   6.183   5.682   2.058  0.5142 -1.2175 -0.4911
 2523TIP3   OH228983   0.527   3.224   2.098  0.1287 -0.3459 -0.0485
 2523TIP3    H128984   0.493   3.257   2.015  2.0667  2.1056  0.0089
 2523TIP3    H228985   0.451   3.187   2.142 -1.1534 -0.8519 -2.4662
 2524TIP3   OH228986   2.032   5.469  14.967 -0.2021  0.5811  0.1063
 2524TIP3    H128987   2.028   5.419  15.048 -0.3723  1.5651  0.7272
 2524TIP3    H228988   2.082   5.414  14.906 -1.4357 -0.8651  0.3522
 2525TIP3   OH228989   4.815   3.355  13.479 -0.4808 -0.1506 -0.1666
 2525TIP3    H128990   4.872   3.432  13.479  1.0332 -1.1802  1.2747
 2525TIP3    H228991   4.760   3.365  13.402  1.0348  1.3868 -1.1239
 2526TIP3   OH228992   1.360   2.698   4.231 -0.2584 -0.5860  0.0697
 2526TIP3    H128993   1.307   2.641   4.288  1.5730 -0.2464  2.2981
 2526TIP3    H228994   1.391   2.640   4.162 -1.6907 -1.3049  0.0022
 2527TIP3   OH228995   4.639   3.542  11.391 -0.0498 -0.3709  0.0803
 2527TIP3    H128996   4.670   3.585  11.471 -1.3759 -1.1640  1.0666
 2527TIP3    H228997   4.549   3.572  11.381  0.4699  0.7457 -1.8974
 2528TIP3   OH228998   1.991   3.025   2.746  0.0023 -0.0052 -0.4384
 2528TIP3    H128999   2.038   3.008   2.828  0.1774  2.1356 -0.0504
 2528TIP3    H229000   2.053   3.001   2.677  0.2832 -0.7112  0.0527
 2529TIP3   OH229001   0.244   3.002   2.879  0.7112  0.1887 -0.4783
 2529TIP3    H129002   0.202   2.920   2.856  1.2095 -0.1055 -0.3426
 2529TIP3    H229003   0.293   2.983   2.959 -0.3681  0.9918  0.4036
 2530TIP3   OH229004   5.545   0.875   1.337 -0.3255 -0.0835 -0.5705
 2530TIP3    H129005   5.481   0.920   1.391  1.1906 -0.4481  1.6493
 2530TIP3    H229006   5.563   0.935   1.265 -1.6085  0.8877 -0.1052
 2531TIP3   OH229007   5.559   0.285   5.251  0.0782 -0.2127 -0.0081
 2531TIP3    H129008   5.550   0.261   5.343 -3.9877  0.3795 -0.0820
 2531TIP3    H229009   5.554   0.381   5.250  2.2089 -0.0529 -0.7752
 2532TIP3   OH229010   6.648   4.272  13.916  0.3275 -0.2515 -0.2159
 2532TIP3    H129011   6.625   4.327  13.841  0.2173 -0.5076 -0.3720
 2532TIP3    H229012   6.676   4.189  13.877  0.6729 -0.2409  0.0099
 2533TIP3   OH229013   0.324   6.107  14.851  0.0160  0.4541 -0.1388
 2533TIP3    H129014   0.373   6.033  14.816 -1.3621 -0.0615 -1.0865
 2533TIP3    H229015   0.280   6.072  14.929  1.3772  1.0086  0.9094
 2534TIP3   OH229016   6.296   1.736   0.379  0.2180  0.0400 -0.7438
 2534TIP3    H129017   6.359   1.716   0.310  0.6937  1.8140 -0.8584
 2534TIP3    H229018   6.344   1.722   0.460  1.3337  2.8465 -0.8267
 2535TIP3   OH229019   3.176   4.863  14.965  0.1487 -0.2257  0.1322
 2535TIP3    H129020   3.178   4.785  14.910  0.9429 -0.0787 -0.0621
 2535TIP3    H229021   3.179   4.829  15.055  0.6049 -0.4187  0.0471
 2536TIP3   OH229022   2.524   6.495  13.211  0.4974 -0.2217 -0.3559
 2536TIP3    H129023   2.569   6.413  13.233  0.5742  0.5162  2.7268
 2536TIP3    H229024   2.526   6.545  13.292 -4.8405  0.3803 -0.2346
 2537TIP3   OH229025   6.470   5.933  15.584 -0.2863  0.0453 -0.3816
 2537TIP3    H129026   6.559   5.925  15.551 -0.5812  0.0245 -1.1942
 2537TIP3    H229027   6.420   5.968  15.510 -1.1055 -0.6877 -0.1936
 2538TIP3   OH229028   2.252   3.831  12.094  0.4784 -0.3027  0.0764
 2538TIP3    H129029   2.185   3.849  12.159 -1.6634 -1.5539 -1.6653
 2538TIP3    H229030   2.271   3.737  12.104 -0.2988 -0.6464 -1.4208
 2539TIP3   OH229031   3.289   3.922  15.050 -0.2178  0.6404 -0.0686
 2539TIP3    H129032   3.241   3.934  14.968 -0.4227 -0.9756 -0.2180
 2539TIP3    H229033   3.373   3.966  15.034 -0.2855  0.4315 -1.1180
 2540TIP3   OH229034   0.132   2.175   0.894  0.1784 -0.2341  0.6236
 2540TIP3    H129035   0.061   2.116   0.870 -1.1265  1.6473 -0.3386
 2540TIP3    H229036   0.089   2.251   0.932  1.8892 -0.4101  3.2473
 2541TIP3   OH229037   1.088   4.835  11.738  0.5143 -0.0051 -0.1755
 2541TIP3    H129038   1.133   4.779  11.675 -0.2265  0.5272 -1.2030
 2541TIP3    H229039   1.009   4.865  11.692 -0.3230 -0.0364  1.1912
 2542TIP3   OH229040   3.682   5.884  16.370 -0.2052 -0.0053 -0.3087
 2542TIP3    H129041   3.700   5.823  16.441 -1.0801  1.1523  0.9498
 2542TIP3    H229042   3.659   5.828  16.295 -0.7588 -1.2250  0.7442
 2543TIP3   OH229043   5.517   5.360  12.488 -0.2386  0.6436  0.2073
 2543TIP3    H129044   5.599   5.406  12.510 -1.4322  2.9184  0.2254
 2543TIP3    H229045   5.489   5.322  12.571 -0.1826  1.5469  0.6565
 2544TIP3   OH229046   1.455   3.272   4.972  0.1232 -0.1873  0.9880
 2544TIP3    H129047   1.526   3.335   4.970 -0.3250  0.3014 -0.3697
 2544TIP3    H229048   1.494   3.192   5.007  2.1030 -0.8088 -2.2444
 2545TIP3   OH229049   6.063   3.455   2.491 -0.4383  0.0466  0.3276
 2545TIP3    H129050   6.098   3.400   2.420  0.3915  1.0114 -0.0325
 2545TIP3    H229051   6.125   3.442   2.563 -0.6093  0.0028  0.4657
 2546TIP3   OH229052   6.087   5.975  14.575  0.1907  0.1892 -0.6706
 2546TIP3    H129053   6.010   5.923  14.597 -0.5930  1.0594 -1.3163
 2546TIP3    H229054   6.133   5.923  14.509 -0.5430  0.2657 -1.2508
 2547TIP3   OH229055   3.517   6.012   4.152 -0.4601  0.2544  0.4373
 2547TIP3    H129056   3.523   6.063   4.233 -0.0707  1.9569 -0.5982
 2547TIP3    H229057   3.499   5.923   4.181 -2.0743  1.1003  2.3486
 2548TIP3   OH229058   4.048   0.120  16.904 -0.5544  0.3504  0.4112
 2548TIP3    H129059   4.124   0.085  16.857 -1.8459 -0.6149 -1.0498
 2548TIP3    H229060   4.068   0.214  16.913  1.3010 -0.0632  1.0935
 2549TIP3   OH229061   5.542   4.272  16.512  0.6060  0.0445 -0.1553
 2549TIP3    H129062   5.463   4.281  16.458 -1.2622  2.2630  2.6587
 2549TIP3    H229063   5.592   4.352  16.495  0.6339  0.1527  0.4129
 2550TIP3   OH229064   1.856   2.094  10.916  0.1690  0.9125 -0.1823
 2550TIP3    H129065   1.935   2.108  10.969 -0.5333  2.1433  0.5795
 2550TIP3    H229066   1.847   1.999  10.913  1.5242  0.7534 -0.0507
 2551TIP3   OH229067   5.467   4.921  12.674  0.5251 -0.0765  0.6334
 2551TIP3    H129068   5.400   4.908  12.608  0.3977  1.3381  0.4514
 2551TIP3    H229069   5.450   4.853  12.740 -0.5318 -0.2878  0.1614
 2552TIP3   OH229070   4.800   2.150   5.254  0.0640 -0.3171  0.0330
 2552TIP3    H129071   4.710   2.135   5.281  0.1171 -0.3547  0.1921
 2552TIP3    H229072   4.845   2.067   5.275  0.7516  0.5737  2.5270
 2553TIP3   OH229073   1.130   3.467   2.439 -0.1707 -0.2178  0.1581
 2553TIP3    H129074   1.086   3.526   2.378 -0.0551 -1.8169 -1.5788
 2553TIP3    H229075   1.222   3.469   2.413  0.0821 -0.0975  1.0185
 2554TIP3   OH229076   0.206   6.226   1.655  0.1279  0.2555 -0.0691
 2554TIP3    H129077   0.149   6.196   1.725  0.1714  2.7649  1.1743
 2554TIP3    H229078   0.166   6.193   1.575 -0.3366 -2.0655  1.0332
 2555TIP3   OH229079   3.611   1.394   1.816  0.1092  0.2498  0.4419
 2555TIP3    H129080   3.534   1.440   1.782  1.4954  2.0632 -0.4032
 2555TIP3    H229081   3.651   1.354   1.739  0.3304 -0.2118  0.7947
 2556TIP3   OH229082   6.754   4.291   2.824 -0.2207 -0.2492 -0.3058
 2556TIP3    H129083   6.745   4.384   2.806  0.1384  0.3966  2.4757
 2556TIP3    H229084   6.668   4.263   2.855 -0.0238 -0.5598 -0.0214
 2557TIP3   OH229085   2.526   6.055  14.912 -0.0239  0.0819  0.5187
 2557TIP3    H129086   2.499   6.087  14.825 -0.7472 -1.7696  0.0178
 2557TIP3    H229087   2.444   6.037  14.957  0.3591  0.7636  1.5138
 2558TIP3   OH229088   6.755   5.105  11.279 -0.0605  0.4486  0.3272
 2558TIP3    H129089   6.788   5.173  11.221  1.4945  0.7846  1.5382
 2558TIP3    H229090   6.828   5.044  11.289 -0.5906 -0.0691  1.2276
 2559TIP3   OH229091   5.097   2.415  11.742 -0.4100  0.6763  0.4115
 2559TIP3    H129092   5.054   2.383  11.821 -0.8001  2.6560  1.0651
 2559TIP3    H229093   5.168   2.353  11.727 -1.1793 -0.5296  1.4984
 2560TIP3   OH229094   4.006   3.564  11.094  0.1535  0.1294  0.3152
 2560TIP3    H129095   4.032   3.602  11.177 -0.0270 -0.6758  0.7485
 2560TIP3    H229096   4.087   3.535  11.053  0.0280 -2.4581  1.7018
 2561TIP3   OH229097   1.010   2.230   5.633 -0.0217 -0.0226  0.7745
 2561TIP3    H129098   0.983   2.309   5.586  0.7744  0.4882  1.1510
 2561TIP3    H229099   0.928   2.185   5.653 -0.3630 -1.0916 -2.4710
 2562TIP3   OH229100   5.205   4.248   5.666 -0.4140  0.1535  0.3899
 2562TIP3    H129101   5.223   4.292   5.749  1.0454  1.9659 -0.8099
 2562TIP3    H229102   5.111   4.260   5.652 -1.2135 -2.2234  2.8099
 2563TIP3   OH229103   2.804   6.032   1.221  0.6164  0.4520 -0.3571
 2563TIP3    H129104   2.827   5.948   1.259 -0.9469 -0.2667 -0.9165
 2563TIP3    H229105   2.887   6.068   1.190  1.3690 -0.6577  0.3046
 2564TIP3   OH229106   4.392   2.997   2.246  0.6862 -0.1133 -0.0755
 2564TIP3    H129107   4.434   3.082   2.233 -1.2262  1.1333  1.2112
 2564TIP3    H229108   4.314   3.000   2.190  0.2339 -0.6986  0.4972
 2565TIP3   OH229109   0.414   1.907   5.621 -0.2111  0.0529 -0.1249
 2565TIP3    H129110   0.348   1.837   5.621  1.8464 -2.1023 -2.3220
 2565TIP3    H229111   0.486   1.872   5.673  0.4642  0.9756 -0.4111
 2566TIP3   OH229112   2.226   4.194  11.738  0.2674 -0.1682  0.5222
 2566TIP3    H129113   2.256   4.108  11.708 -0.9445 -0.9935  1.5595
 2566TIP3    H229114   2.183   4.177  11.822 -0.8135  1.3029  0.3154
 2567TIP3   OH229115   6.461   2.373  15.814  0.2525  0.5323  0.1990
 2567TIP3    H129116   6.447   2.278  15.819  1.3660  0.3998  1.2473
 2567TIP3    H229117   6.535   2.383  15.754  1.5976  0.5450  1.7838
 2568TIP3   OH229118   5.446   3.579  16.378  0.2476  0.1482 -0.5016
 2568TIP3    H129119   5.402   3.620  16.303  0.2143  1.1774  0.0673
 2568TIP3    H229120   5.484   3.653  16.427  3.1350 -0.6843 -1.2771
 2569TIP3   OH229121   1.517   1.868  17.033 -0.0758  0.0003 -0.4266
 2569TIP3    H129122   1.530   1.840  17.124  0.7369  2.0010  0.1343
 2569TIP3    H229123   1.590   1.829  16.986 -1.1476 -2.0144 -0.4909
 2570TIP3   OH229124   4.521   5.286   2.486  0.0928  0.3882  0.6903
 2570TIP3    H129125   4.439   5.241   2.510 -0.2221  0.8199  0.4278
 2570TIP3    H229126   4.514   5.300   2.392 -0.2940  1.9329  0.9203
 2571TIP3   OH229127   2.131   3.317  16.727 -0.2401 -0.0058 -0.0173
 2571TIP3    H129128   2.127   3.252  16.657  0.0316  1.1012 -1.0785
 2571TIP3    H229129   2.045   3.358  16.728 -0.6945 -0.9125  1.2149
 2572TIP3   OH229130   6.389   5.322   2.966  0.3879  0.6449 -0.1904
 2572TIP3    H129131   6.406   5.236   3.004  1.2324  1.5955  1.7164
 2572TIP3    H229132   6.344   5.303   2.883 -1.8760 -1.5399  1.4009
 2573TIP3   OH229133   4.853   1.154   4.159  0.8137  0.5745  0.4734
 2573TIP3    H129134   4.834   1.182   4.249 -0.0469  0.3278  0.3806
 2573TIP3    H229135   4.846   1.235   4.108  1.7150  0.7927  0.6747
 2574TIP3   OH229136   1.591   1.374   2.891  0.4033  0.1281 -0.0075
 2574TIP3    H129137   1.523   1.408   2.950  2.1270  0.6520  1.7787
 2574TIP3    H229138   1.572   1.414   2.806 -1.9077 -0.2998  0.2317
 2575TIP3   OH229139   1.099   5.612  11.712  0.1262  0.3225 -0.0080
 2575TIP3    H129140   1.142   5.554  11.649  0.6082  0.4505  0.1968
 2575TIP3    H229141   1.022   5.563  11.742 -0.8258  0.7583 -1.6188
 2576TIP3   OH229142   6.094   6.146  11.701  0.0236 -0.1948  0.2961
 2576TIP3    H129143   6.043   6.216  11.659 -1.4905 -1.9876 -1.0283
 2576TIP3    H229144   6.071   6.067  11.651  2.5881 -1.4466  0.9719
 2577TIP3   OH229145   3.416   5.102  11.683  0.0868 -0.0872  0.0038
 2577TIP3    H129146   3.496   5.103  11.631  0.5611  0.9667  0.7329
 2577TIP3    H229147   3.347   5.129  11.621  0.8059  2.2213  0.1263
 2578TIP3   OH229148   2.123   0.388  14.396  0.3092 -0.2055 -0.8093
 2578TIP3    H129149   2.095   0.451  14.331 -3.1636 -1.1140 -0.4220
 2578TIP3    H229150   2.130   0.438  14.478 -0.0394  0.0951 -0.9646
 2579TIP3   OH229151   5.938   4.373  13.764  0.2736  0.5744  0.4143
 2579TIP3    H129152   6.009   4.338  13.818  1.4261  0.9010 -0.8358
 2579TIP3    H229153   5.860   4.329  13.796  1.3532 -1.5656  0.3094
 2580TIP3   OH229154   6.307   0.702   0.581  0.0529 -0.2374 -0.0598
 2580TIP3    H129155   6.241   0.735   0.641 -1.5672 -2.0616 -0.7168
 2580TIP3    H229156   6.387   0.751   0.602 -1.0103  0.6710  2.0751
 2581TIP3   OH229157   0.807   1.061  14.283  0.0754  0.3203 -0.2149
 2581TIP3    H129158   0.821   0.981  14.334 -2.2764 -1.0858 -1.6239
 2581TIP3    H229159   0.870   1.054  14.211  1.9340  1.2805  1.2264
 2582TIP3   OH229160   6.200   4.758  13.232  0.7118  0.0134  0.4037
 2582TIP3    H129161   6.133   4.812  13.192  2.4127  2.3516  0.4787
 2582TIP3    H229162   6.252   4.725  13.159  0.9578  0.3007  0.4446
 2583TIP3   OH229163   5.602   5.377  14.829  0.4331  0.1988  0.2525
 2583TIP3    H129164   5.618   5.469  14.809 -1.0671  0.4492  0.0978
 2583TIP3    H229165   5.557   5.378  14.914 -0.4335 -0.3067 -0.1813
 2584TIP3   OH229166   5.306   5.223   3.493 -0.3029  0.2414 -0.5838
 2584TIP3    H129167   5.308   5.299   3.435  2.0454  1.2535  0.6607
 2584TIP3    H229168   5.287   5.260   3.580  2.3289 -0.2709  0.3037
 2585TIP3   OH229169   5.942   5.544   0.608  0.0550  0.2811  0.2668
 2585TIP3    H129170   5.906   5.538   0.520  1.0701  1.2565 -0.2386
 2585TIP3    H229171   5.922   5.634   0.636  1.6290  0.6984  0.1499
 2586TIP3   OH229172   2.810   4.243  15.348  0.6004  0.3579  0.1364
 2586TIP3    H129173   2.860   4.322  15.328  1.0598 -0.1068 -0.6657
 2586TIP3    H229174   2.767   4.221  15.265 -1.0296  0.7968  0.8436
 2587TIP3   OH229175   4.004   0.753  13.696 -1.0992 -0.0812  0.1967
 2587TIP3    H129176   3.920   0.790  13.668 -0.3069  1.1846 -0.6025
 2587TIP3    H229177   4.007   0.667  13.653 -1.1446  0.6854 -1.4164
 2588TIP3   OH229178   6.710   2.360  15.238 -0.0734  0.2192 -0.2679
 2588TIP3    H129179   6.681   2.451  15.237 -0.1679  0.1869 -1.4792
 2588TIP3    H229180   6.639   2.312  15.281  0.6096  0.8856  1.7347
 2589TIP3   OH229181   1.928   4.468  16.829  0.9100 -0.1817  0.1802
 2589TIP3    H129182   1.963   4.557  16.832 -0.6393  0.4726 -0.4107
 2589TIP3    H229183   1.845   4.476  16.782  1.3448 -2.1371 -1.0424
 2590TIP3   OH229184   1.717   3.354   4.912  0.2502  0.1889  0.1139
 2590TIP3    H129185   1.775   3.426   4.938  0.0174  0.1225  0.8338
 2590TIP3    H229186   1.707   3.365   4.817  0.4213  0.9562  0.1760
 2591TIP3   OH229187   6.384   1.090  13.462 -0.6656  0.5866  0.0043
 2591TIP3    H129188   6.445   1.160  13.440  1.8227 -2.3851 -3.8359
 2591TIP3    H229189   6.303   1.114  13.418 -0.5314  1.9618  0.4680
 2592TIP3   OH229190   0.520   3.954   2.689 -0.2666 -0.2560 -0.3259
 2592TIP3    H129191   0.592   3.917   2.738 -1.0541 -0.0262  1.0576
 2592TIP3    H229192   0.529   4.049   2.700 -1.0813 -0.2471  0.3128
 2593TIP3   OH229193   3.061   4.064   2.295 -0.1400  0.0756  0.5953
 2593TIP3    H129194   3.087   4.004   2.366 -1.5681 -1.0532  0.2173
 2593TIP3    H229195   2.983   4.108   2.329 -2.8938 -2.8696 -1.3509
 2594TIP3   OH229196   1.377   1.517  16.049 -0.2769 -0.1980 -0.0374
 2594TIP3    H129197   1.363   1.443  16.107 -2.2654 -1.0245 -1.4690
 2594TIP3    H229198   1.296   1.524  15.998  0.9952  1.0815 -2.0297
 2595TIP3   OH229199   4.031   2.182   5.946 -0.4110 -0.5883  0.3740
 2595TIP3    H129200   3.995   2.172   6.034 -1.5126 -0.6549 -0.0670
 2595TIP3    H229201   4.058   2.274   5.942 -0.2509 -0.6139  0.8134
 2596TIP3   OH229202   5.040   1.320  14.608 -0.0400 -0.2538 -0.5091
 2596TIP3    H129203   5.039   1.256  14.679  0.1236  0.0040 -0.2736
 2596TIP3    H229204   4.956   1.366  14.616 -0.4440 -0.8735 -1.0801
 2597TIP3   OH229205   0.671   5.596  13.978 -0.3919  0.1989 -0.1076
 2597TIP3    H129206   0.678   5.642  13.894  0.0873  2.3127  1.0254
 2597TIP3    H229207   0.751   5.619  14.025  0.5580 -2.9500  0.0730
 2598TIP3   OH229208   0.448   1.643  12.571  0.6491  0.0631 -0.7366
 2598TIP3    H129209   0.405   1.728  12.566  0.9842  0.1983 -1.7015
 2598TIP3    H229210   0.542   1.664  12.571  0.7471 -0.2447  0.8563
 2599TIP3   OH229211   3.248   4.198  16.987 -0.3036 -0.0551  0.8551
 2599TIP3    H129212   3.154   4.212  17.001 -0.1437  1.3934  0.5554
 2599TIP3    H229213   3.289   4.231  17.067 -0.0685 -1.2724  1.2596
 2600TIP3   OH229214   1.238   4.435   4.729 -0.1567 -0.1578  0.0466
 2600TIP3    H129215   1.253   4.412   4.638 -2.7909 -0.0870 -0.4711
 2600TIP3    H229216   1.180   4.368   4.763 -1.3523  1.2282  0.8844
 2601TIP3   OH229217   6.586   3.650  15.473  0.6834 -0.2322  0.2180
 2601TIP3    H129218   6.605   3.594  15.397 -0.9199 -1.8979  0.9534
 2601TIP3    H229219   6.503   3.617  15.507  0.6737  1.3495  1.9063
 2602TIP3   OH229220   2.544   0.261  17.001 -0.1812 -0.5939 -0.4687
 2602TIP3    H129221   2.621   0.238  16.949 -1.3725 -1.1970 -2.0121
 2602TIP3    H229222   2.471   0.257  16.940 -1.5184 -0.4573  1.0606
 2603TIP3   OH229223   1.570   0.790  12.337 -0.0192 -0.2401  0.1231
 2603TIP3    H129224   1.501   0.732  12.372  0.2563 -0.5283  0.1940
 2603TIP3    H229225   1.575   0.768  12.244 -0.3388  0.1063  0.0207
 2604TIP3   OH229226   2.540   3.629  14.495  0.6435  0.3768 -0.2800
 2604TIP3    H129227   2.614   3.687  14.513 -0.1850  1.3976 -0.0899
 2604TIP3    H229228   2.577   3.561  14.438  1.2630  2.0658 -2.0388
 2605TIP3   OH229229   0.930   1.163  11.345 -0.4666  0.2454 -0.1201
 2605TIP3    H129230   0.859   1.115  11.387 -1.0255 -0.2237 -1.5428
 2605TIP3    H229231   1.010   1.122  11.379 -0.9161 -1.8012 -1.3281
 2606TIP3   OH229232   2.798   2.496  11.454 -0.0545  0.0747  0.0411
 2606TIP3    H129233   2.710   2.479  11.422 -0.8999 -1.0365  2.7527
 2606TIP3    H229234   2.787   2.555  11.528  1.4414 -0.4369  0.7187
 2607TIP3   OH229235   0.298   1.851  11.342  0.4599 -0.1822 -0.3492
 2607TIP3    H129236   0.301   1.774  11.399 -0.6834 -0.4147 -0.5794
 2607TIP3    H229237   0.252   1.918  11.394 -2.9321 -1.1707 -1.7854
 2608TIP3   OH229238   3.797   5.535  11.850 -0.8608 -0.0086  0.7973
 2608TIP3    H129239   3.758   5.519  11.935  1.1805  1.7331  2.1610
 2608TIP3    H229240   3.884   5.495  11.855 -1.6479 -2.3672 -1.5624
 2609TIP3   OH229241   4.981   6.351  12.842  0.5221  0.2193  0.0923
 2609TIP3    H129242   4.931   6.426  12.875  1.1283  0.3689  0.6884
 2609TIP3    H229243   4.914   6.290  12.811  0.0097  0.8754 -0.1239
 2610TIP3   OH229244   0.123   0.750  14.937  0.3654  0.2360  0.1237
 2610TIP3    H129245   0.122   0.794  14.852 -1.1670  1.0019  0.4965
 2610TIP3    H229246   0.077   0.811  14.996 -0.1336 -1.0396  1.1023
 2611TIP3   OH229247   3.935   1.348   1.729 -0.6374 -0.4894 -0.3339
 2611TIP3    H129248   3.909   1.275   1.785  0.8050 -0.4247  0.4724
 2611TIP3    H229249   3.874   1.345   1.656  0.5832 -3.7654 -1.3931
 2612TIP3   OH229250   1.512   6.229  17.142  0.3386 -0.2385 -0.2730
 2612TIP3    H129251   1.569   6.303  17.161  1.2409 -1.0538  0.2948
 2612TIP3    H229252   1.434   6.244  17.195  0.9329 -0.1826  0.6021
 2613TIP3   OH229253   2.108   2.399  12.132 -0.2207  0.4979 -0.3757
 2613TIP3    H129254   2.147   2.443  12.208 -0.4011  0.0474 -0.0155
 2613TIP3    H229255   2.017   2.384  12.157  0.0672 -0.9448 -0.0901
 2614TIP3   OH229256   1.450   4.246   4.930  0.4500  0.0684  0.1453
 2614TIP3    H129257   1.391   4.310   4.970  0.6263 -0.0647  0.6259
 2614TIP3    H229258   1.473   4.284   4.845  0.0315  0.3307  0.1472
 2615TIP3   OH229259   6.189   5.955  15.166  0.7009 -0.5346 -0.0338
 2615TIP3    H129260   6.094   5.942  15.176  0.3800  1.4301 -0.1807
 2615TIP3    H229261   6.207   5.932  15.075 -0.0602  1.1071 -0.6456
 2616TIP3   OH229262   2.241   2.910  15.466  0.6729  0.6326  0.0846
 2616TIP3    H129263   2.291   2.944  15.392 -0.8951  1.3648 -0.6701
 2616TIP3    H229264   2.183   2.982  15.491 -1.7252 -0.9438 -0.6477
 2617TIP3   OH229265   3.488   1.460  15.027 -0.1988  0.2028  0.5286
 2617TIP3    H129266   3.436   1.522  15.079  0.8789  1.0300  0.6609
 2617TIP3    H229267   3.536   1.516  14.966  0.4928 -0.5443  0.3759
 2618TIP3   OH229268   2.999   0.665   3.582  0.1792 -0.0554  0.4058
 2618TIP3    H129269   3.057   0.619   3.521 -1.5703 -2.3166  0.2923
 2618TIP3    H229270   3.044   0.659   3.666  1.7916  1.5389 -0.2892
 2619TIP3   OH229271   4.204   1.190  15.428  0.0380  1.1170 -0.5579
 2619TIP3    H129272   4.223   1.205  15.521 -1.7554 -1.3429  0.3401
 2619TIP3    H229273   4.116   1.227  15.416 -1.1320 -1.3370 -0.3053
 2620TIP3   OH229274   3.997   3.085   2.387  0.2739 -0.3777 -0.6995
 2620TIP3    H129275   4.015   3.167   2.433 -1.2750  0.9581 -2.3721
 2620TIP3    H229276   4.019   3.103   2.295  1.8801 -2.5110 -0.8187
 2621TIP3   OH229277   0.248   0.113  13.452 -0.1431  0.4482  0.4268
 2621TIP3    H129278   0.261   0.185  13.514  1.2936  0.7492 -0.1687
 2621TIP3    H229279   0.265   0.153  13.366 -0.2198 -0.4007  0.0106
 2622TIP3   OH229280   0.505   1.438   1.076  0.3635  0.4440  0.1875
 2622TIP3    H129281   0.596   1.452   1.047  0.6061 -1.9452 -0.4639
 2622TIP3    H229282   0.452   1.474   1.005  0.9249 -1.7303 -1.4609
 2623TIP3   OH229283   3.900   5.745  12.073 -0.4484  0.1614 -0.1517
 2623TIP3    H129284   3.976   5.757  12.130  0.4577 -2.1550 -0.7812
 2623TIP3    H229285   3.932   5.767  11.985 -1.9745  4.2563  0.0709
 2624TIP3   OH229286   0.275   6.277   3.061  0.3188  0.1572  0.3134
 2624TIP3    H129287   0.214   6.205   3.077  0.0273  0.3235 -0.0327
 2624TIP3    H229288   0.222   6.356   3.072  1.0176  0.4066  2.4555
 2625TIP3   OH229289   1.465   1.760   1.444  0.1726  0.3007  0.3799
 2625TIP3    H129290   1.413   1.701   1.499 -1.7169  0.1566 -1.3969
 2625TIP3    H229291   1.547   1.714   1.430 -0.2194 -0.6802  1.1964
 2626TIP3   OH229292   5.647   3.421  12.654  0.5561  0.3257  0.1463
 2626TIP3    H129293   5.726   3.402  12.603  0.2968  1.8816 -0.8940
 2626TIP3    H229294   5.672   3.403  12.744  2.3492  1.4296 -0.0798
 2627TIP3   OH229295   0.098   2.998  12.184  0.4833  0.1600 -0.4371
 2627TIP3    H129296   0.138   3.008  12.097  0.5699  0.2751 -0.3846
 2627TIP3    H229297   0.124   3.077  12.231  1.2112 -0.3273 -0.0083
 2628TIP3   OH229298   5.829   3.668   4.879 -0.2371 -0.1678  0.4434
 2628TIP3    H129299   5.754   3.671   4.820  0.2969 -2.7344 -0.5144
 2628TIP3    H229300   5.901   3.706   4.828 -0.4421  0.4130  0.5878
 2629TIP3   OH229301   1.407   5.957   2.528 -0.1800 -0.1628  0.4564
 2629TIP3    H129302   1.447   5.890   2.473 -2.6194 -1.0234 -0.4047
 2629TIP3    H229303   1.396   5.915   2.614  1.5465  0.4104  0.9973
 2630TIP3   OH229304   0.082   2.820   2.441 -0.0746 -0.2903  0.1504
 2630TIP3    H129305   0.048   2.907   2.457  2.3262  0.6398  0.6248
 2630TIP3    H229306   0.075   2.808   2.346 -0.9699  0.1420  0.1557
 2631TIP3   OH229307   0.401   6.702  11.297 -0.7886 -0.0839  0.4273
 2631TIP3    H129308   0.371   6.742  11.215  1.8300  1.4297  0.0920
 2631TIP3    H229309   0.330   6.719  11.359 -1.4874  1.5467 -0.7342
 2632TIP3   OH229310   0.693   4.935   3.603 -0.7825  0.6169  0.0575
 2632TIP3    H129311   0.647   4.881   3.668  0.9876 -1.0882 -0.0182
 2632TIP3    H229312   0.784   4.904   3.606  0.1723  3.1543 -0.5176
 2633TIP3   OH229313   3.117   5.781  14.196  0.1384 -0.6830  0.3604
 2633TIP3    H129314   3.063   5.804  14.121  2.8824  1.1976 -1.2055
 2633TIP3    H229315   3.115   5.860  14.251  0.6877 -0.8773  0.6600
 2634TIP3   OH229316   6.485   1.588  16.578 -0.3381 -0.1678  0.4293
 2634TIP3    H129317   6.542   1.665  16.575  0.6275 -0.8823 -0.6710
 2634TIP3    H229318   6.427   1.598  16.503 -0.3749 -0.4057  0.4270
 2635TIP3   OH229319   3.359   2.854   2.526 -0.0682 -0.1494  0.1051
 2635TIP3    H129320   3.444   2.818   2.501 -0.9952 -2.2950 -0.1411
 2635TIP3    H229321   3.350   2.932   2.470  2.2090  0.8726  0.9989
 2636TIP3   OH229322   1.106   2.798   1.396 -0.2729  0.2486 -0.0178
 2636TIP3    H129323   1.028   2.852   1.388  0.8621  1.7102 -2.5595
 2636TIP3    H229324   1.157   2.839   1.466 -0.2313  1.4366 -0.7293
 2637TIP3   OH229325   0.411   1.352   1.555 -0.0161  0.5290 -0.0196
 2637TIP3    H129326   0.325   1.318   1.581 -0.5869  2.6771  1.1532
 2637TIP3    H229327   0.411   1.443   1.586  2.4757  0.7545 -0.4942
 2638TIP3   OH229328   2.437   2.044   1.194 -0.4253  0.0337 -0.1318
 2638TIP3    H129329   2.483   2.008   1.270 -0.5983 -0.8090 -0.4153
 2638TIP3    H229330   2.423   1.969   1.136  0.3813  0.7776 -1.3628
 2639TIP3   OH229331   0.510   1.936  15.449 -0.4673 -0.4767 -0.3446
 2639TIP3    H129332   0.526   2.029  15.433 -1.2732 -0.0216  1.2706
 2639TIP3    H229333   0.431   1.917  15.400 -1.4987  0.2596  0.9590
 2640TIP3   OH229334   1.385   5.402   0.470 -0.2878  0.1508  0.3311
 2640TIP3    H129335   1.477   5.424   0.454  0.4058 -2.8531 -0.5632
 2640TIP3    H229336   1.388   5.319   0.518 -2.4499 -1.5853 -2.2453
 2641TIP3   OH229337   2.544   6.428  15.976  0.2834  0.8501  0.2725
 2641TIP3    H129338   2.558   6.358  16.040  0.6569 -1.5141 -2.1853
 2641TIP3    H229339   2.633   6.454  15.950  0.4357 -2.0536 -2.9582
 2642TIP3   OH229340   6.503   2.798  11.157 -0.3497  0.0800  0.3451
 2642TIP3    H129341   6.478   2.888  11.174  2.1699  0.7980  0.7061
 2642TIP3    H229342   6.477   2.782  11.067  0.7232  1.7934 -0.3118
 2643TIP3   OH229343   5.340   3.712   3.107 -0.3888  0.1306 -0.5765
 2643TIP3    H129344   5.410   3.714   3.173 -0.2086  0.9752 -0.7881
 2643TIP3    H229345   5.265   3.752   3.151 -0.6735 -0.5401 -0.4384
 2644TIP3   OH229346   2.692   6.335  16.606  0.1448  0.4465 -0.3343
 2644TIP3    H129347   2.667   6.276  16.535 -0.7129  0.7941 -0.3378
 2644TIP3    H229348   2.634   6.312  16.678 -0.7500  1.7730 -0.5870
 2645TIP3   OH229349   5.853   2.850   0.890  0.8564 -0.1962 -0.1946
 2645TIP3    H129350   5.862   2.765   0.847  0.0259 -0.3718 -0.0406
 2645TIP3    H229351   5.921   2.851   0.956  1.7912 -0.1547 -1.1304
 2646TIP3   OH229352   6.560   6.639   2.382 -0.4342 -0.0397  0.1453
 2646TIP3    H129353   6.525   6.569   2.326 -0.6006  0.2349 -0.0972
 2646TIP3    H229354   6.520   6.622   2.467 -0.0061 -0.5895  0.2433
 2647TIP3   OH229355   2.841   4.031  12.711 -0.2512 -0.3816  0.2899
 2647TIP3    H129356   2.803   4.042  12.798 -0.0199  0.1289  0.3330
 2647TIP3    H229357   2.822   4.114  12.666  0.5884 -0.2052  0.2326
 2648TIP3   OH229358   1.573   4.329  15.382  0.2606  0.3983  0.0479
 2648TIP3    H129359   1.535   4.377  15.456 -0.3800  1.9666 -1.2284
 2648TIP3    H229360   1.663   4.363  15.376  0.0771  0.8268 -0.3329
 2649TIP3   OH229361   5.531   3.103   3.488 -0.0870 -0.3061  0.0707
 2649TIP3    H129362   5.510   3.149   3.569 -0.0702  0.9397 -0.5919
 2649TIP3    H229363   5.448   3.099   3.441  0.2360  0.5966 -0.6094
 2650TIP3   OH229364   1.829   3.594  16.322 -0.1459  0.2216 -0.0459
 2650TIP3    H129365   1.902   3.631  16.370  1.2470 -1.6130 -0.6334
 2650TIP3    H229366   1.795   3.667  16.270  0.0392  1.5559  1.6172
 2651TIP3   OH229367   3.482   1.106  11.594 -0.2915  0.0909 -0.4654
 2651TIP3    H129368   3.403   1.051  11.594 -0.2718 -0.0621  2.1795
 2651TIP3    H229369   3.546   1.055  11.545 -0.3109 -2.3236  1.7698
 2652TIP3   OH229370   2.889   4.673   2.585  0.6742  0.0622  0.3265
 2652TIP3    H129371   2.927   4.747   2.537  1.0899 -0.6976 -0.5358
 2652TIP3    H229372   2.807   4.707   2.621 -0.2382  0.3404 -1.8899
 2653TIP3   OH229373   0.787   2.660   2.240  0.0156  0.7479 -0.0979
 2653TIP3    H129374   0.867   2.640   2.288 -0.1706  0.8775  0.2743
 2653TIP3    H229375   0.718   2.610   2.285 -0.2918  1.4707  0.2640
 2654TIP3   OH229376   5.656   4.048  12.002 -0.1233  0.0086 -0.0219
 2654TIP3    H129377   5.660   3.967  12.054 -0.9499 -0.0020  0.0312
 2654TIP3    H229378   5.628   4.019  11.915  1.0431  0.0550 -0.4340
 2655TIP3   OH229379   2.267   0.825   0.201 -0.6310 -0.2070 -0.0869
 2655TIP3    H129380   2.285   0.748   0.148 -0.7161 -0.7308  0.6267
 2655TIP3    H229381   2.351   0.872   0.205 -0.9413  0.5819 -1.8048
 2656TIP3   OH229382   4.093   2.955  10.102  0.2808 -0.4618 -0.1410
 2656TIP3    H129383   4.024   3.020  10.085 -0.6007 -1.7198 -1.6152
 2656TIP3    H229384   4.130   2.936  10.015  0.6187 -1.8140  0.2799
 2657TIP3   OH229385   4.295   6.350  13.104 -0.1928 -0.8527 -0.1030
 2657TIP3    H129386   4.310   6.407  13.179 -0.5449 -0.4953 -0.2990
 2657TIP3    H229387   4.373   6.294  13.100  0.0935 -0.4785  0.1740
 2658TIP3   OH229388   2.243   4.535  14.444  0.3481 -0.2691 -0.6401
 2658TIP3    H129389   2.243   4.588  14.364  1.0277  0.3140 -0.2651
 2658TIP3    H229390   2.156   4.548  14.482  0.9747  1.8194  0.2361
 2659TIP3   OH229391   0.059   3.101  14.285  0.8367 -0.3441 -0.0043
 2659TIP3    H129392  -0.004   3.150  14.337  0.6831  0.0969 -0.5880
 2659TIP3    H229393   0.043   3.010  14.307  0.0801 -0.2270 -0.0498
 2660TIP3   OH229394   2.825   2.436  13.779  0.7656  0.1520  0.1239
 2660TIP3    H129395   2.867   2.350  13.787  1.5457  0.3672 -1.3227
 2660TIP3    H229396   2.804   2.444  13.686 -0.3067  1.0819  0.4252
 2661TIP3   OH229397   4.807   4.947   3.784 -0.0703  0.2316 -0.2313
 2661TIP3    H129398   4.751   5.023   3.796  0.0473  0.2074  0.5019
 2661TIP3    H229399   4.876   4.977   3.725  0.4400  0.9401  0.7045
 2662TIP3   OH229400   6.546   3.641  13.059  0.1069 -0.3565 -0.0959
 2662TIP3    H129401   6.539   3.612  12.969 -2.3000 -1.7560  0.4632
 2662TIP3    H229402   6.553   3.737  13.053  3.6496 -0.5638 -1.8072
 2663TIP3   OH229403   4.492   5.150   1.322 -0.0819  0.4851  0.1770
 2663TIP3    H129404   4.537   5.176   1.242 -0.4322  0.9622  0.1339
 2663TIP3    H229405   4.407   5.194   1.318 -0.5639 -0.4104  0.2536
 2664TIP3   OH229406   6.457   2.898   1.054 -0.0695  0.5377  0.1112
 2664TIP3    H129407   6.372   2.872   1.019  0.2114 -1.3837  0.7191
 2664TIP3    H229408   6.506   2.929   0.978 -1.2074  1.4195 -0.2807
 2665TIP3   OH229409   2.726   4.881   3.457 -0.0966  0.2443  0.0475
 2665TIP3    H129410   2.674   4.895   3.536 -1.6147  0.2799 -0.9102
 2665TIP3    H229411   2.729   4.967   3.414 -0.9852 -0.1655 -0.8940
 2666TIP3   OH229412   3.446   5.042   4.332 -0.2422 -0.0933 -0.2483
 2666TIP3    H129413   3.529   5.086   4.311  0.2689 -0.5596  0.7255
 2666TIP3    H229414   3.387   5.114   4.356 -0.1426  0.2440 -0.9793
 2667TIP3   OH229415   5.347   5.397  11.839  0.5602 -0.6737  0.3440
 2667TIP3    H129416   5.271   5.452  11.856 -0.1103 -0.9344 -1.5705
 2667TIP3    H229417   5.422   5.457  11.843 -0.0187  0.1169 -0.4031
 2668TIP3   OH229418   3.959   5.473  13.950 -0.7094 -0.0654  0.5592
 2668TIP3    H129419   3.962   5.459  13.855  0.4127 -0.0826  0.5792
 2668TIP3    H229420   3.868   5.497  13.968 -1.3715 -1.8230 -0.2602
 2669TIP3   OH229421   1.028   3.616  13.370 -0.5966 -0.3323 -0.1243
 2669TIP3    H129422   0.971   3.546  13.401  0.0314 -1.1598 -0.7943
 2669TIP3    H229423   1.116   3.578  13.370  0.2436  1.3508  2.2338
 2670TIP3   OH229424   3.111   2.274  16.724 -0.3013 -0.7259 -0.3123
 2670TIP3    H129425   3.077   2.220  16.795  0.7010 -1.1596 -0.1472
 2670TIP3    H229426   3.080   2.362  16.744 -0.2672 -0.8938  0.5066
 2671TIP3   OH229427   4.357   4.195  15.898  0.2550 -0.4486 -0.3988
 2671TIP3    H129428   4.448   4.209  15.923  0.6636 -0.3967 -1.8184
 2671TIP3    H229429   4.306   4.248  15.960  1.2236 -0.0257  0.0487
 2672TIP3   OH229430   1.497   4.052   1.324  0.2456 -0.7632 -0.6733
 2672TIP3    H129431   1.586   4.018   1.338 -0.3275 -2.0193  0.1558
 2672TIP3    H229432   1.440   3.978   1.347 -1.0078 -0.1905 -1.8254
 2673TIP3   OH229433   6.123   5.946   4.930  0.0542  0.1058 -0.3853
 2673TIP3    H129434   6.093   5.901   5.008  1.0585 -2.4581 -1.3768
 2673TIP3    H229435   6.173   6.021   4.963 -0.5854 -0.1953  1.3680
 2674TIP3   OH229436   1.185   5.119  15.129 -0.5760 -0.2798  0.5593
 2674TIP3    H129437   1.208   5.180  15.199 -1.0759  1.2875 -0.6014
 2674TIP3    H229438   1.269   5.092  15.092 -0.2494  3.5403 -2.0698
 2675TIP3   OH229439   4.874   1.925   0.335  0.2133  0.3669 -0.0639
 2675TIP3    H129440   4.851   1.916   0.428 -1.9541  1.0963 -0.4637
 2675TIP3    H229441   4.789   1.927   0.290  1.1098  2.5441 -1.8347
 2676TIP3   OH229442   5.046   1.568  14.231  0.3621 -0.0279 -0.1476
 2676TIP3    H129443   5.016   1.596  14.144  1.7769 -1.6173 -1.2147
 2676TIP3    H229444   4.996   1.489  14.249  0.7473 -0.2191  0.0768
 2677TIP3   OH229445   2.495   1.658  16.065  0.5221  0.3503  0.1345
 2677TIP3    H129446   2.419   1.657  16.123  0.4901  1.4991  0.1421
 2677TIP3    H229447   2.570   1.642  16.122  0.4938  1.4993  0.5229
 2678TIP3   OH229448   4.268   6.727  14.526  0.6287 -0.0713  0.2531
 2678TIP3    H129449   4.266   6.816  14.560  1.7425  0.0078  0.1713
 2678TIP3    H229450   4.178   6.709  14.499  0.5411  1.3511 -0.5244
 2679TIP3   OH229451   6.402   1.696  12.657  0.2876  0.4474  0.6373
 2679TIP3    H129452   6.362   1.625  12.707  1.2768 -0.3491  0.3192
 2679TIP3    H229453   6.440   1.653  12.581  0.7817  1.3417  0.3725
 2680TIP3   OH229454   1.388   0.985   3.037 -0.3087  0.2348 -0.5663
 2680TIP3    H129455   1.311   0.964   3.090 -0.4480 -1.5862 -1.4002
 2680TIP3    H229456   1.353   0.997   2.949  0.3719 -0.7973 -0.9869
 2681TIP3   OH229457   0.531   5.859  15.876 -0.5933 -0.6502  0.3500
 2681TIP3    H129458   0.444   5.871  15.913 -0.7626 -1.8648  0.3831
 2681TIP3    H229459   0.526   5.775  15.830 -0.3972  0.7178 -2.4137
 2682TIP3   OH229460   0.002   0.724   1.358  0.5870 -0.0246 -0.1684
 2682TIP3    H129461   0.068   0.754   1.421  0.7839 -2.4119  0.8579
 2682TIP3    H229462  -0.040   0.650   1.401 -1.2857  0.0751 -1.7171
 2683TIP3   OH229463   0.238   1.888   5.015  0.0956 -0.1058 -0.5379
 2683TIP3    H129464   0.143   1.879   5.009 -0.1020  1.7963 -0.6160
 2683TIP3    H229465   0.266   1.810   5.063 -1.4092 -1.0592 -1.1378
 2684TIP3   OH229466   0.251   2.432   1.854  0.1687 -0.0328  0.2631
 2684TIP3    H129467   0.227   2.464   1.767  0.5993  1.0899  0.5374
 2684TIP3    H229468   0.334   2.387   1.841 -0.0834 -0.4221 -0.0119
 2685TIP3   OH229469   4.906   5.637   6.593  0.2000  0.4072  0.0178
 2685TIP3    H129470   4.987   5.680   6.565 -0.1026  1.0109  0.0708
 2685TIP3    H229471   4.841   5.661   6.527  0.2252 -0.6725 -0.4289
 2686TIP3   OH229472   1.662   6.258  13.143 -0.5909 -0.4179 -0.3422
 2686TIP3    H129473   1.685   6.197  13.213 -2.4851 -0.7195  0.0707
 2686TIP3    H229474   1.603   6.208  13.086  0.7140 -0.0965 -2.0536
 2687TIP3   OH229475   6.039   2.897  16.285  0.3557 -0.1943 -0.0005
 2687TIP3    H129476   5.979   2.883  16.358 -0.2490 -0.6836 -0.5857
 2687TIP3    H229477   6.118   2.935  16.325 -0.0994 -0.1436  0.8513
 2688TIP3   OH229478   4.290   1.878   0.305  0.5594 -0.2998  0.2438
 2688TIP3    H129479   4.369   1.926   0.330 -0.3450  0.7575  1.1326
 2688TIP3    H229480   4.220   1.943   0.305 -0.2232 -1.0729 -1.2041
 2689TIP3   OH229481   5.674   6.127   3.254 -0.0877 -0.7859  0.1248
 2689TIP3    H129482   5.613   6.200   3.246  0.1253 -0.3259  2.3161
 2689TIP3    H229483   5.715   6.121   3.167 -2.6914 -0.6751 -1.2068
 2690TIP3   OH229484   2.629   0.222   4.872  0.5845  0.4789 -0.3334
 2690TIP3    H129485   2.572   0.299   4.881  0.1169  0.0226  0.7983
 2690TIP3    H229486   2.592   0.174   4.798 -0.3361  0.3419  0.1971
 2691TIP3   OH229487   3.946   4.324   5.249 -0.1558 -0.2665  0.0527
 2691TIP3    H129488   3.940   4.340   5.154 -1.4102 -0.8537  0.0091
 2691TIP3    H229489   4.034   4.353   5.273  0.3190 -0.4576 -1.3603
 2692TIP3   OH229490   0.606   1.528   3.585  0.2030 -0.0098  0.1159
 2692TIP3    H129491   0.524   1.570   3.560 -0.6635 -1.6954  0.0060
 2692TIP3    H229492   0.650   1.509   3.502  0.5196  0.5058  0.1600
 2693TIP3   OH229493   5.802   0.066  13.074 -0.5642  0.2386 -0.5555
 2693TIP3    H129494   5.882   0.065  13.127  0.6656  1.8598 -2.2548
 2693TIP3    H229495   5.783  -0.026  13.058 -1.1252 -0.3469  2.7652
 2694TIP3   OH229496   1.583   0.194  15.189  0.6438 -0.7782 -0.3390
 2694TIP3    H129497   1.611   0.137  15.261 -0.9995 -0.1516  0.8531
 2694TIP3    H229498   1.513   0.248  15.227  0.2833  0.1344 -2.1991
 2695TIP3   OH229499   1.418   4.678  11.877  0.1181  0.2125 -0.5039
 2695TIP3    H129500   1.356   4.717  11.939 -0.6289 -0.7145 -0.6382
 2695TIP3    H229501   1.444   4.751  11.820  0.1334  0.8825  0.3425
 2696TIP3   OH229502   4.780   0.658  13.463 -0.2408 -1.0688  0.1852
 2696TIP3    H129503   4.874   0.649  13.450 -0.2257 -0.0019 -0.6151
 2696TIP3    H229504   4.753   0.576  13.503  0.6899 -2.2704 -1.5212
 2697TIP3   OH229505   6.118   3.644  14.210 -0.0813 -0.5236 -0.5558
 2697TIP3    H129506   6.125   3.740  14.204 -2.5086 -0.3014 -1.0069
 2697TIP3    H229507   6.086   3.629  14.299  0.7000 -0.9739 -0.3421
 2698TIP3   OH229508   5.947   2.267  11.276  0.3188  0.1670 -0.5253
 2698TIP3    H129509   5.910   2.179  11.284  1.5188 -0.5284 -2.0222
 2698TIP3    H229510   6.021   2.268  11.337 -0.7780  0.8200  0.8625
 2699TIP3   OH229511   1.316   0.681   5.309 -0.2914 -0.4341 -0.4661
 2699TIP3    H129512   1.281   0.655   5.224  1.6089  1.8321 -2.0891
 2699TIP3    H229513   1.301   0.775   5.314  1.3728 -0.1785  0.7980
 2700TIP3   OH229514   6.563   3.176   3.852  0.3818 -0.3794  0.1842
 2700TIP3    H129515   6.475   3.202   3.824  0.4078  1.3890  1.5968
 2700TIP3    H229516   6.621   3.214   3.786  0.1315 -1.6545 -0.8220
 2701TIP3   OH229517   3.696   6.730   4.657 -0.7331  0.3993 -1.0953
 2701TIP3    H129518   3.758   6.798   4.683  0.9354 -1.6691  0.7856
 2701TIP3    H229519   3.739   6.685   4.584 -1.1356  0.4192 -1.3471
 2702TIP3   OH229520   2.777   3.803   2.522  0.4930 -0.3268  0.6880
 2702TIP3    H129521   2.844   3.799   2.590  1.0127  2.3686  0.4335
 2702TIP3    H229522   2.826   3.803   2.440  0.1612  0.5736  0.4716
 2703TIP3   OH229523   1.955   4.550   4.511  0.4110  0.9137 -0.4033
 2703TIP3    H129524   1.965   4.459   4.538 -0.5940  0.3479 -1.8292
 2703TIP3    H229525   1.901   4.590   4.579 -0.5182  0.0111 -0.6065
 2704TIP3   OH229526   3.040   1.575  15.543  0.5930 -0.0274  0.3991
 2704TIP3    H129527   3.114   1.543  15.595  0.9866  0.5741  0.2200
 2704TIP3    H229528   3.035   1.668  15.563 -0.9699 -0.3041  1.4312
 2705TIP3   OH229529   2.242   2.838   5.241  0.1206  0.3806  0.0402
 2705TIP3    H129530   2.212   2.834   5.332 -0.5524  0.4490 -0.1771
 2705TIP3    H229531   2.314   2.901   5.243  1.2110 -0.8558  0.8187
 2706TIP3   OH229532   5.439   2.144  16.064 -0.2148  0.3050 -0.1898
 2706TIP3    H129533   5.501   2.084  16.022  0.0056  1.6077 -1.8267
 2706TIP3    H229534   5.355   2.123  16.025 -0.3315  0.3332  0.0458
 2707TIP3   OH229535   4.520   0.556   6.140 -0.8411 -0.0954 -0.6475
 2707TIP3    H129536   4.515   0.467   6.177 -0.5401  0.1556  0.0156
 2707TIP3    H229537   4.533   0.612   6.216  1.0193  0.3212 -1.2334
 2708TIP3   OH229538   3.000   2.492   0.691  0.2259  0.3227  0.0558
 2708TIP3    H129539   3.077   2.436   0.694 -1.1679 -1.6602  0.1256
 2708TIP3    H229540   2.993   2.530   0.778  0.5350 -0.2999  0.3489
 2709TIP3   OH229541   3.369   3.744  15.733  0.0444 -0.7610 -0.0653
 2709TIP3    H129542   3.309   3.756  15.660 -0.6300  0.0169  0.5893
 2709TIP3    H229543   3.386   3.650  15.736 -0.0721 -0.8212 -1.0899
 2710TIP3   OH229544   1.640   4.387  14.339  0.0133  0.1338  0.3317
 2710TIP3    H129545   1.545   4.379  14.330  0.0365 -0.9767  0.9324
 2710TIP3    H229546   1.653   4.468  14.389 -0.5461  0.9449 -0.8018
 2711TIP3   OH229547   3.867   0.923   3.110  0.2835 -0.7084  0.3751
 2711TIP3    H129548   3.787   0.933   3.163  0.5364 -0.5374  0.7272
 2711TIP3    H229549   3.843   0.860   3.042 -0.2466 -0.4257  0.2949
 2712TIP3   OH229550   4.246   4.092   0.230 -0.4478 -0.0990 -0.4367
 2712TIP3    H129551   4.324   4.043   0.204 -0.5824 -0.5261 -0.0365
 2712TIP3    H229552   4.233   4.069   0.322 -0.3797  0.8645 -0.1781
 2713TIP3   OH229553   3.000   1.287   1.259 -0.6928  0.2835 -0.1345
 2713TIP3    H129554   3.048   1.208   1.232 -0.4753  0.0059  1.0048
 2713TIP3    H229555   2.964   1.322   1.177  1.4035  0.4836 -1.0210
 2714TIP3   OH229556   3.489   4.842   1.478  0.5309 -0.5258  0.0235
 2714TIP3    H129557   3.552   4.891   1.531  0.0904 -1.6935  1.7032
 2714TIP3    H229558   3.408   4.845   1.528 -0.4548 -0.1339 -1.4954
 2715TIP3   OH229559   2.692   0.724  12.708 -0.4492 -0.1698  0.1114
 2715TIP3    H129560   2.691   0.645  12.654  1.3232 -1.0221  1.2467
 2715TIP3    H229561   2.739   0.698  12.788  0.9500  2.2395  0.1623
 2716TIP3   OH229562   1.034   6.143   3.099 -0.4404 -0.0275  0.1250
 2716TIP3    H129563   0.976   6.136   3.175  0.1492 -1.0430  0.5148
 2716TIP3    H229564   0.992   6.090   3.032 -0.3009 -0.2175  0.1867
 2717TIP3   OH229565   6.469   0.432  15.266  0.5505 -0.2211 -0.1139
 2717TIP3    H129566   6.509   0.403  15.184  1.0650 -0.9323  0.3852
 2717TIP3    H229567   6.425   0.355  15.301 -1.5460  0.5808 -0.7710
 2718TIP3   OH229568   2.617   4.210   3.963 -0.2494 -0.2258 -0.6459
 2718TIP3    H129569   2.551   4.156   4.006 -0.3987 -1.3797 -2.2417
 2718TIP3    H229570   2.606   4.297   4.002  0.1077 -1.3031  2.1063
 2719TIP3   OH229571   6.302   6.286  13.606 -0.4595  0.0944  0.5082
 2719TIP3    H129572   6.293   6.304  13.700  1.1750  0.1431  0.6908
 2719TIP3    H229573   6.395   6.300  13.588 -0.6326 -0.5079 -1.0005
 2720TIP3   OH229574   0.317   5.011  14.158 -0.3753  0.0252 -0.5834
 2720TIP3    H129575   0.363   5.093  14.171 -3.1748  1.4290  1.7230
 2720TIP3    H229576   0.248   5.031  14.095 -1.0255 -0.5765 -0.0828
 2721TIP3   OH229577   5.293   4.317   3.800 -0.9047 -0.3932  0.3811
 2721TIP3    H129578   5.247   4.330   3.883 -0.7521 -1.9770  0.7429
 2721TIP3    H229579   5.341   4.235   3.812  0.5573  0.2815 -0.6493
 2722TIP3   OH229580   1.609   3.078   6.094 -0.3194  0.0213  0.2853
 2722TIP3    H129581   1.603   3.110   6.004  0.2543 -0.1070  0.1961
 2722TIP3    H229582   1.584   2.986   6.089  1.1791 -0.4040 -0.0160
 2723TIP3   OH229583   2.195   0.794   1.995  0.3410 -0.1731 -0.5482
 2723TIP3    H129584   2.223   0.885   1.986 -3.1516  0.9304 -1.7030
 2723TIP3    H229585   2.135   0.780   1.922 -1.0131 -2.6892  0.9191
 2724TIP3   OH229586   3.329   5.866   5.045  0.0682 -0.1170 -0.0399
 2724TIP3    H129587   3.258   5.805   5.065  1.3356 -1.7272 -0.2670
 2724TIP3    H229588   3.285   5.944   5.012 -1.6031 -0.9636  0.0784
 2725TIP3   OH229589   3.846   3.959  11.005  0.1196 -0.2712  0.1409
 2725TIP3    H129590   3.765   3.999  11.038  1.3655  1.1747  1.6002
 2725TIP3    H229591   3.831   3.949  10.910 -2.2262 -1.2639  0.5435
 2726TIP3   OH229592   5.456   6.308  12.778 -0.2410 -0.2821 -0.3512
 2726TIP3    H129593   5.499   6.308  12.692  0.4928 -2.2548 -0.0289
 2726TIP3    H229594   5.369   6.343  12.761 -0.2577 -1.0138 -1.9928
 2727TIP3   OH229595   3.506   0.602  14.342 -0.3584  0.4750  0.3418
 2727TIP3    H129596   3.513   0.619  14.436 -0.2667  0.6958  0.2950
 2727TIP3    H229597   3.593   0.621  14.307 -0.6048  1.1664  0.0904
 2728TIP3   OH229598   0.090   4.161  12.920  0.0930  0.3949 -0.1263
 2728TIP3    H129599   0.137   4.154  13.003  1.9965 -1.0265 -1.2503
 2728TIP3    H229600   0.006   4.200  12.944  0.6352  0.1834  2.4387
 2729TIP3   OH229601   3.937   2.712  14.072  0.3743  0.0629 -0.2327
 2729TIP3    H129602   3.951   2.740  13.982  0.6658  0.7324  0.0053
 2729TIP3    H229603   3.911   2.792  14.118 -1.8207 -0.6536 -0.1250
 2730TIP3   OH229604   6.417   5.390  15.449  0.3996 -0.0936  0.6259
 2730TIP3    H129605   6.412   5.483  15.470 -0.3522  0.2054 -0.8077
 2730TIP3    H229606   6.328   5.357  15.461  0.3062 -0.2632 -0.4309
 2731TIP3   OH229607   3.999   4.091   4.839 -0.1998  0.4463  0.1829
 2731TIP3    H129608   3.969   4.169   4.887 -0.8990  2.2031 -2.8071
 2731TIP3    H229609   3.935   4.024   4.860 -1.7998  1.8324 -0.0539
 2732TIP3   OH229610   6.605   3.427   0.401 -0.1294 -0.1065 -0.1785
 2732TIP3    H129611   6.595   3.520   0.423  0.3719 -0.3835  1.3998
 2732TIP3    H229612   6.689   3.423   0.355 -0.3633  0.2715 -0.6525
 2733TIP3   OH229613   2.044   4.117  12.618  0.0071  0.0427  0.5209
 2733TIP3    H129614   2.082   4.124  12.530  0.1380  0.1171  0.5818
 2733TIP3    H229615   1.959   4.161  12.611  0.9474  2.0716  0.9760
 2734TIP3   OH229616   6.566   4.877   0.272 -0.1390  0.1816  0.4799
 2734TIP3    H129617   6.587   4.968   0.255  0.1626 -0.1213 -0.9460
 2734TIP3    H229618   6.648   4.830   0.258 -0.7431 -0.5344 -0.9734
 2735TIP3   OH229619   4.596   1.781   0.989 -0.0655 -0.2088 -0.0048
 2735TIP3    H129620   4.648   1.772   0.909  2.0853  0.6983  1.2134
 2735TIP3    H229621   4.553   1.866   0.980  1.1342  0.4530  0.2844
 2736TIP3   OH229622   4.825   6.255  16.424  0.2092 -0.7110  0.0837
 2736TIP3    H129623   4.753   6.252  16.361 -0.6674  1.0149  0.9407
 2736TIP3    H229624   4.830   6.166  16.459 -0.5968 -1.1911 -0.9675
 2737TIP3   OH229625   4.078   2.688  16.878  0.1513 -0.2150 -0.2576
 2737TIP3    H129626   4.074   2.729  16.792 -0.4790 -1.1593 -0.6905
 2737TIP3    H229627   3.991   2.702  16.915  0.3567  0.0088  0.1509
 2738TIP3   OH229628   0.655   6.656  16.439  0.4562 -0.3159 -0.0526
 2738TIP3    H129629   0.649   6.562  16.454 -1.8770 -0.1559  0.4506
 2738TIP3    H229630   0.642   6.695  16.525 -0.5833  0.4692 -0.5455
 2739TIP3   OH229631   3.998   0.616   2.732 -0.4708 -0.0768 -1.3526
 2739TIP3    H129632   4.061   0.590   2.665  1.8420 -1.0436  0.9853
 2739TIP3    H229633   4.018   0.709   2.748  0.3764 -0.3517 -0.6946
 2740TIP3   OH229634   6.693   1.331  13.743 -0.9510  0.0788 -0.3625
 2740TIP3    H129635   6.689   1.358  13.651 -0.8936  0.1990 -0.3303
 2740TIP3    H229636   6.666   1.239  13.743 -1.3357  0.1910 -0.4474
 2741TIP3   OH229637   5.527   1.317  16.044  0.7675 -0.0529  0.0499
 2741TIP3    H129638   5.620   1.330  16.024  1.0999 -0.9012  0.9729
 2741TIP3    H229639   5.489   1.405  16.039  1.9209  0.5354  1.1004
 2742TIP3   OH229640   1.750   2.064  16.952 -0.5932  0.1401  0.2341
 2742TIP3    H129641   1.811   2.133  16.927  0.7662 -0.9632  0.3847
 2742TIP3    H229642   1.776   1.988  16.900  0.0010 -1.1631  2.3040
 2743TIP3   OH229643   3.892   3.013  16.668 -0.1219 -0.7201  0.1215
 2743TIP3    H129644   3.819   2.960  16.635  0.0453 -0.3666 -0.8511
 2743TIP3    H229645   3.969   2.957  16.660 -0.2378 -0.9929  0.8796
 2744TIP3   OH229646   3.329   2.819  15.995 -0.1678  0.1160 -0.6398
 2744TIP3    H129647   3.283   2.759  16.054  0.1030 -0.1216 -0.6630
 2744TIP3    H229648   3.341   2.899  16.047  2.9400 -1.1608  0.8681
 2745TIP3   OH229649   2.336   4.041   2.208  0.2074  0.2273  0.1838
 2745TIP3    H129650   2.250   4.079   2.221  0.3308  0.8761 -0.7979
 2745TIP3    H229651   2.352   4.049   2.114  1.4526  0.3609  0.3916
 2746TIP3   OH229652   2.122   5.733  12.374  0.0100 -0.3285  0.1329
 2746TIP3    H129653   2.179   5.791  12.323  1.7734 -0.8555  1.4156
 2746TIP3    H229654   2.092   5.787  12.447 -2.8897  0.5662 -1.5942
 2747TIP3   OH229655   0.429   2.519  16.768 -0.5238  0.0119  0.3931
 2747TIP3    H129656   0.500   2.459  16.743  0.4931  0.7133  1.4876
 2747TIP3    H229657   0.363   2.507  16.700 -0.2786 -2.1981  0.4648
 2748TIP3   OH229658   0.079   0.238  11.616 -0.1584  0.2167  0.3685
 2748TIP3    H129659   0.103   0.281  11.534 -0.5222  0.4093  0.3632
 2748TIP3    H229660   0.011   0.293  11.653 -1.5498 -1.0205 -0.2533
 2749TIP3   OH229661   5.541   4.476  14.742 -0.2752 -0.1211 -0.1396
 2749TIP3    H129662   5.480   4.468  14.669  1.2753  2.5567 -1.8873
 2749TIP3    H229663   5.619   4.515  14.704  1.5051 -0.7924  2.5458
 2750TIP3   OH229664   6.546   3.267  16.667 -0.4927  0.0852 -0.2761
 2750TIP3    H129665   6.603   3.344  16.670 -0.5607  0.1260  0.0232
 2750TIP3    H229666   6.476   3.286  16.729  0.5669 -1.0441  1.3799
 2751TIP3   OH229667   4.457   2.231   4.025  0.2522  0.1268 -0.1538
 2751TIP3    H129668   4.527   2.275   4.074  3.1143 -1.3555 -2.5768
 2751TIP3    H229669   4.460   2.272   3.938 -0.6987 -1.1932 -0.8392
 2752TIP3   OH229670   0.281   0.740   4.268 -0.0377 -0.6105  0.2110
 2752TIP3    H129671   0.356   0.780   4.312  1.1679 -0.8269 -1.5669
 2752TIP3    H229672   0.260   0.799   4.196 -1.2337 -0.8387  0.3494
 2753TIP3   OH229673   2.730   6.397  10.976  0.4184  0.5308 -0.3417
 2753TIP3    H129674   2.671   6.452  10.924 -0.1541  0.5531  0.3136
 2753TIP3    H229675   2.786   6.355  10.911  0.4424  1.3883 -0.9037
 2754TIP3   OH229676   5.464   4.013   0.015 -0.1634  0.5694  0.0519
 2754TIP3    H129677   5.532   4.019  -0.051  0.3267  0.6950  0.5637
 2754TIP3    H229678   5.508   3.979   0.093 -0.3361  2.1020  0.8579
 2755TIP3   OH229679   5.311   0.479  14.489 -0.0874 -0.1527  0.2174
 2755TIP3    H129680   5.282   0.565  14.522 -1.0120 -1.3168  2.7223
 2755TIP3    H229681   5.368   0.500  14.415 -0.2306  2.6241  0.7650
 2756TIP3   OH229682   4.195   2.433   6.168 -0.2626  0.2065  0.2658
 2756TIP3    H129683   4.150   2.453   6.086 -0.2930  1.8233  0.6484
 2756TIP3    H229684   4.252   2.508   6.183 -0.4999  0.0943  1.8933
 2757TIP3   OH229685   4.185   5.598   0.027 -0.3869  0.2383 -0.3973
 2757TIP3    H129686   4.262   5.602  -0.030  0.2035  1.8308  0.4538
 2757TIP3    H229687   4.110   5.598  -0.032  0.2443  0.1160 -1.2017
 2758TIP3   OH229688   1.549   4.851  16.752  0.0492 -0.0105  0.0666
 2758TIP3    H129689   1.484   4.855  16.823  0.6905  2.6500  0.6316
 2758TIP3    H229690   1.622   4.904  16.784  1.9952 -1.8300 -1.0949
 2759TIP3   OH229691   0.847   0.075  14.153  0.1759 -0.0094 -0.0197
 2759TIP3    H129692   0.828   0.166  14.132 -0.3499 -0.1131 -0.0061
 2759TIP3    H229693   0.943   0.070  14.153  0.3561  1.2457  2.9023
 2760TIP3   OH229694   0.020   1.941  15.136  0.0540  0.0135 -0.2335
 2760TIP3    H129695  -0.037   1.981  15.201  0.4425 -1.2467  0.9015
 2760TIP3    H229696   0.036   1.853  15.167  0.6009 -0.4967 -1.8270
 2761TIP3   OH229697   2.521   0.243   5.732 -0.2294 -0.1486 -0.1537
 2761TIP3    H129698   2.616   0.247   5.726 -0.2383 -0.7357 -0.7998
 2761TIP3    H229699   2.498   0.157   5.699 -1.0112  0.0869 -0.2538
 2762TIP3   OH229700   0.145   1.494  15.010 -0.3358  0.2037 -0.2190
 2762TIP3    H129701   0.088   1.542  14.950  1.5268 -0.4842 -2.6901
 2762TIP3    H229702   0.095   1.415  15.032 -1.9069  1.4435  0.9300
 2763TIP3   OH229703   1.483   3.063  13.164  0.1533  0.1398  0.5741
 2763TIP3    H129704   1.494   2.969  13.146 -0.2288 -0.0247  1.1628
 2763TIP3    H229705   1.540   3.079  13.239  1.5399  0.7624 -0.5608
 2764TIP3   OH229706   4.952   2.596   3.479 -0.1716  0.1358 -0.4915
 2764TIP3    H129707   5.043   2.628   3.481  0.2392 -0.9854  0.9649
 2764TIP3    H229708   4.960   2.502   3.499 -1.6939  0.1791  0.4452
 2765TIP3   OH229709   5.040   0.941   0.046 -0.2443 -0.1736  0.6626
 2765TIP3    H129710   5.007   0.856   0.017 -1.1715  0.0232  1.1029
 2765TIP3    H229711   5.104   0.966  -0.021 -0.9642 -0.5878 -0.2030
 2766TIP3   OH229712   2.509   5.921  11.437 -0.4094  0.7538  0.5620
 2766TIP3    H129713   2.569   5.961  11.374 -1.5800 -1.2829 -2.0019
 2766TIP3    H229714   2.563   5.857  11.483 -0.5412 -1.4234 -2.0635
 2767TIP3   OH229715   2.329   1.123   1.981 -0.4664  0.1792  0.3534
 2767TIP3    H129716   2.360   1.195   1.926  0.4028 -1.2825 -1.1918
 2767TIP3    H229717   2.304   1.164   2.063 -0.3186  2.2726 -0.5785
 2768TIP3   OH229718   1.228   2.703   5.142 -0.5036 -0.0342  0.5887
 2768TIP3    H129719   1.136   2.679   5.145 -0.4970 -0.2221 -0.5847
 2768TIP3    H229720   1.228   2.798   5.131 -0.6755 -0.3313 -3.4464
 2769TIP3   OH229721   6.313   3.623   0.586  0.2354 -0.2443  0.5881
 2769TIP3    H129722   6.220   3.604   0.596  0.0083  0.1360 -0.5373
 2769TIP3    H229723   6.326   3.625   0.491  1.0033  1.4527  0.6912
 2770TIP3   OH229724   2.536   3.053  10.541  0.2538 -0.0815 -0.4733
 2770TIP3    H129725   2.511   3.048  10.449 -2.6445  2.1054  0.0670
 2770TIP3    H229726   2.612   3.110  10.542 -0.7708  1.3855 -1.4310
 2771TIP3   OH229727   0.503   6.706   6.452 -0.8485  0.1566  0.5957
 2771TIP3    H129728   0.488   6.788   6.405  1.4312 -0.0641 -0.6499
 2771TIP3    H229729   0.564   6.730   6.522 -0.7186 -0.3242  0.6480
 2772TIP3   OH229730   3.797   5.411   3.645  0.0145 -0.3057  0.2496
 2772TIP3    H129731   3.819   5.406   3.552  0.4613 -0.9003  0.3780
 2772TIP3    H229732   3.756   5.496   3.656  3.7432  1.6915  0.2669
 2773TIP3   OH229733   5.255   0.667   2.680 -0.1721 -0.2572  0.2792
 2773TIP3    H129734   5.325   0.683   2.744 -0.6392  2.2296  0.2789
 2773TIP3    H229735   5.300   0.640   2.601  0.9318  1.9691  0.0683
 2774TIP3   OH229736   2.812   2.948  16.455  0.1604  0.0555 -0.7730
 2774TIP3    H129737   2.750   2.886  16.418 -0.3032  0.2887 -0.3993
 2774TIP3    H229738   2.786   3.033  16.418  0.1713  0.1709 -0.5240
 2775TIP3   OH229739   6.112   3.253  12.783  0.2471 -0.3756  0.4881
 2775TIP3    H129740   6.193   3.297  12.807  0.4332 -0.4090 -0.0709
 2775TIP3    H229741   6.098   3.189  12.853  1.9899 -2.0416 -0.5883
 2776TIP3   OH229742   1.514   6.775   3.487  0.3147  0.8494  0.1682
 2776TIP3    H129743   1.487   6.683   3.478 -0.7180  1.1089  0.4694
 2776TIP3    H229744   1.432   6.825   3.480  0.8418  1.7378  0.1856
 2777TIP3   OH229745   2.820   4.005  14.783  0.3473 -0.3952  0.4844
 2777TIP3    H129746   2.740   4.054  14.805  0.8739  1.0659 -0.6883
 2777TIP3    H229747   2.788   3.919  14.755 -0.8358  0.2234 -0.1465
 2778TIP3   OH229748   5.184   2.011  11.523  0.4752  0.0111 -0.1180
 2778TIP3    H129749   5.191   1.963  11.441  0.9988  1.2960 -0.8409
 2778TIP3    H229750   5.190   1.943  11.591  1.1287 -0.9486 -1.1109
 2779TIP3   OH229751   4.572   4.894  13.417  0.4247 -0.7813 -0.1707
 2779TIP3    H129752   4.572   4.953  13.341 -0.7610  1.1817  1.2558
 2779TIP3    H229753   4.482   4.897  13.449  1.0592 -0.9735  1.7387
 2780TIP3   OH229754   2.890   3.094   4.248 -0.0372  0.1800  0.0745
 2780TIP3    H129755   2.818   3.055   4.199  0.1217  0.0475 -0.0542
 2780TIP3    H229756   2.916   3.027   4.311 -0.1502  0.2983  0.2476
 2781TIP3   OH229757   0.510   6.304  14.923  0.2412 -0.3536  0.3602
 2781TIP3    H129758   0.448   6.246  14.879 -0.1039  1.7430 -2.1997
 2781TIP3    H229759   0.596   6.264  14.909  0.0089 -0.3359 -1.2955
 2782TIP3   OH229760   2.572   3.672  14.968 -0.3283 -0.1108  0.0972
 2782TIP3    H129761   2.659   3.675  15.008 -0.2416  1.5807 -0.1698
 2782TIP3    H229762   2.518   3.728  15.024 -0.8794  0.0478 -0.5757
 2783TIP3   OH229763   0.957   3.145  12.997 -0.3182 -0.2502  0.5422
 2783TIP3    H129764   1.044   3.109  13.017  0.6866  0.1635 -2.5124
 2783TIP3    H229765   0.897   3.073  13.017  1.0065 -1.4826  0.3334
 2784TIP3   OH229766   2.712   0.230   4.175  0.3128  0.2803 -0.8806
 2784TIP3    H129767   2.742   0.140   4.166 -1.4693 -0.2958 -1.4620
 2784TIP3    H229768   2.790   0.283   4.160  1.1215 -1.1385 -1.8805
 2785TIP3   OH229769   4.097   4.172  11.689  0.2714  0.0930  0.0531
 2785TIP3    H129770   4.147   4.244  11.651 -0.6664  1.1835  0.7961
 2785TIP3    H229771   4.122   4.173  11.782 -1.3596  0.9270  0.5265
 2786TIP3   OH229772   2.915   3.788   1.664 -0.0823 -0.6986  0.2823
 2786TIP3    H129773   2.870   3.837   1.733 -1.6761 -1.0611 -0.4698
 2786TIP3    H229774   2.939   3.705   1.704  0.4889 -0.2697  0.8580
 2787TIP3   OH229775   0.084   6.479   3.082  0.3363 -0.2475 -0.8337
 2787TIP3    H129776   0.039   6.552   3.039  0.9446  0.8897  0.3754
 2787TIP3    H229777   0.017   6.439   3.138  0.3722  0.3918 -0.3135
 2788TIP3   OH229778   3.189   0.889   0.456  0.5352 -0.0350  0.9190
 2788TIP3    H129779   3.226   0.803   0.434  0.7661  0.3913 -0.4557
 2788TIP3    H229780   3.103   0.870   0.493  0.3189 -0.8400  0.0371
 2789TIP3   OH229781   4.715   2.674  12.190 -0.3750  0.3154 -0.6401
 2789TIP3    H129782   4.640   2.675  12.249  0.3598  2.2671  0.3667
 2789TIP3    H229783   4.699   2.745  12.129  0.2780  0.2245 -0.9256
 2790TIP3   OH229784   1.446   0.651  15.527 -0.3856  0.3328  0.0373
 2790TIP3    H129785   1.458   0.568  15.574 -0.9068  0.0521 -0.3091
 2790TIP3    H229786   1.534   0.675  15.497 -0.3806 -0.6906 -0.8331
 2791TIP3   OH229787   6.217   5.217   0.124  0.0162 -0.7482 -0.0441
 2791TIP3    H129788   6.157   5.147   0.099 -0.8053  0.2901 -1.1188
 2791TIP3    H229789   6.187   5.293   0.074  0.1344  0.7001  1.9470
 2792TIP3   OH229790   0.063   0.475   0.211 -0.2056  0.0850 -0.0135
 2792TIP3    H129791   0.017   0.397   0.180 -0.0655 -0.0655  0.1630
 2792TIP3    H229792   0.116   0.445   0.285  1.1162 -0.0009 -0.9492
 2793TIP3   OH229793   6.638   2.785  13.077  0.1717  0.9164  0.3439
 2793TIP3    H129794   6.596   2.699  13.084  1.5049  0.2336  0.1386
 2793TIP3    H229795   6.602   2.823  12.996  0.3880  0.0893 -0.1515
 2794TIP3   OH229796   4.369   2.946   4.840  0.4581  0.5092  0.8151
 2794TIP3    H129797   4.289   2.953   4.891 -0.3666  0.7407 -0.4766
 2794TIP3    H229798   4.404   2.859   4.862 -0.4303  0.1888  0.9816
 2795TIP3   OH229799   5.669   2.264   5.132  0.0288 -0.2259 -0.1459
 2795TIP3    H129800   5.721   2.248   5.211  1.5533 -1.0809 -1.2454
 2795TIP3    H229801   5.699   2.349   5.100  0.0642 -0.2834 -0.2689
 2796TIP3   OH229802   4.297   3.959   3.435  0.5640  0.4746  0.2201
 2796TIP3    H129803   4.346   3.961   3.353  1.0441 -0.8666  0.4533
 2796TIP3    H229804   4.337   4.027   3.489  1.0485  0.5351 -0.2075
 2797TIP3   OH229805   1.532   4.467   6.500 -0.2975  0.8486  0.1848
 2797TIP3    H129806   1.480   4.388   6.511 -0.6929  0.8795 -1.3588
 2797TIP3    H229807   1.622   4.435   6.491 -0.6124  0.4167 -1.9214
 2798TIP3   OH229808   4.501   0.982   2.146 -0.3858  0.1365 -0.6679
 2798TIP3    H129809   4.515   1.075   2.131 -0.1186  0.2077 -0.0077
 2798TIP3    H229810   4.426   0.959   2.091 -1.4311  1.0735  0.3472
 2799TIP3   OH229811   1.362   4.410  13.581  0.3059  0.6331  0.1517
 2799TIP3    H129812   1.399   4.443  13.663  1.7734 -0.1388 -0.1672
 2799TIP3    H229813   1.438   4.391  13.526 -0.5502 -1.3139 -0.4468
 2800TIP3   OH229814   1.043   3.637   6.178 -0.3031 -0.2101  0.3513
 2800TIP3    H129815   1.119   3.655   6.233  0.3651 -1.0932 -0.2666
 2800TIP3    H229816   1.054   3.546   6.150 -1.5632 -0.3372  0.2114
 2801TIP3   OH229817   0.647   4.877   3.874 -0.0127  0.0647  0.1372
 2801TIP3    H129818   0.740   4.856   3.885  0.5456  1.9381 -0.5520
 2801TIP3    H229819   0.637   4.962   3.916 -0.9089  0.8977 -1.6482
 2802TIP3   OH229820   6.013   0.516  17.005 -0.3169  0.7782 -0.0255
 2802TIP3    H129821   6.018   0.424  16.980 -1.3311  0.4935  0.7398
 2802TIP3    H229822   5.934   0.549  16.963 -0.5850  0.9888  0.6189
 2803TIP3   OH229823   6.284   1.556   5.382  0.3719 -0.1785  0.1034
 2803TIP3    H129824   6.269   1.562   5.477  0.2460 -0.4123  0.1002
 2803TIP3    H229825   6.244   1.636   5.347 -1.7513 -1.1994 -0.0062
 2804TIP3   OH229826   5.801   0.692   3.358 -0.0350  0.0972  0.6652
 2804TIP3    H129827   5.789   0.767   3.415 -2.5489  0.2994 -0.0022
 2804TIP3    H229828   5.723   0.637   3.374  1.5531 -2.2324  0.9085
 2805TIP3   OH229829   1.388   0.062   4.367 -0.5481  0.0145  0.4038
 2805TIP3    H129830   1.305   0.031   4.401 -0.1245  0.0794  1.5400
 2805TIP3    H229831   1.441   0.079   4.444  1.2539 -1.9685 -0.2993
 2806TIP3   OH229832   3.017   0.550  15.696  0.0610  0.2300  0.3339
 2806TIP3    H129833   2.964   0.630  15.694  1.0066  0.8742 -1.4836
 2806TIP3    H229834   2.968   0.487  15.643  0.6597  0.5471 -0.6200
 2807TIP3   OH229835   5.464   2.752  14.018 -0.2150 -0.0168  0.1525
 2807TIP3    H129836   5.406   2.676  14.012 -1.3598  0.8645 -0.3347
 2807TIP3    H229837   5.505   2.744  14.104 -0.2967 -1.1836  0.0985
 2808TIP3   OH229838   4.268   1.907   1.668 -0.2076  0.3647  0.1233
 2808TIP3    H129839   4.338   1.958   1.628  1.1595 -0.8871  0.8073
 2808TIP3    H229840   4.228   1.859   1.595 -0.3024  1.0017 -0.2529
 2809TIP3   OH229841   0.157   3.444   0.551 -0.0293 -0.5475  0.7784
 2809TIP3    H129842   0.089   3.494   0.597 -0.9636  0.8774 -1.9641
 2809TIP3    H229843   0.239   3.470   0.593 -0.9160 -0.4158  2.5325
 2810TIP3   OH229844   1.274   0.642   0.385  0.2669 -0.2258  0.7737
 2810TIP3    H129845   1.228   0.718   0.349  0.6311  0.6648  2.1216
 2810TIP3    H229846   1.210   0.572   0.383 -1.0993  0.9090  2.3220
 2811TIP3   OH229847   3.974   6.072   5.455 -0.0424  0.0566  0.3130
 2811TIP3    H129848   4.013   6.011   5.518 -0.7094 -0.6644  0.0560
 2811TIP3    H229849   3.897   6.025   5.422 -0.4672  0.9798 -0.0304
 2812TIP3   OH229850   0.430   2.143   4.515  0.7317 -0.5794 -0.4434
 2812TIP3    H129851   0.338   2.136   4.491  0.2321  1.3439  0.7451
 2812TIP3    H229852   0.470   2.191   4.442 -0.3528  3.3104  1.2910
 2813TIP3   OH229853   5.828   3.236  12.305 -0.8637  0.3929  1.0460
 2813TIP3    H129854   5.895   3.278  12.360  0.8966 -1.8287  0.7528
 2813TIP3    H229855   5.845   3.270  12.217 -1.8705  1.8171  1.3700
 2814TIP3   OH229856   4.334   2.216   5.601  0.2275 -0.0091  0.1006
 2814TIP3    H129857   4.423   2.250   5.592  0.8253 -1.3941  0.3943
 2814TIP3    H229858   4.345   2.121   5.596 -1.0087 -0.2948  1.8996
 2815TIP3   OH229859   2.808   3.435   1.637 -0.0481 -0.3526  0.1221
 2815TIP3    H129860   2.830   3.484   1.558 -1.7617 -0.1140 -0.2566
 2815TIP3    H229861   2.763   3.356   1.606 -1.8331  0.3225  0.8414
 2816TIP3   OH229862   5.225   2.676   4.795 -0.3682  0.5323 -0.0511
 2816TIP3    H129863   5.177   2.609   4.845  0.6386 -1.1718 -1.2863
 2816TIP3    H229864   5.312   2.638   4.781  0.3268  2.2297 -0.5808
 2817TIP3   OH229865   3.275   3.801   3.576  0.4312 -0.0205 -0.3149
 2817TIP3    H129866   3.274   3.806   3.480 -1.0119  2.4594 -0.2575
 2817TIP3    H229867   3.190   3.835   3.603  1.0501 -0.0335  1.8760
 2818TIP3   OH229868   5.757   5.789   1.201  0.1179  0.6704 -0.1617
 2818TIP3    H129869   5.761   5.870   1.150  1.5651  0.2377 -0.7575
 2818TIP3    H229870   5.803   5.724   1.148  4.9975  0.9837  3.0603
 2819TIP3   OH229871   3.095   4.120  11.698  0.3134  0.2242  0.3332
 2819TIP3    H129872   3.121   4.174  11.773  0.0501 -0.4472  0.9109
 2819TIP3    H229873   3.030   4.173  11.652 -0.5808  0.0553  1.3758
 2820TIP3   OH229874   1.429   2.871  13.746 -0.1287  0.0601 -0.0417
 2820TIP3    H129875   1.509   2.906  13.706 -0.7180  1.4916 -0.0040
 2820TIP3    H229876   1.368   2.860  13.673 -0.0579 -0.5899 -0.0065
 2821TIP3   OH229877   4.008   0.321   6.234  0.2858  0.0781  0.2840
 2821TIP3    H129878   3.944   0.273   6.180  2.1391 -3.2967  0.7995
 2821TIP3    H229879   3.966   0.328   6.320 -0.6171  0.8080 -0.1989
 2822TIP3   OH229880   4.925   1.965  13.382 -0.2588 -0.2764  0.0697
 2822TIP3    H129881   4.948   2.046  13.427 -0.3948 -0.1601 -0.0719
 2822TIP3    H229882   4.955   1.977  13.292 -2.0131  0.3941 -0.4644
 2823TIP3   OH229883   5.124   4.495   1.699 -0.0047  0.0076 -0.5524
 2823TIP3    H129884   5.219   4.495   1.703 -0.0126  0.0207 -0.3693
 2823TIP3    H229885   5.096   4.472   1.788 -0.1760  0.4350 -0.4939
 2824TIP3   OH229886   3.564   3.095  10.472 -0.0869  0.9273  0.1310
 2824TIP3    H129887   3.639   3.140  10.512  0.5620 -1.2497  1.5207
 2824TIP3    H229888   3.555   3.014  10.522 -2.2498  0.2686 -1.1901
 2825TIP3   OH229889   2.283   4.490   3.125 -0.0765 -0.4167  0.2547
 2825TIP3    H129890   2.375   4.479   3.149 -0.0821 -2.0670 -0.3259
 2825TIP3    H229891   2.235   4.486   3.208  0.4239  1.5752  0.6782
 2826TIP3   OH229892   1.495   1.706  12.124  0.3627 -0.5759  0.4175
 2826TIP3    H129893   1.507   1.789  12.172 -0.8785  0.3656 -0.8370
 2826TIP3    H229894   1.578   1.694  12.077  0.8119 -0.4212  1.1490
 2827TIP3   OH229895   5.649   6.179   5.440  0.4481  0.3202  0.6327
 2827TIP3    H129896   5.647   6.225   5.524 -0.5423 -0.4441  1.0550
 2827TIP3    H229897   5.565   6.201   5.400  0.8313  0.5096 -0.0785
 2828TIP3   OH229898   4.319   0.137  17.070  0.5840 -0.1362  1.0273
 2828TIP3    H129899   4.383   0.100  17.009 -1.1339 -2.1647  0.3138
 2828TIP3    H229900   4.287   0.061  17.119 -1.5108  0.7380  1.0974
 2829TIP3   OH229901   4.526   3.701  16.673 -0.6406  0.2212 -0.3912
 2829TIP3    H129902   4.603   3.751  16.702  0.3812 -0.9697 -0.9621
 2829TIP3    H229903   4.551   3.665  16.588 -1.0950 -1.7287  0.2371
 2830TIP3   OH229904   3.548   2.712   4.333  0.5240 -0.2673  0.3098
 2830TIP3    H129905   3.524   2.800   4.303  1.3929 -0.0777  0.1646
 2830TIP3    H229906   3.506   2.653   4.270 -1.1990 -0.0354  1.1685
 2831TIP3   OH229907   5.350   5.429   3.932  1.0543 -0.6094 -0.0279
 2831TIP3    H129908   5.442   5.436   3.960  1.5681 -2.0293 -1.2158
 2831TIP3    H229909   5.301   5.415   4.013  1.7017  1.4268  0.7610
 2832TIP3   OH229910   2.377   5.134   3.751 -0.1701  0.7967  0.1325
 2832TIP3    H129911   2.414   5.175   3.829 -1.8178  2.4457  0.1268
 2832TIP3    H229912   2.282   5.142   3.763 -0.4764 -0.2818 -1.3444
 2833TIP3   OH229913   4.992   2.332   4.678  0.2473  0.0203 -0.0901
 2833TIP3    H129914   4.941   2.412   4.670  0.3602  0.0837 -0.1829
 2833TIP3    H229915   5.052   2.349   4.751  0.3616  0.0697 -0.1955
 2834TIP3   OH229916   1.981   5.869  16.428 -0.5324 -0.1618 -0.0171
 2834TIP3    H129917   1.892   5.895  16.454 -1.1572 -2.1508  0.0248
 2834TIP3    H229918   1.971   5.833  16.341  0.5631  1.0746 -0.6995
 2835TIP3   OH229919   0.233   5.260  12.789 -0.4117  0.0614  0.8544
 2835TIP3    H129920   0.275   5.235  12.706  0.9954 -1.1261  1.8707
 2835TIP3    H229921   0.265   5.348  12.806  3.4756 -1.4674  2.5613
 2836TIP3   OH229922   0.968   3.876  14.867 -0.1597  0.3316  0.1734
 2836TIP3    H129923   0.979   3.878  14.772  0.3698  3.5156  0.2035
 2836TIP3    H229924   0.893   3.818  14.881 -0.8084  0.4752 -2.2659
 2837TIP3   OH229925   6.791   5.120   5.782 -0.1088 -0.4526  0.8300
 2837TIP3    H129926   6.868   5.133   5.837  0.3138 -0.6168  0.2912
 2837TIP3    H229927   6.815   5.160   5.698 -0.0906 -1.6552  0.2341
 2838TIP3   OH229928   2.809   1.043  15.758  0.0168 -0.1141  0.1137
 2838TIP3    H129929   2.814   1.090  15.675  1.4224 -1.4142 -0.5724
 2838TIP3    H229930   2.797   1.112  15.824  0.5793  1.0759 -0.9987
 2839TIP3   OH229931   1.609   1.450   4.308 -0.0660 -0.1911  0.0252
 2839TIP3    H129932   1.593   1.488   4.395  1.0725 -0.8210  0.5363
 2839TIP3    H229933   1.702   1.430   4.308  0.0271  0.1295 -1.4954
 2840TIP3   OH229934   1.817   2.970   0.050 -0.4180 -0.1030 -0.0885
 2840TIP3    H129935   1.799   2.971  -0.044  4.0114 -1.4447 -1.2156
 2840TIP3    H229936   1.775   2.890   0.082  3.2173 -3.3867 -2.5539
 2841TIP3   OH229937   5.248   5.026   4.650  0.0627  0.0803 -0.0671
 2841TIP3    H129938   5.295   5.026   4.733 -1.0425  0.6722  0.5956
 2841TIP3    H229939   5.307   4.985   4.588  1.4443  0.8014  0.7221
 2842TIP3   OH229940   6.248   3.963   1.034  0.6616  0.4054 -0.3587
 2842TIP3    H129941   6.267   3.877   0.997 -0.6596  1.1865 -3.0801
 2842TIP3    H229942   6.316   4.020   0.998  0.1524  0.9356 -0.4909
 2843TIP3   OH229943   2.118   0.635  14.266 -0.3779 -0.2936  0.0419
 2843TIP3    H129944   2.071   0.658  14.186  0.9276 -0.2570 -0.7389
 2843TIP3    H229945   2.184   0.704  14.275 -0.2934 -0.4837  0.9752
 2844TIP3   OH229946   3.091   6.550  16.783  0.5714 -0.2819 -0.2050
 2844TIP3    H129947   3.133   6.583  16.704 -0.1628  0.6617 -0.2250
 2844TIP3    H229948   2.997   6.558  16.765  0.3566 -1.9855 -0.0229
 2845TIP3   OH229949   6.372   3.919   2.016  0.6311  0.0005 -0.3481
 2845TIP3    H129950   6.375   4.014   2.030 -2.4147  0.1264  0.1354
 2845TIP3    H229951   6.278   3.899   2.007  0.9172 -3.2911  2.0509
 2846TIP3   OH229952   4.582   1.736  14.553  0.0218  0.0631  0.3361
 2846TIP3    H129953   4.581   1.643  14.532 -0.5472  0.1808 -0.1885
 2846TIP3    H229954   4.561   1.739  14.647 -0.4420 -0.3141  0.2508
 2847TIP3   OH229955   4.091   6.787   2.078  0.2172 -0.1843  0.5171
 2847TIP3    H129956   4.125   6.702   2.048  0.8582 -0.1438  1.0956
 2847TIP3    H229957   3.997   6.782   2.063  0.4196 -0.4491 -0.7738
 2848TIP3   OH229958   0.413   4.248   1.970  0.8989 -0.7046 -0.0593
 2848TIP3    H129959   0.408   4.156   1.944 -1.4413 -0.6987  0.1939
 2848TIP3    H229960   0.323   4.279   1.967  1.4183  1.1336  1.5215
 2849TIP3   OH229961   6.561   5.545  13.729 -0.3446 -0.5580  0.6297
 2849TIP3    H129962   6.601   5.520  13.646  0.5050  2.6113 -0.0718
 2849TIP3    H229963   6.467   5.531  13.716 -0.3662  0.9726 -1.3871
 2850TIP3   OH229964   6.264   2.716   4.318  0.2328 -0.0170 -0.1150
 2850TIP3    H129965   6.327   2.692   4.386 -0.6778 -1.9197  0.1207
 2850TIP3    H229966   6.269   2.811   4.313  1.4951  0.0419  1.4492
 2851TIP3   OH229967   0.127   1.976  10.964  0.3581 -0.6220  0.2474
 2851TIP3    H129968   0.128   2.032  11.042  1.1060  0.4668 -0.5198
 2851TIP3    H229969   0.054   2.010  10.912 -0.2288 -1.4377  0.5226
 2852TIP3   OH229970   2.378   4.084   1.942 -0.3398 -0.3083 -0.2324
 2852TIP3    H129971   2.424   4.153   1.893  1.3847 -3.1890 -3.0290
 2852TIP3    H229972   2.290   4.082   1.905 -0.2446  0.0408 -0.4859
 2853TIP3   OH229973   2.586   5.523   0.129  0.3115 -0.1511 -0.0906
 2853TIP3    H129974   2.675   5.491   0.143  0.9571  0.8860 -1.5269
 2853TIP3    H229975   2.592   5.575   0.049 -2.1389 -2.2269 -1.7972
 2854TIP3   OH229976   5.838   1.514  12.494  0.0498 -0.4721 -0.9032
 2854TIP3    H129977   5.802   1.455  12.428 -0.1213 -0.4791 -0.8043
 2854TIP3    H229978   5.779   1.590  12.493  0.1641 -0.3840 -0.9036
 2855TIP3   OH229979   5.680   1.476   5.105 -0.1092  0.0749 -0.0083
 2855TIP3    H129980   5.609   1.513   5.158  0.9767  2.4119 -0.0877
 2855TIP3    H229981   5.749   1.456   5.168  0.0825  0.1145 -0.2034
 2856TIP3   OH229982   3.671   4.485   0.406 -0.7057  0.3776 -0.9440
 2856TIP3    H129983   3.766   4.485   0.417 -0.6790  1.6238 -1.0654
 2856TIP3    H229984   3.638   4.447   0.487 -0.1076 -0.0322 -0.8857
 2857TIP3   OH229985   2.996   3.075  13.704 -0.0525  0.1141 -0.5776
 2857TIP3    H129986   2.954   3.020  13.637  1.0095  0.3091 -1.4345
 2857TIP3    H229987   3.069   3.117  13.658  0.5394  0.4699  0.6498
 2858TIP3   OH229988   6.557   2.008   3.131  0.0001 -0.1233 -0.3642
 2858TIP3    H129989   6.511   2.071   3.075 -1.5741  0.1514  1.1382
 2858TIP3    H229990   6.597   2.062   3.199 -1.2934 -0.7087  0.8889
 2859TIP3   OH229991   0.290   4.152   6.268  0.3748 -0.5825  0.5145
 2859TIP3    H129992   0.228   4.079   6.273 -0.4783 -0.1273 -1.7890
 2859TIP3    H229993   0.373   4.115   6.296 -0.4252 -1.9033  1.2820
 2860TIP3   OH229994   5.893   5.238  14.447  0.1189 -0.5522  0.0466
 2860TIP3    H129995   5.851   5.271  14.367  0.0149 -1.4537 -0.2781
 2860TIP3    H229996   5.952   5.169  14.417 -0.2235 -1.1803  0.7962
 2861TIP3   OH229997   0.439   0.829   2.784  0.2589 -0.0040  0.1396
 2861TIP3    H129998   0.368   0.815   2.847  1.7543  0.1377  1.9404
 2861TIP3    H229999   0.507   0.768   2.811  0.2814 -1.3105 -2.5494
 2862TIP3   OH230000   1.755   3.332   4.189 -0.2946 -0.2717  0.3795
 2862TIP3    H130001   1.775   3.381   4.109 -0.1372 -1.7861 -0.5365
 2862TIP3    H230002   1.840   3.309   4.225 -0.2856 -2.6542 -0.9827
 2863TIP3   OH230003   4.118   2.998  13.145  0.5848  0.1552 -0.1561
 2863TIP3    H130004   4.093   3.079  13.190 -1.6072 -0.6704  0.2189
 2863TIP3    H230005   4.201   3.020  13.101  0.5687  2.2756  0.7571
 2864TIP3   OH230006   3.667   2.086  15.958 -0.3572  0.6165  0.6560
 2864TIP3    H130007   3.665   2.107  15.864  1.6939 -0.7832  0.2163
 2864TIP3    H230008   3.640   1.994  15.962  1.2047  0.1455  1.1876
 2865TIP3   OH230009   3.186   2.629  15.629 -0.2462  0.3604  0.5997
 2865TIP3    H130010   3.220   2.670  15.550  1.4695  1.7709  1.9995
 2865TIP3    H230011   3.263   2.597  15.676 -1.2932 -1.4815  1.2183
 2866TIP3   OH230012   3.618   1.701  13.474 -0.5376  0.0347  0.1339
 2866TIP3    H130013   3.686   1.731  13.413 -1.4453 -1.3086 -1.6272
 2866TIP3    H230014   3.541   1.752  13.451 -1.3686 -1.6765 -1.1210
 2867TIP3   OH230015   1.548   3.369   5.633  0.4434  0.0594 -1.0060
 2867TIP3    H130016   1.510   3.415   5.558  0.7698 -0.0053 -1.2147
 2867TIP3    H230017   1.641   3.392   5.631  0.1213  1.6784  0.5627
 2868TIP3   OH230018   0.623   2.783  14.816  0.1002 -0.0387 -0.1420
 2868TIP3    H130019   0.694   2.746  14.868  0.6977 -0.0381 -0.9333
 2868TIP3    H230020   0.667   2.838  14.751 -0.6835  0.7450 -0.0320
 2869TIP3   OH230021   4.048   4.722   0.700 -0.1811 -0.6773 -0.1868
 2869TIP3    H130022   3.963   4.722   0.745 -0.9404 -0.1953 -1.5706
 2869TIP3    H230023   4.108   4.681   0.763 -1.6023 -1.8036  0.5063
 2870TIP3   OH230024   5.463   5.197   1.279 -0.2803 -0.1034  0.0632
 2870TIP3    H130025   5.529   5.233   1.338 -1.6072  1.1703  0.7944
 2870TIP3    H230026   5.505   5.118   1.243  1.2869  0.1676  1.1906
 2871TIP3   OH230027   0.548   3.648   2.237  0.1522  0.3210 -0.0519
 2871TIP3    H130028   0.483   3.718   2.235  1.4062  1.5069 -1.0972
 2871TIP3    H230029   0.610   3.675   2.304  0.0079 -0.3984  0.3759
 2872TIP3   OH230030   3.892   6.243  13.977 -0.5769  0.0709 -0.5729
 2872TIP3    H130031   3.845   6.310  14.026 -0.0934  0.7405 -1.0040
 2872TIP3    H230032   3.964   6.290  13.934 -0.1825 -0.7349 -0.8259
 2873TIP3   OH230033   4.002   4.666  14.508 -0.2148  0.0286  0.1552
 2873TIP3    H130034   3.980   4.637  14.596 -2.0326 -0.8467 -0.5370
 2873TIP3    H230035   3.938   4.623  14.452  1.2612  0.0672 -1.6804
 2874TIP3   OH230036   0.724   6.364   4.044 -0.1733  0.4994 -0.2215
 2874TIP3    H130037   0.774   6.445   4.036  2.6832 -1.0257  0.6979
 2874TIP3    H230038   0.782   6.296   4.009 -3.4840 -0.9753 -3.6687
 2875TIP3   OH230039   4.646   0.629   0.461  0.2059  0.5462 -0.2610
 2875TIP3    H130040   4.676   0.670   0.542  1.3747 -0.4190 -0.1842
 2875TIP3    H230041   4.722   0.581   0.428 -0.9417 -1.0794 -0.6557
 2876TIP3   OH230042   0.320   4.349  11.554  0.0320 -0.0638  0.5664
 2876TIP3    H130043   0.379   4.296  11.500 -1.9616 -0.5354 -1.3275
 2876TIP3    H230044   0.333   4.317  11.643  1.0725 -1.6368 -0.1092
 2877TIP3   OH230045   1.210   6.657   1.700 -0.2561 -0.0865 -0.0596
 2877TIP3    H130046   1.118   6.651   1.673 -0.5017  2.5699 -0.0230
 2877TIP3    H230047   1.209   6.627   1.791 -1.4657  1.5843  0.5361
 2878TIP3   OH230048   0.498   5.202   2.987 -0.2233 -0.1190 -0.4768
 2878TIP3    H130049   0.550   5.200   3.067  0.0821  1.8361 -0.5797
 2878TIP3    H230050   0.543   5.265   2.931 -2.0253  0.7487 -1.0208
 2879TIP3   OH230051   2.641   3.796  12.481  0.2476 -0.5623  0.6406
 2879TIP3    H130052   2.669   3.805  12.572 -0.4026 -1.5495  0.9600
 2879TIP3    H230053   2.717   3.757  12.437  0.3671 -0.6190  0.8919
 2880TIP3   OH230054   3.340   2.468  15.763 -0.2889 -0.0357  0.3266
 2880TIP3    H130055   3.315   2.497  15.851 -1.0138 -0.0488  0.1355
 2880TIP3    H230056   3.419   2.517  15.743 -1.1405  1.3717  0.2537
 2881TIP3   OH230057   3.220   4.339   2.684 -0.0478  0.5455 -0.1564
 2881TIP3    H130058   3.255   4.421   2.650  0.7605  0.2775  0.0177
 2881TIP3    H230059   3.126   4.344   2.665  0.0143  1.4380 -0.2851
 2882TIP3   OH230060   3.954   6.122  12.902  0.1884 -0.1830 -0.5307
 2882TIP3    H130061   3.865   6.117  12.939 -0.0811  1.5912 -0.8655
 2882TIP3    H230062   4.008   6.075  12.966 -0.8867 -0.7198  0.0205
 2883TIP3   OH230063   5.207   6.342  12.688  0.0451 -0.3803  0.4500
 2883TIP3    H130064   5.124   6.372  12.724 -0.2121  0.6265 -0.8891
 2883TIP3    H230065   5.183   6.268  12.632  0.1282 -0.4276  0.4762
 2884TIP3   OH230066   5.367   2.483  12.235 -0.3574 -0.2118  0.0982
 2884TIP3    H130067   5.305   2.428  12.284 -0.1834 -2.0955 -1.6465
 2884TIP3    H230068   5.448   2.431  12.233  1.5851  2.3524  2.6649
 2885TIP3   OH230069   4.378   1.955  15.444 -0.2371  0.0709 -0.0978
 2885TIP3    H130070   4.352   1.928  15.356  0.4775  0.5825 -0.4747
 2885TIP3    H230071   4.309   2.015  15.471 -0.8796 -0.7023  0.0216
 2886TIP3   OH230072   2.008   0.316  15.493 -0.0669  0.5105 -0.1178
 2886TIP3    H130073   2.018   0.320  15.588 -1.9958  0.9030  0.1238
 2886TIP3    H230074   2.029   0.226  15.469 -0.1180  0.2569  0.7731
 2887TIP3   OH230075   3.028   1.214  14.423 -0.7245  0.4358  0.3756
 2887TIP3    H130076   3.027   1.195  14.329  0.6867  2.0960 -0.0313
 2887TIP3    H230077   3.108   1.265  14.437 -0.4620 -0.4802  2.6555
 2888TIP3   OH230078   2.901   2.238  14.219  0.1142  0.2718  0.0329
 2888TIP3    H130079   2.955   2.287  14.157  0.8277  0.1544  0.5426
 2888TIP3    H230080   2.819   2.222  14.172  0.1828  1.2141 -0.4402
 2889TIP3   OH230081   4.873   1.891   5.621 -0.1973 -0.0395 -0.1957
 2889TIP3    H130082   4.812   1.892   5.547 -0.4047  0.9271 -0.0191
 2889TIP3    H230083   4.960   1.894   5.580 -0.3206  1.1859 -0.4060
 2890TIP3   OH230084   5.965   1.804   2.382 -0.0993 -0.1527  0.5333
 2890TIP3    H130085   5.969   1.838   2.292  0.5479 -1.4136  0.0640
 2890TIP3    H230086   5.907   1.866   2.428 -0.6386  0.3815 -0.8019
 2891TIP3   OH230087   2.761   0.347  12.434  0.1209 -0.3860 -0.5822
 2891TIP3    H130088   2.815   0.383  12.504 -2.3320  0.3287  1.0632
 2891TIP3    H230089   2.742   0.258  12.461  0.6334 -0.7342 -1.3048
 2892TIP3   OH230090   3.906   2.387  15.944 -0.5375  0.2103  0.3318
 2892TIP3    H130091   3.949   2.419  16.023 -2.2930  2.0431  0.6394
 2892TIP3    H230092   3.892   2.466  15.891 -1.0839 -0.7197 -0.9577
 2893TIP3   OH230093   5.083   1.629  15.267  0.5536 -0.4576 -0.3370
 2893TIP3    H130094   5.115   1.631  15.357 -0.1460  0.5717 -0.1014
 2893TIP3    H230095   5.040   1.713  15.254  0.2367 -0.7738 -1.4870
 2894TIP3   OH230096   1.449   1.502  13.859  0.0802 -0.3108 -0.2564
 2894TIP3    H130097   1.461   1.539  13.772 -1.7463 -0.8068 -0.7588
 2894TIP3    H230098   1.391   1.564  13.904  1.4870  0.2632  0.8637
 2895TIP3   OH230099   6.616   2.700  14.307 -0.2579  0.1775 -0.2910
 2895TIP3    H130100   6.615   2.607  14.325  1.1224  0.2144  0.0751
 2895TIP3    H230101   6.604   2.742  14.392 -0.2386  0.3329 -0.3622
 2896TIP3   OH230102   5.655   1.209  12.850  0.8358  0.5843  0.3040
 2896TIP3    H130103   5.733   1.259  12.824  2.0124 -1.1984  0.1985
 2896TIP3    H230104   5.597   1.213  12.774  1.6454  0.4110 -0.3438
 2897TIP3   OH230105   0.986   5.554   4.254  0.4484 -0.8658  0.3337
 2897TIP3    H130106   0.905   5.575   4.301  0.5002 -1.8935  0.8995
 2897TIP3    H230107   1.052   5.612   4.293  0.0128 -0.0404 -0.1129
 2898TIP3   OH230108   2.294   1.102   3.587 -0.3928  0.1287  0.0434
 2898TIP3    H130109   2.310   1.153   3.508  0.0192 -0.7161 -0.4414
 2898TIP3    H230110   2.237   1.030   3.557  0.5489 -0.7445  0.2939
 2899TIP3   OH230111   0.940   3.471  11.800 -0.4488  0.3677 -0.2286
 2899TIP3    H130112   0.961   3.436  11.713  0.7236 -0.6229  0.4266
 2899TIP3    H230113   0.976   3.560  11.800  0.6791 -0.0708 -0.3460
 2900TIP3   OH230114   4.811   3.543  16.271  0.0440  0.0701  0.8474
 2900TIP3    H130115   4.845   3.597  16.200  1.1610 -0.7374  0.7596
 2900TIP3    H230116   4.847   3.582  16.351  0.1497 -0.0293  0.8482
 2901TIP3   OH230117   1.375   4.848   0.478  0.2482  0.1063 -0.4928
 2901TIP3    H130118   1.342   4.925   0.432  1.7887  1.8881  1.2197
 2901TIP3    H230119   1.453   4.823   0.430  0.9919  1.0176  0.2124
 2902TIP3   OH230120   4.552   3.691  16.965  0.1901  0.1901  0.6607
 2902TIP3    H130121   4.620   3.758  16.974  1.1569 -0.5899 -0.4270
 2902TIP3    H230122   4.498   3.722  16.892  0.7292 -0.2502  0.0550
 2903TIP3   OH230123   3.384   4.249  14.012  0.6937 -0.0496  0.1494
 2903TIP3    H130124   3.325   4.308  13.964  0.6082  0.0192  0.3401
 2903TIP3    H230125   3.326   4.198  14.068  0.6401 -1.1028 -0.8286
 2904TIP3   OH230126   1.017   1.453   1.370  0.2028 -0.2070  0.8173
 2904TIP3    H130127   0.941   1.502   1.402 -0.7144 -1.7737  1.1299
 2904TIP3    H230128   1.078   1.452   1.444  0.9950  1.8336  0.2796
 2905TIP3   OH230129   4.180   3.973  16.467 -0.2932 -0.1243  0.5023
 2905TIP3    H130130   4.205   3.898  16.413  0.1174  0.5793 -0.3080
 2905TIP3    H230131   4.261   3.997  16.514 -0.2552  0.2211  0.2580
 2906TIP3   OH230132   6.746   5.653  15.913  0.5198 -0.0580  0.6726
 2906TIP3    H130133   6.669   5.709  15.922 -0.6438 -1.7512  1.9746
 2906TIP3    H230134   6.803   5.700  15.852  0.2768  3.1778  2.7137
 2907TIP3   OH230135   3.672   4.164  12.492  0.3804 -0.1989 -0.0683
 2907TIP3    H130136   3.652   4.151  12.585 -0.1982 -0.2940 -0.2025
 2907TIP3    H230137   3.717   4.248  12.488 -0.4935  0.2912  0.1809
 2908TIP3   OH230138   0.190   1.160   0.113 -0.5555 -0.2111  0.3611
 2908TIP3    H130139   0.223   1.166   0.023 -0.1421  1.7695  0.6016
 2908TIP3    H230140   0.108   1.210   0.112 -0.9973 -0.9032  0.9015
 2909TIP3   OH230141   3.783   2.499  12.219  0.2633 -0.1478 -0.7423
 2909TIP3    H130142   3.691   2.496  12.192 -0.3112  1.7957  0.7770
 2909TIP3    H230143   3.805   2.409  12.242 -0.8101 -0.8879 -2.4107
 2910TIP3   OH230144   5.797   5.808   5.103 -0.2920 -0.2522  0.5510
 2910TIP3    H130145   5.876   5.754   5.105 -0.0253  0.0739 -0.3308
 2910TIP3    H230146   5.806   5.868   5.177 -0.1232 -0.7721  0.9530
 2911TIP3   OH230147   1.011   0.238  16.070  0.3069 -0.3475 -0.3666
 2911TIP3    H130148   1.055   0.249  15.986 -0.4526 -1.2510 -0.9028
 2911TIP3    H230149   0.992   0.144  16.075 -1.3557 -0.0312 -0.0822
 2912TIP3   OH230150   0.495   4.517  14.770  0.0242  0.2947 -0.2223
 2912TIP3    H130151   0.461   4.507  14.681 -0.0250  0.3850 -0.2132
 2912TIP3    H230152   0.530   4.606  14.773  0.7558  0.0202 -0.4010
 2913TIP3   OH230153   3.754   3.686  15.586  0.8482 -0.0431 -0.2721
 2913TIP3    H130154   3.675   3.718  15.543 -0.2004 -2.3736 -0.2010
 2913TIP3    H230155   3.822   3.692  15.519 -0.0114 -0.5125 -1.2000
 2914TIP3   OH230156   3.086   1.228  11.940  0.0695  0.2067  0.3549
 2914TIP3    H130157   3.008   1.242  11.886 -0.8269  0.2733  1.6095
 2914TIP3    H230158   3.139   1.306  11.926 -0.7787  0.8373  0.5716
 2915TIP3   OH230159   3.468   4.175  12.310  0.3524 -0.3521  0.1258
 2915TIP3    H130160   3.505   4.177  12.222 -1.6340 -0.6131 -0.7529
 2915TIP3    H230161   3.544   4.166  12.367  1.6996 -0.0626 -1.5319
 2916TIP3   OH230162   4.168   1.395  12.485 -0.2226  0.1123  0.5276
 2916TIP3    H130163   4.196   1.477  12.525  0.4706  0.3763 -0.4701
 2916TIP3    H230164   4.244   1.364  12.435 -1.3547  0.3981 -1.5170
 2917TIP3   OH230165   6.465   2.250  14.153  0.0701  0.1953 -0.3798
 2917TIP3    H130166   6.507   2.295  14.227  1.5248 -1.7590  0.0398
 2917TIP3    H230167   6.537   2.231  14.093 -0.8583  0.2737 -1.5505
 2918TIP3   OH230168   4.921   2.541  13.960  0.6187  0.0389  0.5918
 2918TIP3    H130169   4.861   2.599  13.912 -0.1952  0.7845  2.4018
 2918TIP3    H230170   4.932   2.584  14.045  1.5838 -1.4793  1.2643
 2919TIP3   OH230171   4.300   5.029   6.370 -0.4286 -0.1867 -0.4014
 2919TIP3    H130172   4.236   4.968   6.407 -2.2526  1.0392 -1.4021
 2919TIP3    H230173   4.249   5.108   6.349  1.1657  0.4088 -2.3540
 2920TIP3   OH230174   2.924   4.661   0.815  0.2692  0.0272  0.3685
 2920TIP3    H130175   2.939   4.650   0.909  1.2332  0.1006  0.2373
 2920TIP3    H230176   2.830   4.674   0.807  0.3711  1.9709  1.5362
 2921TIP3   OH230177   5.576   1.848  12.781  0.3484  0.0148 -0.1842
 2921TIP3    H130178   5.633   1.920  12.808  0.5856  0.4834 -1.8598
 2921TIP3    H230179   5.582   1.785  12.854  1.2760  1.0208  0.6504
 2922TIP3   OH230180   5.138   1.964   0.416  0.1305  0.5530 -0.0561
 2922TIP3    H130181   5.071   1.921   0.363 -0.2789  1.1647 -0.0421
 2922TIP3    H230182   5.200   1.999   0.352  1.5484 -1.7254 -0.0308
 2923TIP3   OH230183   1.389   1.085   0.778  0.8931 -0.7163  0.1921
 2923TIP3    H130184   1.322   1.051   0.837  1.1187  0.7238  1.3228
 2923TIP3    H230185   1.350   1.076   0.690 -0.1388 -1.3235  0.6959
 2924TIP3   OH230186   1.102   5.761   1.544 -0.4099  0.3307  0.0307
 2924TIP3    H130187   1.088   5.794   1.455  0.9494  0.3228 -0.2064
 2924TIP3    H230188   1.151   5.830   1.588  2.1083 -1.0915 -0.3417
 2925TIP3   OH230189   4.807   4.562   4.984  0.1408 -0.0527 -0.2642
 2925TIP3    H130190   4.838   4.625   4.918 -0.7170  1.2137  0.5055
 2925TIP3    H230191   4.878   4.558   5.048  0.0889  0.3403 -0.1809
 2926TIP3   OH230192   5.266   2.991   1.032  1.0287 -0.1896 -0.0062
 2926TIP3    H130193   5.330   2.939   0.983  1.4308 -0.2635  0.5787
 2926TIP3    H230194   5.319   3.051   1.084  0.6123 -0.0706  0.2871
 2927TIP3   OH230195   2.206   0.202  11.749  0.0724 -0.4624 -0.1490
 2927TIP3    H130196   2.154   0.128  11.782  0.5741 -0.8569 -0.2352
 2927TIP3    H230197   2.172   0.278  11.796  0.6079 -0.9796  1.1192
 2928TIP3   OH230198   3.923   1.248  16.657 -0.4813  0.2523  0.2882
 2928TIP3    H130199   3.932   1.153  16.661  1.2513  0.4046  0.6839
 2928TIP3    H230200   3.835   1.265  16.691 -0.8769 -1.2098  0.0472
 2929TIP3   OH230201   2.373   5.647  13.989 -0.4959  0.0268 -0.2618
 2929TIP3    H130202   2.333   5.594  13.921 -0.6197  0.8946 -0.8922
 2929TIP3    H230203   2.343   5.609  14.071 -1.7242 -0.0089 -0.7129
 2930TIP3   OH230204   6.087   5.881   2.302 -0.3654  0.1501  0.3309
 2930TIP3    H130205   6.002   5.923   2.291 -1.0496 -1.0762  0.6747
 2930TIP3    H230206   6.119   5.868   2.213 -0.8126  0.1125  0.1699
 2931TIP3   OH230207   1.105   4.351  12.854 -0.4311 -0.6270 -0.2036
 2931TIP3    H130208   1.033   4.332  12.915 -1.0965  2.9132  0.3539
 2931TIP3    H230209   1.164   4.406  12.905 -0.1860  1.1095 -2.2440
 2932TIP3   OH230210   0.927   1.374  13.968 -0.6211 -0.3389 -0.0815
 2932TIP3    H130211   0.908   1.444  14.031  0.9647  1.4749 -1.4697
 2932TIP3    H230212   0.880   1.399  13.889  0.5904 -0.3836 -0.8442
 2933TIP3   OH230213   2.904   4.413  15.113 -0.3105  0.0600 -0.9132
 2933TIP3    H130214   2.872   4.468  15.041  0.8743 -0.9639 -2.3053
 2933TIP3    H230215   2.932   4.332  15.070  2.3913  0.1916  0.3708
 2934TIP3   OH230216   1.336   5.810  15.758 -0.2999  0.0235  0.1476
 2934TIP3    H130217   1.304   5.775  15.675  0.1116  0.1721 -0.0800
 2934TIP3    H230218   1.364   5.900  15.737  0.1565 -0.0649  0.3597
 2935TIP3   OH230219   3.363   2.645  13.994 -0.1741  0.8917 -0.2018
 2935TIP3    H130220   3.412   2.592  13.932 -0.4787 -0.7127  0.8774
 2935TIP3    H230221   3.272   2.640  13.965 -0.5002 -0.8445  0.9794
 2936TIP3   OH230222   5.909   1.920   3.316  0.6227 -0.0584  0.3336
 2936TIP3    H130223   5.837   1.954   3.369  0.0518 -0.7265  0.0068
 2936TIP3    H230224   5.922   1.987   3.249  0.5120  0.2082  0.5747
 2937TIP3   OH230225   3.077   1.763   2.039  0.0658  0.0431 -0.2549
 2937TIP3    H130226   3.159   1.727   2.072  0.3242  1.4910  0.7977
 2937TIP3    H230227   3.009   1.710   2.081  0.4457 -0.4598 -0.2697
 2938TIP3   OH230228   1.966   1.930  14.435  0.8189  0.3492  0.1903
 2938TIP3    H130229   1.905   1.975  14.493 -0.7812 -2.6052  1.0230
 2938TIP3    H230230   2.053   1.952  14.469 -0.0224 -0.6181  3.3277
 2939TIP3   OH230231   3.080   3.621  14.847  0.0392  0.1284  0.0223
 2939TIP3    H130232   3.171   3.600  14.870  0.2861  1.4080  0.2704
 2939TIP3    H230233   3.079   3.618  14.751  0.8129  1.7879 -0.0840
 2940TIP3   OH230234   0.364   1.980   3.665  0.6099 -0.3137  0.6938
 2940TIP3    H130235   0.367   2.013   3.575 -2.8043 -0.6426  0.3184
 2940TIP3    H230236   0.331   1.890   3.657  0.6540 -0.5052  2.2602
 2941TIP3   OH230237   5.533   3.790  16.852  0.2414  0.1939 -0.3388
 2941TIP3    H130238   5.614   3.789  16.903  0.6538 -1.2679 -0.9936
 2941TIP3    H230239   5.470   3.740  16.905  0.5065 -0.8375 -0.9797
 2942TIP3   OH230240   4.463   1.555   4.640  0.6237  0.3298 -0.4000
 2942TIP3    H130241   4.516   1.475   4.639  0.5225  0.2630 -0.4540
 2942TIP3    H230242   4.374   1.525   4.622  0.2583  0.2165  1.4683
 2943TIP3   OH230243   0.040   6.599  11.734 -0.3084 -0.0263  0.4151
 2943TIP3    H130244   0.111   6.563  11.787 -0.7248 -1.2952  0.1574
 2943TIP3    H230245   0.033   6.539  11.660  0.1868  1.6431 -1.0602
 2944TIP3   OH230246   6.313   4.987  11.527  0.3859  0.5360 -0.1104
 2944TIP3    H130247   6.269   5.046  11.466 -0.4335 -0.2573 -0.3205
 2944TIP3    H230248   6.399   5.026  11.541  0.4067  1.0088 -1.3895
 2945TIP3   OH230249   6.117   6.135   6.440  0.0382  0.7664 -0.0561
 2945TIP3    H130250   6.174   6.064   6.471  0.2360  1.2559  0.7225
 2945TIP3    H230251   6.098   6.112   6.349  1.0041  0.2851 -0.1497
 2946TIP3   OH230252   0.902   6.482  11.469 -0.4641 -0.0027 -0.2852
 2946TIP3    H130253   0.972   6.517  11.413  0.1226  1.0484  1.0584
 2946TIP3    H230254   0.930   6.501  11.558 -2.9798  1.4691  0.2866
 2947TIP3   OH230255   2.701   4.333  13.004  0.1642 -0.3052  0.5808
 2947TIP3    H130256   2.721   4.239  13.005 -0.5110 -0.4882 -0.9027
 2947TIP3    H230257   2.782   4.374  12.973 -0.2877 -0.6554 -1.1978
 2948TIP3   OH230258   4.123   5.443   3.906  0.7100 -0.0145 -0.2362
 2948TIP3    H130259   4.145   5.536   3.905  0.2831  0.0872 -0.6097
 2948TIP3    H230260   4.029   5.441   3.924  0.9904 -0.4344  1.2888
 2949TIP3   OH230261   4.487   2.879  13.118  0.4917  0.1739  0.0063
 2949TIP3    H130262   4.563   2.860  13.063  0.0981  1.5335 -1.0881
 2949TIP3    H230263   4.432   2.935  13.063 -0.2755  0.9894  1.5362
 2950TIP3   OH230264   4.008   5.063  11.202  0.6215  0.0674  0.1608
 2950TIP3    H130265   4.001   5.033  11.112  1.2673  0.4620 -0.0224
 2950TIP3    H230266   4.046   5.151  11.196  1.4745 -0.2372  0.8669
 2951TIP3   OH230267   5.400   4.482  13.515  0.3062  0.5036 -0.3381
 2951TIP3    H130268   5.385   4.465  13.422  0.4045 -0.1105 -0.2441
 2951TIP3    H230269   5.395   4.578  13.523 -0.5253  0.5077 -0.8298
 2952TIP3   OH230270   0.022   2.016  14.461  0.2064 -0.4575  0.1115
 2952TIP3    H130271  -0.043   1.951  14.487 -2.1918  0.1279 -3.5432
 2952TIP3    H230272   0.094   1.966  14.424  0.9084 -1.0824  2.2512
 2953TIP3   OH230273   5.764   4.913  14.663 -0.6415 -0.6708 -0.4595
 2953TIP3    H130274   5.749   5.001  14.697  1.5801 -0.1168 -0.7279
 2953TIP3    H230275   5.715   4.910  14.581 -1.1506  0.1146 -0.1982
 2954TIP3   OH230276   0.115   1.231  16.635 -0.2701  0.3303 -0.0845
 2954TIP3    H130277   0.173   1.168  16.679 -0.1264  1.0705  0.8252
 2954TIP3    H230278   0.175   1.285  16.582 -0.0767  1.2238  1.0112
 2955TIP3   OH230279   1.299   1.260  11.967  0.2569 -0.0701 -0.5213
 2955TIP3    H130280   1.322   1.172  11.998  0.1704  0.2049  0.3199
 2955TIP3    H230281   1.234   1.244  11.898 -0.0661 -0.6400 -0.0931
 2956TIP3   OH230282   0.060   5.976   5.869  0.2296  0.5593 -0.3800
 2956TIP3    H130283   0.072   5.910   5.937  1.0116  1.2999  0.2232
 2956TIP3    H230284  -0.018   5.948   5.821  1.1348 -1.3626 -0.8105
 2957TIP3   OH230285   1.086   6.024   1.959 -0.1250  0.4829  0.2226
 2957TIP3    H130286   1.048   6.004   2.045 -0.6532  1.0259  0.1204
 2957TIP3    H230287   1.172   5.982   1.961 -0.5584 -0.4072  0.6140
 2958TIP3   OH230288   1.822   3.913   4.238  0.4352 -0.0880 -0.0036
 2958TIP3    H130289   1.840   3.962   4.157  0.9790  2.4256  1.5378
 2958TIP3    H230290   1.906   3.872   4.259  0.2663 -0.8396 -0.7193
 2959TIP3   OH230291   5.758   0.544  11.185  0.1856  0.0033 -0.5559
 2959TIP3    H130292   5.739   0.548  11.091  0.3201 -0.2846 -0.5954
 2959TIP3    H230293   5.853   0.553  11.191  0.2264 -0.4491 -0.4786
 2960TIP3   OH230294   3.269   2.754  16.352  0.6198  0.5533 -0.5859
 2960TIP3    H130295   3.259   2.843  16.388  3.0465  0.4642  0.5505
 2960TIP3    H230296   3.212   2.700  16.406  1.2759  1.0368  0.6424
 2961TIP3   OH230297   1.259   6.634   3.732 -0.3707 -0.1956 -0.2270
 2961TIP3    H130298   1.258   6.539   3.745  0.2800 -0.0262  1.1537
 2961TIP3    H230299   1.250   6.671   3.819  2.4675  1.0068 -0.3335
 2962TIP3   OH230300   5.122   0.842  12.946  0.3636 -0.0490 -0.0767
 2962TIP3    H130301   5.045   0.855  12.890  0.0109 -0.9029  0.1956
 2962TIP3    H230302   5.186   0.800  12.888 -0.5969 -2.5103  0.5516
 2963TIP3   OH230303   1.935   5.837   1.580 -0.6557  0.5048  0.2853
 2963TIP3    H130304   1.911   5.915   1.530 -0.9105  0.0626 -0.2891
 2963TIP3    H230305   1.964   5.773   1.515  1.0640  0.6261  0.8553
 2964TIP3   OH230306   0.937   6.096   1.714  0.2753  0.4776  0.6505
 2964TIP3    H130307   0.996   6.158   1.673 -1.0269  1.0912 -0.3585
 2964TIP3    H230308   0.961   6.097   1.807  0.7331  1.9652  0.5349
 2965TIP3   OH230309   2.710   4.467   1.234 -0.3040 -0.0044  0.8593
 2965TIP3    H130310   2.635   4.414   1.259 -0.7649  0.4930  0.5599
 2965TIP3    H230311   2.776   4.448   1.301 -1.0162  0.2314  1.6575
 2966TIP3   OH230312   4.062   2.487   0.598 -0.0095 -1.0066  0.5805
 2966TIP3    H130313   3.983   2.511   0.647 -0.8507  0.3905 -1.2893
 2966TIP3    H230314   4.070   2.556   0.532  1.9041 -1.9842 -0.2892
 2967TIP3   OH230315   5.422   6.478   0.126  0.3639  0.1956  0.4296
 2967TIP3    H130316   5.437   6.573   0.129 -1.4226  0.5258  0.0551
 2967TIP3    H230317   5.357   6.467   0.056  2.2583 -1.5741 -1.1508
 2968TIP3   OH230318   6.790   3.561   5.664  0.3012 -0.5278 -0.0957
 2968TIP3    H130319   6.762   3.597   5.748  1.2395 -1.1217  0.4868
 2968TIP3    H230320   6.878   3.595   5.651 -0.0743  0.1065 -1.1847
 2969TIP3   OH230321   6.181   0.623   1.406  0.3745  0.9063  0.6299
 2969TIP3    H130322   6.124   0.650   1.334 -0.3671 -0.9127  0.4787
 2969TIP3    H230323   6.124   0.573   1.464  1.3237  0.9915  1.6676
 2970TIP3   OH230324   2.117   1.080   1.623  0.5943 -0.0066  0.0689
 2970TIP3    H130325   2.070   1.101   1.704  0.5795 -0.0759  0.0779
 2970TIP3    H230326   2.164   0.999   1.643  2.1518  0.9851  0.6734
 2971TIP3   OH230327   0.135   0.692  17.015 -0.6685 -0.2321  0.1435
 2971TIP3    H130328   0.058   0.705  17.070 -1.0044 -0.6521 -0.2198
 2971TIP3    H230329   0.154   0.598  17.021 -1.1443 -0.4216 -1.0112
 2972TIP3   OH230330   4.060   6.276   5.702 -0.4446  0.0830 -0.7940
 2972TIP3    H130331   4.134   6.300   5.646  0.0539  1.5389  0.4142
 2972TIP3    H230332   4.042   6.355   5.752 -0.0787 -1.4603  1.9587
 2973TIP3   OH230333   6.190   2.494   0.612  0.7942 -0.3637 -0.0311
 2973TIP3    H130334   6.188   2.409   0.657 -0.0334 -0.6990 -0.6935
 2973TIP3    H230335   6.164   2.475   0.522  0.9957  0.5334 -0.2915
 2974TIP3   OH230336   5.132   3.893  11.316  0.1423  0.6448 -0.0265
 2974TIP3    H130337   5.198   3.829  11.291 -0.5343 -0.1860  0.2900
 2974TIP3    H230338   5.168   3.977  11.287  0.8836  0.0899 -0.7460
 2975TIP3   OH230339   2.090   6.771   6.581 -0.4416  0.0885  0.7881
 2975TIP3    H130340   2.052   6.709   6.519  0.0094  0.9162 -0.3558
 2975TIP3    H230341   2.166   6.725   6.618 -1.1669 -0.7009  1.3352
 2976TIP3   OH230342   5.395   6.379  13.049  0.4615 -0.9795  0.1981
 2976TIP3    H130343   5.485   6.372  13.078  0.3674  0.6044  0.9807
 2976TIP3    H230344   5.399   6.366  12.954  1.3323 -2.0623  0.3662
 2977TIP3   OH230345   4.577   2.050  15.167 -0.5200  0.0428 -0.1525
 2977TIP3    H130346   4.568   1.959  15.192 -0.0961 -0.8160 -2.8258
 2977TIP3    H230347   4.522   2.060  15.090  1.3914  1.3256 -1.4425
 2978TIP3   OH230348   4.456   3.849  13.476  0.3353  0.7689 -0.1249
 2978TIP3    H130349   4.373   3.850  13.429  0.9372  0.8832 -1.2172
 2978TIP3    H230350   4.438   3.896  13.557 -1.2239 -1.0491  0.6815
 2979TIP3   OH230351   4.560   4.388   2.763  0.2442  0.1842 -0.6200
 2979TIP3    H130352   4.511   4.305   2.761  2.5603 -1.2576 -2.3863
 2979TIP3    H230353   4.624   4.377   2.833  0.4445  0.5685 -0.7392
 2980TIP3   OH230354   0.480   1.737  15.715  0.0179  0.4895 -0.1091
 2980TIP3    H130355   0.528   1.740  15.632  1.1929 -0.3654  0.5063
 2980TIP3    H230356   0.543   1.700  15.778 -0.8435  1.1005  1.1652
 2981TIP3   OH230357   2.052   0.080  16.351  0.2918  0.7826  0.4288
 2981TIP3    H130358   1.967   0.037  16.336  0.8476 -0.3136  0.2602
 2981TIP3    H230359   2.090   0.031  16.424  0.4849  1.7366  0.9792
 2982TIP3   OH230360   0.139   5.690  14.581  0.1707  0.3090 -0.2096
 2982TIP3    H130361   0.050   5.661  14.601  0.0992  1.2822  0.9728
 2982TIP3    H230362   0.133   5.786  14.581  1.6026  0.4551  1.8683
 2983TIP3   OH230363   6.783   0.970  12.698 -0.0562 -0.6879 -0.3571
 2983TIP3    H130364   6.754   0.901  12.757 -1.6145 -0.6507 -1.0305
 2983TIP3    H230365   6.725   0.963  12.622 -1.0005  2.0416  0.0076
 2984TIP3   OH230366   3.392   4.286   4.973 -1.1022  0.4934  0.0682
 2984TIP3    H130367   3.389   4.221   5.043  0.5164  0.2165 -0.0783
 2984TIP3    H230368   3.310   4.334   4.981 -0.7349  0.8578  2.5348
 2985TIP3   OH230369   0.900   4.297   1.551 -0.2086 -0.2701  0.2886
 2985TIP3    H130370   0.979   4.249   1.574 -0.0148 -0.4094 -0.6532
 2985TIP3    H230371   0.921   4.388   1.568  0.3521 -0.2470 -0.4816
 2986TIP3   OH230372   1.065   4.834   4.691 -0.4088 -0.5314 -0.6764
 2986TIP3    H130373   1.156   4.826   4.719 -1.0033 -1.2649  1.2088
 2986TIP3    H230374   1.045   4.751   4.649  0.2981  0.3370 -2.8794
 2987TIP3   OH230375   6.150   5.964  13.670 -0.0738  0.0680 -0.2564
 2987TIP3    H130376   6.229   6.004  13.634 -0.4125  0.9994  0.0133
 2987TIP3    H230377   6.080   6.026  13.650 -0.6827 -0.5806 -0.1816
 2988TIP3   OH230378   2.649   2.058  15.046 -0.3988 -0.7765 -0.1751
 2988TIP3    H130379   2.600   1.978  15.066 -0.6135 -0.6687 -0.2636
 2988TIP3    H230380   2.666   2.098  15.131 -0.0490 -1.0562 -0.1110
 2989TIP3   OH230381   6.274   4.686   2.092 -0.4591  0.0872 -0.3204
 2989TIP3    H130382   6.240   4.682   2.181  0.2933  0.8021  0.0170
 2989TIP3    H230383   6.200   4.715   2.039 -0.5411  1.1121  0.3186
 2990TIP3   OH230384   0.482   2.398   5.119  0.3842  0.0967  0.3621
 2990TIP3    H130385   0.451   2.424   5.032 -0.2947  0.4731  0.7135
 2990TIP3    H230386   0.538   2.322   5.102  0.0192 -0.0186 -0.3718
 2991TIP3   OH230387   3.924   5.687   2.467 -0.6186 -0.0902  0.4173
 2991TIP3    H130388   3.933   5.603   2.512 -3.4039 -1.2430 -0.9353
 2991TIP3    H230389   4.006   5.733   2.486  1.1175 -3.1570  1.0522
 2992TIP3   OH230390   1.559   4.944  16.058 -0.3430  0.4604  0.4255
 2992TIP3    H130391   1.489   4.940  15.993 -0.9090 -3.0017  1.0302
 2992TIP3    H230392   1.639   4.931  16.008 -0.7057 -1.3344  0.2485
 2993TIP3   OH230393   0.377   0.793   5.000  0.0409 -0.2967 -0.3969
 2993TIP3    H130394   0.352   0.701   4.987 -0.3918 -0.4037  0.9857
 2993TIP3    H230395   0.378   0.804   5.095  0.0039  1.1603 -0.5439
 2994TIP3   OH230396   0.367   3.613  16.485  0.6098  0.1171  0.2111
 2994TIP3    H130397   0.387   3.573  16.400 -0.3976 -0.2072  0.1115
 2994TIP3    H230398   0.272   3.627  16.483  0.3697 -1.0838  1.7952
 2995TIP3   OH230399   0.200   2.293  13.608  0.2377  0.3994  0.0852
 2995TIP3    H130400   0.278   2.295  13.553  0.5197  0.7482  0.4953
 2995TIP3    H230401   0.233   2.295  13.698 -0.1867 -1.0494  0.2985
 2996TIP3   OH230402   3.131   2.636   0.001 -0.3721 -0.1731  0.0187
 2996TIP3    H130403   3.124   2.577   0.076  0.2999  0.1039  0.3097
 2996TIP3    H230404   3.212   2.686   0.017 -1.0531  1.0060 -0.0970
 2997TIP3   OH230405   3.248   5.324  11.365  0.4542 -0.1516  0.7921
 2997TIP3    H130406   3.195   5.342  11.287  0.4117 -1.5297  0.4735
 2997TIP3    H230407   3.339   5.336  11.336  0.4419 -0.7295  0.4930
 2998TIP3   OH230408   1.023   6.567  12.515  0.0189  0.6436  0.4418
 2998TIP3    H130409   0.977   6.507  12.574  0.8175  0.2526  0.6898
 2998TIP3    H230410   1.096   6.601  12.568 -0.2033  1.5482  0.1848
 2999TIP3   OH230411   0.695   4.148   2.966  0.1771 -0.1965  0.0284
 2999TIP3    H130412   0.641   4.227   2.966 -0.3892 -0.5686 -0.7040
 2999TIP3    H230413   0.632   4.076   2.963  0.6935 -0.6345 -0.7599
 3000TIP3   OH230414   2.936   2.755  14.909  0.2816 -0.0469 -0.3361
 3000TIP3    H130415   2.851   2.779  14.872 -0.2029 -0.4156  0.4980
 3000TIP3    H230416   2.938   2.797  14.995  0.4514 -0.9476  0.1204
 3001TIP3   OH230417   0.708   0.660  12.728  0.1659 -0.3680  0.2062
 3001TIP3    H130418   0.645   0.617  12.671  1.4477 -1.0107 -0.7905
 3001TIP3    H230419   0.750   0.726  12.673  1.5162 -1.0810  0.3249
 3002TIP3   OH230420   0.182   0.010  13.010 -0.1889 -0.1779 -0.0893
 3002TIP3    H130421   0.248  -0.013  13.076 -0.0721  0.0920 -0.1095
 3002TIP3    H230422   0.230   0.057  12.942 -0.2447 -0.7964 -0.5621
 3003TIP3   OH230423   4.752   6.231  13.847  0.1744 -0.6670  0.1419
 3003TIP3    H130424   4.842   6.209  13.873  0.3499  0.4007  0.4621
 3003TIP3    H230425   4.756   6.238  13.752  0.3476 -0.9518  0.1247
 3004TIP3   OH230426   6.654   0.024   3.753 -0.2288 -0.0044  0.0078
 3004TIP3    H130427   6.717   0.081   3.798 -0.3984 -0.0348  0.2853
 3004TIP3    H230428   6.695   0.004   3.669 -0.3437  0.8638 -0.2644
 3005TIP3   OH230429   3.384   0.482   1.605  0.0005  1.0595  0.2958
 3005TIP3    H130430   3.320   0.547   1.577 -1.7198 -0.2451  1.0381
 3005TIP3    H230431   3.435   0.526   1.674 -1.9891  1.2649  1.7180
 3006TIP3   OH230432   6.190   1.191  17.102  0.1776 -0.4009  0.3304
 3006TIP3    H130433   6.108   1.143  17.100 -0.0698 -0.0233  1.1347
 3006TIP3    H230434   6.228   1.172  17.188  0.3028  0.4528  0.4749
 3007TIP3   OH230435   4.522   3.529   1.453 -0.1110 -0.5986 -0.5498
 3007TIP3    H130436   4.492   3.443   1.424  1.0930 -1.1299 -0.2681
 3007TIP3    H230437   4.565   3.513   1.537 -0.5461  0.4008 -0.1137
 3008TIP3   OH230438   2.794   4.928   5.172  0.3643 -0.1958  0.4476
 3008TIP3    H130439   2.835   5.013   5.189 -0.2178  0.1144  0.3487
 3008TIP3    H230440   2.700   4.947   5.171  0.2329 -0.8289  0.3403
 3009TIP3   OH230441   1.216   1.982   1.710  0.4309  0.5144 -0.2296
 3009TIP3    H130442   1.184   2.065   1.673  2.1002  0.7885 -1.1594
 3009TIP3    H230443   1.196   1.917   1.642 -1.6253 -0.0569  0.8383
 3010TIP3   OH230444   2.908   6.252   1.375 -0.2568 -0.3018 -0.2707
 3010TIP3    H130445   2.944   6.163   1.379 -0.0791 -0.3217 -1.7705
 3010TIP3    H230446   2.819   6.242   1.408 -0.0798 -0.9417  0.0477
 3011TIP3   OH230447   2.341   1.674  11.883  0.4320  0.0245  0.0752
 3011TIP3    H130448   2.257   1.632  11.865  0.1309 -0.1843  1.8156
 3011TIP3    H230449   2.321   1.742  11.947  1.7244 -0.7695  1.3931
 3012TIP3   OH230450   5.433   0.708   1.797  0.7311 -0.1451 -0.0649
 3012TIP3    H130451   5.475   0.777   1.849  0.3242  0.8083 -0.9605
 3012TIP3    H230452   5.450   0.627   1.846 -1.3171  0.9084  2.6162
 3013TIP3   OH230453   1.499   3.569   3.336  0.2289  0.0770  0.8296
 3013TIP3    H130454   1.491   3.476   3.355 -1.8854  0.4548  2.1385
 3013TIP3    H230455   1.446   3.612   3.403  3.1325  2.4370  1.7859
 3014TIP3   OH230456   3.673   0.953   0.872 -0.2940  0.0118  0.2080
 3014TIP3    H130457   3.609   1.021   0.855 -1.0855 -0.7535  0.0419
 3014TIP3    H230458   3.733   0.992   0.936 -1.1831  0.5979  0.7112
 3015TIP3   OH230459   2.916   3.314  15.778 -0.0562 -0.0958 -0.6141
 3015TIP3    H130460   2.850   3.274  15.835  0.5284  0.1596  0.2608
 3015TIP3    H230461   2.975   3.241  15.756  0.1208 -0.0455 -0.3068
 3016TIP3   OH230462   2.680   0.852   2.055 -0.1378  0.5072 -0.4592
 3016TIP3    H130463   2.631   0.878   1.977  1.7286  1.2028 -1.4648
 3016TIP3    H230464   2.710   0.934   2.093  0.2949  0.1054  0.0890
 3017TIP3   OH230465   0.805   6.039  14.679  0.4594  0.4587  0.4367
 3017TIP3    H130466   0.862   5.975  14.722 -0.8573 -1.4450 -0.5076
 3017TIP3    H230467   0.851   6.060  14.598  1.3110  1.4195  1.1459
 3018TIP3   OH230468   3.592   1.361   3.982 -0.2361 -0.0304  0.1309
 3018TIP3    H130469   3.607   1.431   4.046 -0.1872  2.0787 -2.0131
 3018TIP3    H230470   3.509   1.386   3.940 -0.6510 -1.7710 -0.1549
 3019TIP3   OH230471   4.004   1.419  14.075 -0.4962  0.4302 -0.2428
 3019TIP3    H130472   4.078   1.427  14.015 -0.1999 -1.2824 -0.1781
 3019TIP3    H230473   4.041   1.435  14.161 -0.3594  0.3385 -0.2836
 3020TIP3   OH230474   4.410   4.323  12.311 -0.2101 -0.6425 -0.1864
 3020TIP3    H130475   4.416   4.358  12.222 -2.5872 -0.8900 -0.5077
 3020TIP3    H230476   4.338   4.260  12.307 -0.4356 -0.5881  1.9271
 3021TIP3   OH230477   6.497   2.684   4.491 -0.4007  0.5841  0.1131
 3021TIP3    H130478   6.556   2.697   4.566  0.0751  0.9938 -0.3213
 3021TIP3    H230479   6.438   2.614   4.519  1.2326 -0.8934  0.0037
 3022TIP3   OH230480   0.813   5.286  11.162  0.0805 -0.1322 -0.0208
 3022TIP3    H130481   0.806   5.308  11.069 -0.8207  0.2534  0.1239
 3022TIP3    H230482   0.827   5.370  11.205 -1.6740  0.0001  0.3767
 3023TIP3   OH230483   4.632   0.382   0.641  0.1328  0.6516 -0.4709
 3023TIP3    H130484   4.540   0.369   0.667  0.1885  2.1181  0.5785
 3023TIP3    H230485   4.627   0.443   0.568  0.3376  3.4628  1.6764
 3024TIP3   OH230486   6.199   2.476  11.340 -0.4199 -0.5857 -0.2473
 3024TIP3    H130487   6.288   2.509  11.349 -0.3775  0.0647 -2.4048
 3024TIP3    H230488   6.192   2.406  11.405  1.0529  0.5346  1.1784
 3025TIP3   OH230489   5.789   5.793   1.978  0.0801  0.8654  0.0735
 3025TIP3    H130490   5.785   5.781   2.073  0.8870 -1.3756 -0.1265
 3025TIP3    H230491   5.869   5.843   1.964  0.1490  0.8975  0.5457
 3026TIP3   OH230492   3.308   1.362   2.850 -0.2529 -0.2495  0.2308
 3026TIP3    H130493   3.230   1.337   2.799 -0.9654  0.3337  1.0259
 3026TIP3    H230494   3.278   1.364   2.941  0.4792  0.8261  0.4618
 3027TIP3   OH230495   1.176   0.508   0.850  0.1498 -0.7396  0.4007
 3027TIP3    H130496   1.253   0.459   0.879 -0.1748 -0.2210  2.2721
 3027TIP3    H230497   1.178   0.589   0.901 -2.1860 -1.1768  1.2983
 3028TIP3   OH230498   1.561   1.750   4.276  0.2069  0.1372 -0.0441
 3028TIP3    H130499   1.588   1.658   4.278 -2.4376 -0.7382 -1.0363
 3028TIP3    H230500   1.543   1.768   4.184 -1.3463  0.9982  0.3988
 3029TIP3   OH230501   3.098   0.768  15.977  0.1648  0.5465 -0.1129
 3029TIP3    H130502   3.193   0.780  15.978 -0.0056  2.0148  1.1007
 3029TIP3    H230503   3.068   0.818  15.901  0.1668  2.0644  0.8465
 3030TIP3   OH230504   3.348   1.786  13.388 -0.1644 -0.3605 -0.2316
 3030TIP3    H130505   3.258   1.758  13.405  0.3845 -1.2074  1.6060
 3030TIP3    H230506   3.378   1.727  13.319 -0.0962 -2.2044  1.2768
 3031TIP3   OH230507   4.831   6.218   5.801  0.3573  0.2124  0.0424
 3031TIP3    H130508   4.812   6.130   5.766 -0.5672  0.1972  0.5724
 3031TIP3    H230509   4.927   6.223   5.801  0.4057 -0.3825 -1.0183
 3032TIP3   OH230510   1.528   5.279   2.298 -0.4535 -0.3836 -0.7661
 3032TIP3    H130511   1.587   5.322   2.360  1.1437 -1.5359 -1.3972
 3032TIP3    H230512   1.482   5.213   2.351  1.3951 -1.8284 -0.8372
 3033TIP3   OH230513   6.533   1.170   3.510 -0.0247  0.0677 -0.4404
 3033TIP3    H130514   6.465   1.211   3.563 -0.7526 -0.7119 -0.7477
 3033TIP3    H230515   6.494   1.162   3.423  0.2411 -0.9025 -0.4848
 3034TIP3   OH230516   1.199   4.484   1.179  0.4088 -0.1252 -0.6683
 3034TIP3    H130517   1.216   4.571   1.214  0.6700 -0.5403  0.2781
 3034TIP3    H230518   1.264   4.472   1.109 -0.3068  0.8298 -1.5127
 3035TIP3   OH230519   4.052   5.874  11.881  0.6401  0.0262  0.3074
 3035TIP3    H130520   4.045   5.944  11.947  0.4509  1.4618 -1.1867
 3035TIP3    H230521   3.998   5.904  11.808  2.0013 -0.8109 -1.1026
 3036TIP3   OH230522   3.867   5.181  13.544  0.4581  0.0161 -0.0939
 3036TIP3    H130523   3.779   5.203  13.512 -0.1720 -0.4533  1.2402
 3036TIP3    H230524   3.917   5.163  13.464 -0.9828 -0.9081 -0.8562
 3037TIP3   OH230525   3.769   5.004  12.685 -0.2276  0.0177  0.6573
 3037TIP3    H130526   3.712   4.971  12.754 -0.5665 -1.2632 -0.1880
 3037TIP3    H230527   3.759   5.099  12.689 -1.6526 -0.1284  1.1855
 3038TIP3   OH230528   4.437   4.230  11.308  0.2346 -0.2694 -0.0134
 3038TIP3    H130529   4.363   4.186  11.350 -0.4775  2.2573  1.5710
 3038TIP3    H230530   4.431   4.205  11.216 -1.6245 -1.3937  0.3709
 3039TIP3   OH230531   1.440   5.312   1.907  0.6097  0.3464 -0.0301
 3039TIP3    H130532   1.493   5.329   1.829  0.6447 -2.2172 -0.6681
 3039TIP3    H230533   1.353   5.291   1.873  0.0493  1.2361  0.7933
 3040TIP3   OH230534   2.402   5.399  13.603 -0.0899 -0.1683  0.1838
 3040TIP3    H130535   2.428   5.394  13.512  0.5284  1.2035  0.2669
 3040TIP3    H230536   2.443   5.479  13.636 -1.1520 -0.0799  1.3805
 3041TIP3   OH230537   6.395   6.153   1.895  0.4304  0.2821  0.7200
 3041TIP3    H130538   6.420   6.237   1.858  1.0071 -0.3363 -0.3682
 3041TIP3    H230539   6.391   6.094   1.819  0.2025 -0.7030  1.4737
 3042TIP3   OH230540   6.400   1.992  11.832  0.3652 -0.5644 -0.2345
 3042TIP3    H130541   6.313   1.984  11.795 -0.3344  0.6385  1.0369
 3042TIP3    H230542   6.393   2.064  11.894  2.0965 -0.8822  0.3939
 3043TIP3   OH230543   5.239   2.999   2.504 -0.1146  0.1856  0.1394
 3043TIP3    H130544   5.259   2.908   2.529 -2.8125 -0.2367  1.0996
 3043TIP3    H230545   5.147   3.011   2.529  0.2357  3.2972  0.3330
 3044TIP3   OH230546   3.169   6.788   1.470  0.3581  0.0121  0.0591
 3044TIP3    H130547   3.185   6.704   1.426 -0.4641 -0.5225  0.7457
 3044TIP3    H230548   3.190   6.771   1.562 -0.9768  0.2099  0.4102
 3045TIP3   OH230549   0.800   1.626   0.583  0.2752  0.2882 -0.0058
 3045TIP3    H130550   0.707   1.646   0.579  0.0344 -0.3549  1.6326
 3045TIP3    H230551   0.807   1.535   0.552  0.0219 -0.4358  1.9134
 3046TIP3   OH230552   0.007   3.622   0.976 -0.6364  0.0757  0.1522
 3046TIP3    H130553   0.028   3.694   1.036  0.1579  0.6160 -0.7538
 3046TIP3    H230554   0.018   3.543   1.029 -0.3514  0.5608  0.8287
 3047TIP3   OH230555   4.813   3.297  15.484  0.3257  0.3630  0.0182
 3047TIP3    H130556   4.842   3.350  15.558 -0.9739 -0.4904  1.1864
 3047TIP3    H230557   4.720   3.317  15.475  0.0441 -0.9518 -0.1699
 3048TIP3   OH230558   5.297   6.558   4.889 -0.0934 -0.5412  0.1345
 3048TIP3    H130559   5.291   6.527   4.979  1.0933 -1.2024  0.0015
 3048TIP3    H230560   5.319   6.651   4.896 -2.3590  0.0261  0.5215
 3049TIP3   OH230561   4.234   5.453  13.015 -0.5316  0.5441 -0.1931
 3049TIP3    H130562   4.167   5.516  13.042 -0.0991  1.2033 -0.6351
 3049TIP3    H230563   4.269   5.489  12.933 -0.1927 -0.2077 -0.3878
 3050TIP3   OH230564   0.243   2.376  12.561 -0.2697 -0.3604  0.0958
 3050TIP3    H130565   0.155   2.353  12.532  0.9137 -4.3572 -0.8989
 3050TIP3    H230566   0.253   2.331  12.645  1.4244 -1.7198 -0.7741
 3051TIP3   OH230567   4.154   4.601   4.133 -0.4022 -0.3498 -0.0814
 3051TIP3    H130568   4.208   4.645   4.068  0.3610  1.0717  1.4447
 3051TIP3    H230569   4.071   4.585   4.088 -1.4503  4.3472 -0.3060
 3052TIP3   OH230570   3.807   4.446  15.185  0.0751  0.6831  0.1249
 3052TIP3    H130571   3.721   4.475  15.216  0.3972  1.3045  0.4413
 3052TIP3    H230572   3.805   4.351  15.196 -1.4488  0.3859 -2.0246
 3053TIP3   OH230573   5.362   2.511  15.836  0.6421  0.4444  0.2551
 3053TIP3    H130574   5.351   2.436  15.778  1.3533  0.1798  0.4645
 3053TIP3    H230575   5.387   2.583  15.777 -0.2792  0.5932  0.0221
 3054TIP3   OH230576   3.041   5.431  11.196  0.0047  0.2562  0.1869
 3054TIP3    H130577   3.105   5.477  11.140 -0.0119  0.3472  0.2428
 3054TIP3    H230578   2.960   5.481  11.186 -0.6306 -1.0299 -1.4944
 3055TIP3   OH230579   2.500   6.230  11.351  0.4882 -0.1176 -0.0997
 3055TIP3    H130580   2.513   6.207  11.443 -1.0887  1.3822  0.5458
 3055TIP3    H230581   2.573   6.187  11.305  1.8693 -0.1079  1.9529
 3056TIP3   OH230582   6.717   3.484  10.661 -0.1041 -0.0888  0.0539
 3056TIP3    H130583   6.766   3.488  10.579 -0.3572 -1.3310 -0.1841
 3056TIP3    H230584   6.755   3.409  10.708 -0.1601  0.4256  0.9405
 3057TIP3   OH230585   6.710   5.918   3.899  0.0856 -0.0392  0.1171
 3057TIP3    H130586   6.701   5.867   3.818 -2.9761 -2.4699  1.7666
 3057TIP3    H230587   6.801   5.909   3.924  1.1239  0.7643 -2.9559
 3058TIP3   OH230588   6.315   5.180  11.324  0.1077  0.3280 -0.2453
 3058TIP3    H130589   6.301   5.168  11.230  0.6419 -1.5107 -0.1298
 3058TIP3    H230590   6.406   5.153  11.339 -0.5475 -1.3918  1.0505
 3059TIP3   OH230591   0.666   3.377   4.739 -0.1047  0.5458 -0.1578
 3059TIP3    H130592   0.690   3.333   4.657 -0.9542 -0.0248 -0.1159
 3059TIP3    H230593   0.574   3.402   4.727 -0.4718 -0.2111  0.8928
 3060TIP3   OH230594   5.392   1.544   6.160 -0.0819  0.7720 -0.1212
 3060TIP3    H130595   5.399   1.473   6.224 -0.6875  1.1496  0.3707
 3060TIP3    H230596   5.464   1.603   6.179  0.4819  0.2470 -0.5925
 3061TIP3   OH230597   2.529   4.068  15.381  0.2007 -0.2167  0.2361
 3061TIP3    H130598   2.513   3.981  15.419  0.1320 -0.2870  0.0432
 3061TIP3    H230599   2.625   4.077  15.384  0.1519  0.0855  1.1170
 3062TIP3   OH230600   1.971   0.003   2.120  0.0444 -0.5701 -0.0789
 3062TIP3    H130601   2.051  -0.005   2.068  0.8303  1.4817  0.7127
 3062TIP3    H230602   1.968  -0.077   2.172  1.4706 -0.7862 -0.2975
 3063TIP3   OH230603   1.911   0.146  15.132 -0.4064 -0.0576  0.3427
 3063TIP3    H130604   1.879   0.111  15.215  1.8418 -1.9627  0.5248
 3063TIP3    H230605   2.003   0.168  15.149  0.0041 -0.1418 -1.5252
 3064TIP3   OH230606   4.880   2.654  14.217 -0.0703 -0.2846  0.1911
 3064TIP3    H130607   4.793   2.688  14.237  0.0131 -0.1813  0.3838
 3064TIP3    H230608   4.897   2.589  14.284 -1.0779 -2.2529 -1.3553
 3065TIP3   OH230609   0.933   1.779  10.633  0.9149 -0.7781 -0.5877
 3065TIP3    H130610   0.850   1.742  10.601  0.2541  0.0022  0.1774
 3065TIP3    H230611   0.912   1.870  10.654  1.4440 -1.1151  1.5632
 3066TIP3   OH230612   6.653   3.235  14.877  0.4309  0.3557 -0.2452
 3066TIP3    H130613   6.735   3.222  14.925 -0.6414  2.0547  2.2372
 3066TIP3    H230614   6.622   3.146  14.859  2.4902 -0.3206 -0.7636
 3067TIP3   OH230615   5.111   2.980   2.210 -0.0605  0.3617  0.1635
 3067TIP3    H130616   5.075   3.068   2.201 -0.6865  0.1678  0.6453
 3067TIP3    H230617   5.156   2.981   2.295  0.2363  0.3174  0.0085
 3068TIP3   OH230618   2.498   5.429  13.037 -0.0668  0.8535  0.1687
 3068TIP3    H130619   2.579   5.403  12.992  0.2644  1.2114  0.5458
 3068TIP3    H230620   2.431   5.430  12.969  0.6668  2.5870 -0.5893
 3069TIP3   OH230621   2.513   1.752   0.588  0.1232 -0.2362  0.4290
 3069TIP3    H130622   2.483   1.680   0.644  1.6183  0.5963  2.4016
 3069TIP3    H230623   2.551   1.709   0.512 -0.9887 -1.4335  0.5095
 3070TIP3   OH230624   2.607   1.548   4.229  0.5412 -0.1223 -0.5839
 3070TIP3    H130625   2.569   1.533   4.142 -1.6228  0.2501  0.2412
 3070TIP3    H230626   2.532   1.565   4.285  1.9684  0.6444  1.1784
 3071TIP3   OH230627   6.808   4.478   1.721 -0.0738 -0.7047  0.0602
 3071TIP3    H130628   6.781   4.429   1.799 -0.5210  0.0579  0.3888
 3071TIP3    H230629   6.734   4.535   1.702 -0.0476 -1.0189 -1.0430
 3072TIP3   OH230630   1.033   6.418   1.486  0.6488  0.2093 -0.4550
 3072TIP3    H130631   1.006   6.452   1.401  1.8575  2.1032 -0.1363
 3072TIP3    H230632   0.952   6.411   1.536  0.1682  1.1524 -1.0734
 3073TIP3   OH230633   0.243   6.528  16.531 -0.3300  0.5005  0.3805
 3073TIP3    H130634   0.220   6.616  16.500 -1.9854 -0.5104 -1.4774
 3073TIP3    H230635   0.303   6.495  16.464 -0.6704 -0.2104  0.4206
 3074TIP3   OH230636   4.115   0.457   2.275 -0.3292 -0.0030 -0.3338
 3074TIP3    H130637   4.135   0.391   2.209  0.4822 -0.5662  0.4523
 3074TIP3    H230638   4.181   0.525   2.263  0.7670 -0.8196  0.8407
 3075TIP3   OH230639   5.019   0.712   2.336 -0.3792  0.3549 -0.4928
 3075TIP3    H130640   5.106   0.687   2.308 -0.0240 -0.0181  0.8731
 3075TIP3    H230641   4.962   0.643   2.303 -0.5418  1.6338 -3.2224
 3076TIP3   OH230642   1.884   3.803  12.446 -0.0382  0.7246 -0.3310
 3076TIP3    H130643   1.825   3.727  12.447 -0.1632  0.8206  0.8714
 3076TIP3    H230644   1.936   3.793  12.525  3.8797 -1.1098 -2.7881
 3077TIP3   OH230645   5.642   3.670   4.662  0.5980 -0.1953 -0.0142
 3077TIP3    H130646   5.675   3.652   4.573  0.1561  0.3917 -0.3023
 3077TIP3    H230647   5.641   3.765   4.668 -0.5097 -0.2065  0.1829
 3078TIP3   OH230648   4.913   4.707   1.856 -0.3500  0.3654 -0.3412
 3078TIP3    H130649   4.908   4.612   1.841  0.6529  0.3870 -0.9036
 3078TIP3    H230650   4.822   4.737   1.851 -0.5035 -0.2584 -2.3406
 3079TIP3   OH230651   3.565   3.976  11.357  0.2190  0.2761  0.6981
 3079TIP3    H130652   3.479   3.938  11.375 -0.4103  1.5538  0.4426
 3079TIP3    H230653   3.568   4.054  11.411  0.9062  0.6721  0.0977
 3080TIP3   OH230654   1.770   3.920   1.146  0.3352  0.7530  0.7111
 3080TIP3    H130655   1.771   4.010   1.113  1.4119  0.3427 -0.4772
 3080TIP3    H230656   1.718   3.872   1.082  0.8574  0.2947  0.6266
 3081TIP3   OH230657   1.285   4.706  14.804 -0.1116 -0.1367  0.3424
 3081TIP3    H130658   1.317   4.710  14.894 -0.6203  1.3087  0.4854
 3081TIP3    H230659   1.200   4.751  14.807 -0.9385 -1.5758 -0.5351
 3082TIP3   OH230660   0.710   6.311  16.600 -0.1593 -0.3008 -0.0915
 3082TIP3    H130661   0.630   6.311  16.548 -1.6711 -2.9875  1.9545
 3082TIP3    H230662   0.774   6.265  16.546 -0.7473 -0.3102 -0.7904
 3083TIP3   OH230663   5.307   0.878  14.247  0.4168 -0.2993  0.0496
 3083TIP3    H130664   5.261   0.865  14.330  0.2675  0.3765  0.0809
 3083TIP3    H230665   5.285   0.801  14.195  1.6645 -1.4435  1.1529
 3084TIP3   OH230666   3.657   0.368   5.253 -0.3166 -0.2261  0.0747
 3084TIP3    H130667   3.740   0.365   5.205 -0.4206  1.0829 -0.2387
 3084TIP3    H230668   3.594   0.324   5.196 -0.2087  0.3775 -0.5194
 3085TIP3   OH230669   5.038   3.554   3.822 -0.1822 -0.4893 -0.3364
 3085TIP3    H130670   5.000   3.612   3.756  0.3463 -0.6476 -0.7885
 3085TIP3    H230671   4.993   3.471   3.810  0.4057 -0.7220 -0.9772
 3086TIP3   OH230672   0.207   4.689   1.963  0.4310  0.6265  0.3689
 3086TIP3    H130673   0.211   4.685   1.868  1.5113  1.8045  0.3358
 3086TIP3    H230674   0.113   4.685   1.984  0.1643  0.7476 -0.7588
 3087TIP3   OH230675   3.029   6.319   3.524 -0.9256  0.7009  0.7201
 3087TIP3    H130676   2.940   6.320   3.488  0.2556 -0.2329 -2.4976
 3087TIP3    H230677   3.061   6.409   3.512 -0.6744  0.4876 -0.3144
 3088TIP3   OH230678   2.293   4.636   1.140 -0.0547 -0.7542 -0.6466
 3088TIP3    H130679   2.336   4.605   1.219 -0.0405 -0.1114 -0.3944
 3088TIP3    H230680   2.227   4.570   1.120 -0.4406 -0.6324  0.2239
 3089TIP3   OH230681   1.878   0.348  14.726 -0.1083 -0.0069  0.2132
 3089TIP3    H130682   1.804   0.336  14.786  0.0546  0.1394  0.4438
 3089TIP3    H230683   1.935   0.410  14.770  1.1499 -1.6128  0.9742
 3090TIP3   OH230684   1.715   4.243  15.894  0.2780  0.2242  0.2312
 3090TIP3    H130685   1.713   4.298  15.816  1.2119  0.4334  0.3381
 3090TIP3    H230686   1.626   4.211  15.904  0.4616 -1.1724 -1.9051
 3091TIP3   OH230687   3.171   4.120  14.587  0.1642  0.0401 -0.2041
 3091TIP3    H130688   3.219   4.180  14.644  0.7953  0.3507 -1.0440
 3091TIP3    H230689   3.168   4.164  14.503  0.6051 -1.0710 -0.8308
 3092TIP3   OH230690   6.776   6.742  12.280  0.0314  0.5060 -0.0331
 3092TIP3    H130691   6.845   6.685  12.245 -0.1762 -0.4523  1.0949
 3092TIP3    H230692   6.781   6.732  12.375 -0.9287  1.2994  0.1222
 3093TIP3   OH230693   3.015   5.570   0.007 -0.1584 -0.0453 -0.1120
 3093TIP3    H130694   2.962   5.532  -0.063 -0.0433  0.6784 -0.5977
 3093TIP3    H230695   3.026   5.661  -0.017  0.7431 -0.0183  0.3311
 3094TIP3   OH230696   5.559   3.358   4.199 -0.6315 -0.0171 -0.1272
 3094TIP3    H130697   5.622   3.393   4.262 -0.9684 -0.7688  0.6415
 3094TIP3    H230698   5.476   3.355   4.246 -0.5501 -2.1398 -0.0415
 3095TIP3   OH230699   5.638   3.934   1.346  0.1685  0.1540 -0.1098
 3095TIP3    H130700   5.701   3.876   1.388  0.0111  0.2166  0.2134
 3095TIP3    H230701   5.559   3.927   1.400  0.6785  2.0046  0.9495
 3096TIP3   OH230702   2.272   5.383  12.813  0.0108 -0.0219  0.5598
 3096TIP3    H130703   2.255   5.463  12.763 -1.2634 -0.4254  0.2898
 3096TIP3    H230704   2.263   5.313  12.749 -0.2313 -0.4593  1.0640
 3097TIP3   OH230705   3.145   1.143  11.368 -0.1287  0.2296  0.1344
 3097TIP3    H130706   3.240   1.134  11.365 -0.1278 -0.0968  0.9726
 3097TIP3    H230707   3.114   1.060  11.404 -0.6315  0.9006  1.2786
 3098TIP3   OH230708   0.999   1.893   4.366  0.1931 -0.1156  0.3435
 3098TIP3    H130709   1.021   1.857   4.452 -0.8203 -0.6866  0.3734
 3098TIP3    H230710   1.039   1.981   4.366 -1.7575  0.8627  2.3286
 3099TIP3   OH230711   4.038   1.945   6.315 -0.3498  0.2374  0.1817
 3099TIP3    H130712   4.020   2.008   6.384 -0.0407  2.3587 -1.5539
 3099TIP3    H230713   4.134   1.935   6.316 -0.3526  0.2017  0.1156
 3100TIP3   OH230714   4.671   4.235  13.426  0.2512 -0.2087 -0.3346
 3100TIP3    H130715   4.687   4.213  13.518  1.1223 -1.8192 -0.8397
 3100TIP3    H230716   4.733   4.306  13.408 -1.0545  1.2642  0.7297
 3101TIP3   OH230717   5.840   1.789  12.057 -0.1741  1.0785  0.4198
 3101TIP3    H130718   5.840   1.694  12.071  1.6772  1.0268  0.2689
 3101TIP3    H230719   5.858   1.826  12.144  1.8098  1.1469  0.0235
 3102TIP3   OH230720   3.414   2.690   1.299 -0.5084  0.3208 -0.2578
 3102TIP3    H130721   3.362   2.770   1.289 -0.7627  0.0669 -1.0515
 3102TIP3    H230722   3.353   2.625   1.333 -0.2236  0.5364  0.7045
 3103TIP3   OH230723   0.202   2.512   2.105  0.2895  0.1071  0.1711
 3103TIP3    H130724   0.225   2.473   2.020  0.6066 -1.6889  1.0358
 3103TIP3    H230725   0.263   2.585   2.115  1.0974 -0.4379 -0.5995
 3104TIP3   OH230726   6.689   2.147   0.814 -0.1381 -0.5066 -0.7474
 3104TIP3    H130727   6.679   2.058   0.780  0.5428 -0.9702  0.2371
 3104TIP3    H230728   6.608   2.163   0.863 -0.9430  0.0130 -2.1807
 3105TIP3   OH230729   6.645   0.322   5.599  0.0920 -0.5469 -0.2596
 3105TIP3    H130730   6.647   0.226   5.598 -0.2736 -0.5649  0.6246
 3105TIP3    H230731   6.645   0.346   5.691  0.0800  0.3096 -0.4707
 3106TIP3   OH230732   3.201   6.576   6.037 -0.2434 -0.3442  0.4263
 3106TIP3    H130733   3.212   6.525   5.957 -1.0417 -0.4233  0.3564
 3106TIP3    H230734   3.179   6.511   6.104  0.8015 -0.3244  0.8058
 3107TIP3   OH230735   3.109   1.063   5.679  0.0665  0.6479 -0.1858
 3107TIP3    H130736   3.139   0.972   5.678  0.9338  0.9197 -0.8508
 3107TIP3    H230737   3.085   1.080   5.770 -0.9382 -0.4934 -0.2188
 3108TIP3   OH230738   6.746   6.703  11.189  0.1796  0.0615  0.2070
 3108TIP3    H130739   6.825   6.649  11.187  0.1995 -0.0157  1.8811
 3108TIP3    H230740   6.756   6.762  11.114  1.6592 -0.1606  0.1915
 3109TIP3   OH230741   2.423   0.787   1.419 -0.0520 -0.6638 -0.5499
 3109TIP3    H130742   2.420   0.705   1.370 -0.4660  0.2594 -2.1373
 3109TIP3    H230743   2.486   0.841   1.372  0.0860 -0.0035  0.3702
 3110TIP3   OH230744   6.075   2.256   2.230 -0.4080  0.4453 -0.3522
 3110TIP3    H130745   6.100   2.202   2.304  0.5233  0.1444 -0.8791
 3110TIP3    H230746   6.003   2.310   2.263 -0.8681 -0.5898  0.3853
 3111TIP3   OH230747   1.964   1.832  16.847  0.8664 -0.1119  0.1014
 3111TIP3    H130748   1.937   1.753  16.800 -0.3228  0.5374 -0.3586
 3111TIP3    H230749   2.007   1.886  16.780  1.4878 -0.2768  0.3646
 3112TIP3   OH230750   6.770   4.465  14.619  0.3620 -0.8753 -0.5467
 3112TIP3    H130751   6.727   4.497  14.698  3.1092 -1.7959  1.4933
 3112TIP3    H230752   6.746   4.527  14.551  0.2700  1.7240  1.7192
 3113TIP3   OH230753   2.717   1.515   0.410 -0.4021  0.3538 -0.6294
 3113TIP3    H130754   2.682   1.426   0.401 -1.2835  0.7616 -1.4635
 3113TIP3    H230755   2.785   1.521   0.343 -1.1372  0.6643 -1.3648
 3114TIP3   OH230756   4.433   1.440  11.525  0.2872  0.0335 -0.7917
 3114TIP3    H130757   4.495   1.371  11.550  0.4844  0.7713  0.8835
 3114TIP3    H230758   4.480   1.522  11.541  0.0429  0.6088 -2.7104
 3115TIP3   OH230759   3.790   1.145  12.666  0.0054  0.2251  0.5869
 3115TIP3    H130760   3.802   1.052  12.648  1.2738  0.3479  0.7506
 3115TIP3    H230761   3.756   1.181  12.584  0.9885 -0.1108  0.0238
 3116TIP3   OH230762   1.198   1.444  12.915 -0.5796  0.0885 -0.1767
 3116TIP3    H130763   1.197   1.506  12.842  0.3153 -0.7682 -0.9471
 3116TIP3    H230764   1.184   1.358  12.874 -2.0526 -0.2298  0.8886
 3117TIP3   OH230765   6.636   3.133  13.037  0.3069 -0.2862  0.3303
 3117TIP3    H130766   6.707   3.152  13.098 -0.4433  0.9767  0.8630
 3117TIP3    H230767   6.563   3.107  13.093 -0.0493 -0.2366 -0.1050
 3118TIP3   OH230768   5.376   5.711  13.368 -0.1212 -0.1026 -0.1013
 3118TIP3    H130769   5.322   5.769  13.421  0.3540 -0.0064  0.2888
 3118TIP3    H230770   5.466   5.732  13.394  0.1197 -0.0294 -0.9676
 3119TIP3   OH230771   1.816   4.551  12.171 -0.0796 -0.1346 -0.1076
 3119TIP3    H130772   1.894   4.507  12.136 -0.6674 -0.3049 -1.2444
 3119TIP3    H230773   1.752   4.545  12.101 -0.9246  0.5482  0.5884
 3120TIP3   OH230774   1.820   5.825   0.723 -0.2747 -0.4311 -0.1008
 3120TIP3    H130775   1.909   5.859   0.712  0.4545 -1.9012  0.8703
 3120TIP3    H230776   1.803   5.834   0.817 -0.9031 -0.7228 -0.1819
 3121TIP3   OH230777   0.414   2.483  14.238  0.1941  0.1315  0.0657
 3121TIP3    H130778   0.327   2.446  14.256 -0.1082  1.0855  0.6055
 3121TIP3    H230779   0.407   2.575  14.263  1.3550  0.2307  0.0803
 3122TIP3   OH230780   3.614   0.221   6.144  0.6025 -0.5979  0.7815
 3122TIP3    H130781   3.679   0.159   6.179  1.9467  0.2468 -0.1437
 3122TIP3    H230782   3.580   0.266   6.222  0.5492 -1.5860  1.3465
 3123TIP3   OH230783   2.601   5.330   4.205  0.0640  0.8646  0.5477
 3123TIP3    H130784   2.655   5.289   4.272 -0.7449  1.4761  1.6031
 3123TIP3    H230785   2.563   5.407   4.248 -1.6372  0.4677 -0.1528
 3124TIP3   OH230786   1.580   5.555  12.634 -0.0137  0.1539 -0.1045
 3124TIP3    H130787   1.597   5.477  12.685  0.3513  0.5332  0.3619
 3124TIP3    H230788   1.490   5.580  12.656  0.2396  0.4747  0.5622
 3125TIP3   OH230789   4.825   0.033  14.319 -0.0495  0.5397  0.4711
 3125TIP3    H130790   4.742  -0.004  14.348 -0.6992  1.5526 -0.0401
 3125TIP3    H230791   4.802   0.088  14.244  1.2032  0.1525 -0.2205
 3126TIP3   OH230792   2.693   2.327   3.882  0.1948  0.3678 -0.3504
 3126TIP3    H130793   2.697   2.257   3.948  0.8149  0.3511 -0.4013
 3126TIP3    H230794   2.721   2.405   3.928 -0.8254  0.6633 -0.2048
 3127TIP3   OH230795   0.427   1.792   1.433  0.7171  0.2803 -0.4136
 3127TIP3    H130796   0.438   1.722   1.368 -2.5852  0.0089 -0.8377
 3127TIP3    H230797   0.418   1.871   1.381 -2.9090 -0.0568 -0.5439
 3128TIP3   OH230798   0.859   2.865  13.816 -0.4120  0.2089 -0.1234
 3128TIP3    H130799   0.905   2.949  13.816 -0.3955  0.2146  0.9812
 3128TIP3    H230800   0.850   2.842  13.908  1.1596 -1.8597 -0.3961
 3129TIP3   OH230801   0.765   6.541  11.838  0.1045 -0.0390 -0.0703
 3129TIP3    H130802   0.831   6.534  11.768  0.0283  0.2890 -0.1739
 3129TIP3    H230803   0.816   6.542  11.919  0.1580 -1.3978 -0.0517
 3130TIP3   OH230804   3.214   6.794  12.027 -0.2156  0.2043 -0.2886
 3130TIP3    H130805   3.283   6.797  11.961  2.4169  2.0341  2.3062
 3130TIP3    H230806   3.162   6.873  12.012 -1.6628 -0.9748 -1.9927
 3131TIP3   OH230807   2.266   3.035   5.481  0.3279 -0.0116 -0.2071
 3131TIP3    H130808   2.295   3.091   5.553  1.2390 -1.9706  1.0546
 3131TIP3    H230809   2.346   3.006   5.439  0.2477 -3.1576  1.4770
 3132TIP3   OH230810   6.066   5.470   2.338 -0.0276 -0.4252  0.2731
 3132TIP3    H130811   6.012   5.479   2.417  0.1615 -3.0555  0.7766
 3132TIP3    H230812   6.130   5.403   2.360  1.4458  0.3367 -1.4230
 3133TIP3   OH230813   1.962   6.616   0.109 -0.5178  0.4542 -0.6618
 3133TIP3    H130814   1.995   6.701   0.079 -1.7636  0.7399 -1.2901
 3133TIP3    H230815   1.995   6.607   0.198  0.9317  0.8758 -1.1238
 3134TIP3   OH230816   0.441   0.363  12.001  0.5995  0.8921  0.0920
 3134TIP3    H130817   0.481   0.370  11.914  0.1937 -0.9622 -0.2934
 3134TIP3    H230818   0.516   0.363  12.062  1.2568 -1.9717 -0.5844
 3135TIP3   OH230819   2.122   2.663  16.583 -0.3912  0.8101  0.5213
 3135TIP3    H130820   2.076   2.651  16.500 -0.8995  1.1368  0.7541
 3135TIP3    H230821   2.062   2.714  16.637  0.6073  2.0186  0.5285
 3136TIP3   OH230822   0.342   3.966   4.605  0.0241  0.1481 -0.6942
 3136TIP3    H130823   0.384   3.890   4.645 -2.2603 -0.9090 -0.1040
 3136TIP3    H230824   0.365   4.039   4.662 -1.2206 -0.9215  1.2973
 3137TIP3   OH230825   3.719   5.390   3.143  0.5270 -0.3525 -0.4364
 3137TIP3    H130826   3.644   5.362   3.090 -0.5247 -2.0126  1.7911
 3137TIP3    H230827   3.752   5.467   3.098 -2.7523  0.6999 -1.3188
 3138TIP3   OH230828   1.179   0.553   3.663  0.3075  0.3465  0.0261
 3138TIP3    H130829   1.209   0.467   3.635  1.4697  0.8479 -0.3533
 3138TIP3    H230830   1.145   0.539   3.751 -2.1843 -1.0145 -1.0579
 3139TIP3   OH230831   3.458   5.717  16.892  0.2270 -0.5431  0.3550
 3139TIP3    H130832   3.407   5.737  16.970 -0.8523  1.7376 -0.8428
 3139TIP3    H230833   3.523   5.787  16.887 -0.6620  0.2078 -1.5176
 3140TIP3   OH230834   2.810   0.050   3.628 -0.1688 -0.3788  0.0098
 3140TIP3    H130835   2.835   0.081   3.541  0.8683 -1.0561  0.0396
 3140TIP3    H230836   2.839   0.118   3.688  1.4985 -1.0517  0.0227
 3141TIP3   OH230837   3.981   1.644  16.340  0.2601  0.4219  0.1349
 3141TIP3    H130838   3.954   1.555  16.359  3.4941 -1.5665 -3.2512
 3141TIP3    H230839   3.943   1.663  16.254 -1.1067  2.7825  1.1581
 3142TIP3   OH230840   6.372   2.408  16.273 -0.2132  0.2622  0.3146
 3142TIP3    H130841   6.342   2.372  16.190  0.0983 -0.6892  0.6098
 3142TIP3    H230842   6.319   2.364  16.339  1.7887 -1.4988  0.8607
 3143TIP3   OH230843   3.046   3.511  10.643 -0.3895  0.3919 -0.0706
 3143TIP3    H130844   3.047   3.589  10.699  0.9874  0.3256  0.0332
 3143TIP3    H230845   3.064   3.439  10.703 -0.0561  0.1857 -0.4150
 3144TIP3   OH230846   0.805   3.092  14.375  0.0306  0.1767  0.1248
 3144TIP3    H130847   0.798   3.183  14.345  2.1935  0.6277  0.7853
 3144TIP3    H230848   0.747   3.043  14.317  0.7379  1.6200 -1.9481
 3145TIP3   OH230849   5.437   6.557   2.751  0.1253  0.2221 -0.6945
 3145TIP3    H130850   5.404   6.531   2.836 -1.3240 -0.6105 -1.4755
 3145TIP3    H230851   5.529   6.530   2.752 -0.2404 -1.0763  0.0889
 3146TIP3   OH230852   5.375   6.481  13.871 -0.7885  0.0339  0.2200
 3146TIP3    H130853   5.347   6.544  13.805 -0.3635 -0.8526 -0.8368
 3146TIP3    H230854   5.294   6.438  13.898 -0.8696 -0.1492 -0.3091
 3147TIP3   OH230855   0.546   4.952   6.145 -0.5155  0.2273  0.6636
 3147TIP3    H130856   0.636   4.937   6.174 -0.2717 -0.3749 -0.3412
 3147TIP3    H230857   0.525   5.041   6.175  0.5220  0.4897  0.6356
 3148TIP3   OH230858   6.002   3.214  15.238 -0.2811  0.1450 -0.0019
 3148TIP3    H130859   6.000   3.303  15.274  1.8180  0.6407 -1.0205
 3148TIP3    H230860   5.975   3.225  15.147  1.0886 -0.0596 -0.4484
 3149TIP3   OH230861   5.423   3.224   3.747  0.8161 -0.2456  0.2346
 3149TIP3    H130862   5.438   3.210   3.840  0.7377 -0.8107  0.1667
 3149TIP3    H230863   5.351   3.287   3.743  1.2254  0.2508  0.5528
 3150TIP3   OH230864   5.807   3.061  17.072 -0.3167 -0.1160  0.2516
 3150TIP3    H130865   5.762   3.024  16.997 -0.2494 -1.1655  0.7096
 3150TIP3    H230866   5.889   3.012  17.078  0.1064  0.6007  0.4503
 3151TIP3   OH230867   4.477   0.417  13.161  0.4977  0.1303 -0.0532
 3151TIP3    H130868   4.414   0.483  13.132  0.2460 -0.7048 -1.4942
 3151TIP3    H230869   4.551   0.426  13.101  1.0154 -0.0667  0.5374
 3152TIP3   OH230870   3.570   3.790  15.413 -0.3007  0.1593  0.1752
 3152TIP3    H130871   3.620   3.792  15.332 -0.5129 -0.6092  0.0184
 3152TIP3    H230872   3.513   3.867  15.408 -1.1454 -0.5267 -0.9461
 3153TIP3   OH230873   2.651   2.877  12.776 -0.6872 -0.5597  0.0870
 3153TIP3    H130874   2.726   2.829  12.810 -1.0751 -1.1385  0.1472
 3153TIP3    H230875   2.645   2.850  12.684 -0.2217  0.2627 -0.2013
 3154TIP3   OH230876   1.964   3.102  16.133  0.0771  0.0021 -0.0478
 3154TIP3    H130877   1.976   3.191  16.164  0.6188 -0.1694  0.2567
 3154TIP3    H230878   1.874   3.099  16.101 -0.0647  0.5497  0.2893
 3155TIP3   OH230879   3.070   6.359  15.525 -0.2879  0.0076  0.2724
 3155TIP3    H130880   3.053   6.335  15.434 -1.7534 -0.2011  0.5698
 3155TIP3    H230881   2.995   6.323  15.573  0.6043 -0.1220  1.5994
 3156TIP3   OH230882   5.746   4.811   5.511  0.7173 -0.0026  0.2684
 3156TIP3    H130883   5.745   4.735   5.569  2.9968 -0.7108 -0.5174
 3156TIP3    H230884   5.825   4.859   5.537 -0.0138  1.4383 -0.0935
 3157TIP3   OH230885   4.972   0.619  14.899  0.6288 -0.2539 -0.2569
 3157TIP3    H130886   4.956   0.531  14.935 -0.1556  0.5702  1.5002
 3157TIP3    H230887   4.945   0.611  14.807 -0.4041 -1.5950  0.1189
 3158TIP3   OH230888   5.568   5.881   3.297 -0.5881 -0.3777  0.2587
 3158TIP3    H130889   5.552   5.840   3.212  1.5636 -2.3693  0.7001
 3158TIP3    H230890   5.606   5.966   3.276 -1.4067 -0.2336 -0.7303
 3159TIP3   OH230891   2.329   1.470  17.063  0.2793  0.0838  0.7749
 3159TIP3    H130892   2.395   1.446  17.128 -0.1298 -0.4590  0.9976
 3159TIP3    H230893   2.277   1.390  17.050  1.1555 -0.2295 -1.1890
 3160TIP3   OH230894   2.953   3.894  16.395 -0.0110 -0.0974 -0.2548
 3160TIP3    H130895   2.895   3.970  16.399  0.6180  0.3998 -0.4434
 3160TIP3    H230896   2.974   3.885  16.302 -0.2639 -0.6488 -0.2623
 3161TIP3   OH230897   4.358   4.088   5.659 -0.4109  1.2307  0.2731
 3161TIP3    H130898   4.390   4.025   5.594  1.2514  1.4491  0.8377
 3161TIP3    H230899   4.286   4.133   5.615 -0.0456  0.6128 -1.0104
 3162TIP3   OH230900   2.561   6.621   3.589  0.1613 -0.1882 -0.1670
 3162TIP3    H130901   2.651   6.626   3.622  0.1646 -1.6087  0.1137
 3162TIP3    H230902   2.564   6.555   3.520 -0.8086 -0.9402  0.4668
 3163TIP3   OH230903   2.881   6.797   5.489  0.1548 -0.2085 -0.2855
 3163TIP3    H130904   2.950   6.823   5.427  1.3763  0.1536  1.1632
 3163TIP3    H230905   2.810   6.767   5.433  1.5848 -0.8888 -1.8600
 3164TIP3   OH230906   1.125   2.008   0.522 -0.4466 -0.2367  0.2078
 3164TIP3    H130907   1.192   1.975   0.582  0.5935 -0.6725 -1.1531
 3164TIP3    H230908   1.175   2.045   0.449 -1.6626  1.1255  0.0228
 3165TIP3   OH230909   3.248   3.634   5.509 -0.3998  0.4266  0.3358
 3165TIP3    H130910   3.166   3.656   5.465  0.6290  1.2322 -1.2763
 3165TIP3    H230911   3.241   3.675   5.595 -1.4645  0.9152  0.0337
 3166TIP3   OH230912   6.740   6.371   1.925 -0.3231  0.1471  0.4211
 3166TIP3    H130913   6.762   6.299   1.866 -2.1940  0.3190 -0.5799
 3166TIP3    H230914   6.650   6.394   1.902 -0.2383  1.9205  1.6312
 3167TIP3   OH230915   1.291   4.401  15.908 -0.4478  0.3540 -0.2397
 3167TIP3    H130916   1.209   4.423  15.865 -0.6472  1.4131  0.6566
 3167TIP3    H230917   1.289   4.449  15.991  0.1425 -1.2347  0.7408
 3168TIP3   OH230918   2.417   3.216  11.638  0.3399  0.6011 -0.1224
 3168TIP3    H130919   2.500   3.196  11.596  0.7929  2.3347 -0.1132
 3168TIP3    H230920   2.439   3.226  11.731 -0.3416 -1.3896  0.3032
 3169TIP3   OH230921   3.052   2.472   4.057  0.6614 -0.1193  0.0915
 3169TIP3    H130922   3.116   2.402   4.043  1.1314  0.7953 -3.0638
 3169TIP3    H230923   3.077   2.540   3.994 -0.6345  2.3149  2.0595
 3170TIP3   OH230924   0.630   5.521   1.296 -0.6549  0.1660 -0.2688
 3170TIP3    H130925   0.684   5.536   1.374 -1.8837 -0.5945  0.7790
 3170TIP3    H230926   0.648   5.430   1.272 -1.4168 -0.0705  0.0508
 3171TIP3   OH230927   4.283   2.086  10.632  0.1077  0.9069 -0.4537
 3171TIP3    H130928   4.374   2.070  10.658  0.3958  0.5591 -1.6022
 3171TIP3    H230929   4.285   2.173  10.591  0.3204  0.1347 -2.1571
 3172TIP3   OH230930   4.607   0.314  13.463  0.4099 -0.0424  0.3125
 3172TIP3    H130931   4.619   0.226  13.496  1.1055 -0.3502 -0.7069
 3172TIP3    H230932   4.691   0.357  13.477  0.2761  0.2570  0.2261
 3173TIP3   OH230933   3.777   5.027  14.929  0.4342  0.1033 -0.1342
 3173TIP3    H130934   3.722   5.004  14.854 -2.0666 -1.5351  2.0484
 3173TIP3    H230935   3.867   5.009  14.899 -0.6113 -2.3844 -2.1198
 3174TIP3   OH230936   4.967   0.226  13.659 -0.8611 -0.5487 -0.1117
 3174TIP3    H130937   5.014   0.143  13.649  0.1688  0.0385 -0.2277
 3174TIP3    H230938   5.000   0.263  13.740 -0.6044  0.2071 -0.5588
 3175TIP3   OH230939   1.630   5.039  13.628 -0.5688  0.0816  0.2167
 3175TIP3    H130940   1.701   5.086  13.671 -0.3282 -1.9866  2.2942
 3175TIP3    H230941   1.646   5.050  13.535  2.0311  0.3473  0.6315
 3176TIP3   OH230942   2.125   5.084   2.894  0.0122 -0.1206  0.8186
 3176TIP3    H130943   2.203   5.134   2.872 -2.1264  2.5926 -1.4019
 3176TIP3    H230944   2.085   5.134   2.966  0.5001 -1.7773  2.3018
 3177TIP3   OH230945   2.271   6.397   0.192  0.4877 -0.3421  0.3509
 3177TIP3    H130946   2.314   6.334   0.251  1.8200 -0.0285 -0.2469
 3177TIP3    H230947   2.343   6.446   0.153 -0.4513  0.4371 -0.4512
 3178TIP3   OH230948   6.167   0.050  14.167 -0.1076 -0.0916 -0.3189
 3178TIP3    H130949   6.200  -0.036  14.195 -2.3256 -0.8861  0.0138
 3178TIP3    H230950   6.117   0.082  14.242 -2.9363 -0.5302 -1.8714
 3179TIP3   OH230951   3.752   2.592   5.158 -0.1667 -0.0145  0.3971
 3179TIP3    H130952   3.686   2.589   5.227 -0.0566  1.5805  0.6011
 3179TIP3    H230953   3.824   2.643   5.196  0.5768 -0.4931 -0.3395
 3180TIP3   OH230954   4.291   2.676   6.280 -0.1974 -0.0889 -0.1727
 3180TIP3    H130955   4.371   2.689   6.229 -0.8563 -1.1095 -1.5025
 3180TIP3    H230956   4.316   2.699   6.370  2.1568 -2.2683 -0.1734
 3181TIP3   OH230957   4.049   0.335   1.227  0.1922 -0.5287 -0.4518
 3181TIP3    H130958   4.098   0.296   1.154  0.7228 -1.0747  0.1749
 3181TIP3    H230959   4.035   0.261   1.287  2.6848  0.4965  1.5794
 3182TIP3   OH230960   4.648   6.756  16.522 -0.1079  0.1266 -0.1530
 3182TIP3    H130961   4.673   6.821  16.456  0.2782 -0.9294 -1.0834
 3182TIP3    H230962   4.643   6.674  16.473  0.8842 -0.8214  1.2715
 3183TIP3   OH230963   3.044   3.930  12.997  0.3217 -0.2970 -0.3433
 3183TIP3    H130964   3.115   3.881  13.040 -1.8169 -2.2733  1.1864
 3183TIP3    H230965   2.975   3.865  12.984 -0.2643  0.8735 -4.3685
 3184TIP3   OH230966   6.596   0.700  10.224  0.0854  0.0591  0.1147
 3184TIP3    H130967   6.677   0.649  10.232 -0.0542 -0.3265 -0.9025
 3184TIP3    H230968   6.526   0.637  10.241 -0.1228 -0.2937 -1.9031
 3185TIP3   OH230969   5.000   6.751  15.869 -0.1257  0.2426 -0.0838
 3185TIP3    H130970   5.018   6.757  15.775  1.6113  2.3341  0.3044
 3185TIP3    H230971   5.055   6.679  15.899 -0.8743 -0.6022 -0.6555
 3186TIP3   OH230972   6.149   6.467   4.506  0.2937 -0.9118 -0.4588
 3186TIP3    H130973   6.154   6.545   4.563  0.4229 -1.9822  1.0495
 3186TIP3    H230974   6.069   6.480   4.456  0.8216  0.6665 -0.9804
 3187TIP3   OH230975   5.706   3.537  11.093 -0.2006  0.5507  0.2080
 3187TIP3    H130976   5.619   3.524  11.056  0.0365  1.2613 -0.6169
 3187TIP3    H230977   5.764   3.542  11.017  0.2997  2.0070  0.6674
 3188TIP3   OH230978   5.271   3.787  13.590  0.4085  0.1205  0.0738
 3188TIP3    H130979   5.199   3.821  13.536  0.8470 -0.6987 -1.0616
 3188TIP3    H230980   5.345   3.843  13.566  0.7580 -0.6410 -0.6686
 3189TIP3   OH230981   3.893   3.066   4.023  0.3119  0.5666  0.3089
 3189TIP3    H130982   3.886   3.133   4.091 -1.6325  1.0942 -0.3389
 3189TIP3    H230983   3.864   3.110   3.943 -0.3359 -0.8451 -0.2704
 3190TIP3   OH230984   1.725   5.019  10.523 -0.3185 -0.0674 -0.4815
 3190TIP3    H130985   1.659   5.054  10.463  1.3780  1.6104 -1.4752
 3190TIP3    H230986   1.767   5.096  10.560  0.6114 -1.0956  0.6942
 3191TIP3   OH230987   4.204   6.593  11.351 -0.1601  0.6549 -0.5435
 3191TIP3    H130988   4.113   6.619  11.333 -0.1514  0.6452 -0.6037
 3191TIP3    H230989   4.201   6.497  11.350 -0.3031  0.6462  0.2371
 3192TIP3   OH230990   1.830   0.133  12.097  0.2580  0.3604 -0.1717
 3192TIP3    H130991   1.783   0.097  12.173  0.4254 -0.4484 -0.4364
 3192TIP3    H230992   1.789   0.218  12.081  1.1844  1.2378  1.7342
 3193TIP3   OH230993   5.246   3.379  12.352  0.9422 -0.3638 -0.4600
 3193TIP3    H130994   5.197   3.330  12.285 -0.4544  0.1602  0.1420
 3193TIP3    H230995   5.298   3.313  12.397  0.6082 -0.9763 -0.9567
 3194TIP3   OH230996   4.509   1.772   6.250 -0.7334 -0.3573  0.2289
 3194TIP3    H130997   4.578   1.744   6.311 -0.0368 -0.5508 -0.6238
 3194TIP3    H230998   4.539   1.858   6.218  0.3787 -1.4805 -1.9646
 3195TIP3   OH230999   0.032   1.654  16.831 -0.3096 -0.3941 -0.0288
 3195TIP3    H131000  -0.038   1.591  16.849 -0.0576 -0.6733 -0.0209
 3195TIP3    H231001   0.072   1.670  16.917  0.2410 -0.9530 -0.1744
 3196TIP3   OH231002   4.044   5.911  16.760  0.4421 -0.4290 -0.2622
 3196TIP3    H131003   3.962   5.872  16.791  2.6656 -3.6890  2.1366
 3196TIP3    H231004   4.063   5.979  16.824 -0.2544  0.2781 -0.7757
 3197TIP3   OH231005   4.854   4.812   2.589 -0.2436  0.3056 -0.8424
 3197TIP3    H131006   4.870   4.881   2.654 -0.3394 -0.1359 -0.3492
 3197TIP3    H231007   4.822   4.859   2.512  1.2226  0.9902 -1.0730
 3198TIP3   OH231008   0.373   1.296  15.687 -0.2936 -0.3789  0.8378
 3198TIP3    H131009   0.336   1.300  15.598  1.8969  2.4454 -0.1066
 3198TIP3    H231010   0.443   1.231  15.681  0.6688  0.6781  0.0505
 3199TIP3   OH231011   3.952   2.813  15.372  0.1964  0.0796 -0.1175
 3199TIP3    H131012   3.927   2.786  15.284  0.4228 -0.3129 -0.0647
 3199TIP3    H231013   3.993   2.899  15.360 -0.8917  0.5887 -0.2374
 3200TIP3   OH231014   0.262   1.100  12.372 -0.7577  0.8849  0.0213
 3200TIP3    H131015   0.290   1.009  12.385 -0.8615  0.4554 -2.2567
 3200TIP3    H231016   0.200   1.117  12.443  0.8786 -0.0564  1.7737
 3201TIP3   OH231017   3.121   3.541  12.978  0.4979  0.5820 -0.6347
 3201TIP3    H131018   3.052   3.500  13.031  0.9507 -0.5829 -0.9262
 3201TIP3    H231019   3.074   3.580  12.905  0.1011  0.0970 -0.6464
 3202TIP3   OH231020   2.317   1.068   5.905  0.3652 -0.5992 -0.4429
 3202TIP3    H131021   2.374   1.005   5.861  0.2371 -0.4716 -0.7989
 3202TIP3    H231022   2.231   1.055   5.864 -0.2957 -1.9629  1.2514
 3203TIP3   OH231023   3.827   3.540   1.340  0.1350  0.2489 -0.0804
 3203TIP3    H131024   3.800   3.603   1.274  3.1897  1.0308 -0.7160
 3203TIP3    H231025   3.826   3.456   1.294  0.5226  0.5284 -0.6078
 3204TIP3   OH231026   0.325   6.792   4.633 -0.0516 -0.3595  0.4140
 3204TIP3    H131027   0.233   6.767   4.645  0.0307 -0.3233  1.1480
 3204TIP3    H231028   0.337   6.869   4.689  0.2506  0.0668 -0.2156
 3205TIP3   OH231029   1.958   5.945   4.412 -0.4126 -0.1536  0.4388
 3205TIP3    H131030   2.013   6.019   4.386 -0.2841 -0.9491 -1.7635
 3205TIP3    H231031   1.869   5.981   4.415 -0.2051  0.3545  0.6295
 3206TIP3   OH231032   1.051   1.155  16.295  0.3258  0.4869 -0.0225
 3206TIP3    H131033   1.134   1.157  16.248 -0.1372  2.5194 -0.8579
 3206TIP3    H231034   1.065   1.213  16.370 -0.0332  0.0232  0.4091
 3207TIP3   OH231035   0.572   1.703   6.708 -0.3786 -0.4880  0.2018
 3207TIP3    H131036   0.566   1.798   6.715  1.1410 -0.2428 -1.1103
 3207TIP3    H231037   0.662   1.683   6.730  0.2862 -1.1959 -2.7049
 3208TIP3   OH231038   4.892   5.458  12.056 -0.4584  0.3582 -0.1081
 3208TIP3    H131039   4.803   5.494  12.048 -0.7692 -0.0837  1.2765
 3208TIP3    H231040   4.888   5.375  12.008 -0.3498  1.0437 -1.3669
 3209TIP3   OH231041   4.670   0.668  15.784  0.3054 -0.0704  0.6641
 3209TIP3    H131042   4.681   0.574  15.775 -0.1859  0.0355 -1.3919
 3209TIP3    H231043   4.649   0.681  15.877 -0.4542 -2.0700  0.8148
 3210TIP3   OH231044   2.507   2.859  16.096 -0.1805  0.0613 -0.3197
 3210TIP3    H131045   2.433   2.811  16.134 -0.6358 -0.2079 -1.4883
 3210TIP3    H231046   2.584   2.809  16.123 -0.5781 -0.7717 -0.6999
 3211TIP3   OH231047   1.523   2.432  11.945 -0.3192  0.0252 -0.1379
 3211TIP3    H131048   1.504   2.437  11.852 -1.3434  0.8170  0.0979
 3211TIP3    H231049   1.598   2.372  11.951 -0.9669 -0.9570 -1.3623
 3212TIP3   OH231050   5.709   6.669  13.668  0.1264 -0.1659 -0.4259
 3212TIP3    H131051   5.750   6.736  13.723 -1.9076  1.4065 -0.7339
 3212TIP3    H231052   5.689   6.598  13.728 -2.0001  1.4854  0.9579
 3213TIP3   OH231053   3.713   1.828  14.281 -0.2329  0.5538  0.0919
 3213TIP3    H131054   3.739   1.890  14.213  0.1160  1.3843  0.9601
 3213TIP3    H231055   3.638   1.781  14.244  1.1161 -0.3787 -1.6244
 3214TIP3   OH231056   6.112   0.618  16.101 -0.4835 -0.2208 -0.4622
 3214TIP3    H131057   6.092   0.557  16.172  0.8511 -1.4881 -1.1074
 3214TIP3    H231058   6.110   0.704  16.142  0.1167 -0.9072  1.0901
 3215TIP3   OH231059   4.170   6.628   3.473 -0.3962  0.1456 -0.2898
 3215TIP3    H131060   4.081   6.653   3.447 -0.5198 -0.2564 -0.2614
 3215TIP3    H231061   4.226   6.696   3.435 -0.9227  1.9309  1.9135
 3216TIP3   OH231062   3.719   2.847   0.262  0.7333  0.1111 -0.0425
 3216TIP3    H131063   3.766   2.836   0.344 -0.1598  1.5142  0.7033
 3216TIP3    H231064   3.782   2.889   0.203  0.5289  1.8444  0.9029
 3217TIP3   OH231065   3.392   0.523  13.916  0.1465  1.1080 -0.0946
 3217TIP3    H131066   3.376   0.490  14.005  2.6357  1.2520  0.4842
 3217TIP3    H231067   3.384   0.445  13.861 -4.2970  1.4651 -0.3101
 3218TIP3   OH231068   3.243   0.051  14.061 -0.4551  0.5420  0.2265
 3218TIP3    H131069   3.246   0.099  14.144  0.7436  1.3790 -0.2668
 3218TIP3    H231070   3.318   0.086  14.011  0.5380 -1.9088 -0.1223
 3219TIP3   OH231071   3.791   4.161  11.339 -0.3524  0.8548  0.3618
 3219TIP3    H131072   3.877   4.184  11.305  0.0452  0.9919  1.4013
 3219TIP3    H231073   3.765   4.083  11.290 -0.1813  1.5070 -0.7915
 3220TIP3   OH231074   1.686   6.641  13.792  0.2354 -0.1121 -0.0312
 3220TIP3    H131075   1.634   6.562  13.803  0.2599 -0.0157  0.8674
 3220TIP3    H231076   1.720   6.660  13.880  1.5073  0.0144 -0.5324
 3221TIP3   OH231077   2.725   5.057  15.667 -0.2537 -0.3180  0.2386
 3221TIP3    H131078   2.775   5.094  15.740 -0.8197  0.9852 -0.0153
 3221TIP3    H231079   2.671   5.129  15.636 -1.4726 -1.4010 -0.2193
 3222TIP3   OH231080   5.580   1.918   5.819 -0.3531  0.1402 -0.3131
 3222TIP3    H131081   5.512   1.886   5.878  0.0619  0.3142  0.2665
 3222TIP3    H231082   5.542   1.998   5.780 -0.5722  0.1000 -0.1851
 3223TIP3   OH231083   4.669   1.636   2.858 -0.6020  0.2401 -0.2860
 3223TIP3    H131084   4.708   1.667   2.776 -0.4817  1.0844  0.0722
 3223TIP3    H231085   4.586   1.684   2.863 -0.7241  0.0016 -0.0413
 3224TIP3   OH231086   6.355   5.480  13.555 -0.0432  0.7197 -0.5957
 3224TIP3    H131087   6.337   5.573  13.544  0.2378  0.7291 -1.0014
 3224TIP3    H231088   6.272   5.437  13.533 -0.6391  0.9360  1.0800
 3225TIP3   OH231089   1.191   0.486   2.017  0.3443 -0.0200 -0.6713
 3225TIP3    H131090   1.129   0.485   2.089  1.8402 -0.9018  0.6704
 3225TIP3    H231091   1.154   0.427   1.951 -0.7519  0.3374 -0.3867
 3226TIP3   OH231092   3.190   2.427   3.450 -0.3165 -0.4433 -0.1018
 3226TIP3    H131093   3.212   2.496   3.387  0.5295  0.1307  0.7967
 3226TIP3    H231094   3.187   2.472   3.534 -2.3095 -1.0262  0.1837
 3227TIP3   OH231095   3.940   1.611   1.666 -0.7656  0.1933  0.5757
 3227TIP3    H131096   3.946   1.522   1.701  0.1574  0.5877  1.4568
 3227TIP3    H231097   3.857   1.611   1.617 -0.0093 -1.6163 -0.8536
 3228TIP3   OH231098   6.676   4.479   3.693 -0.2721  0.4587  0.2430
 3228TIP3    H131099   6.730   4.545   3.650  0.6505 -1.5156 -1.8119
 3228TIP3    H231100   6.738   4.412   3.723 -1.3995 -1.0510 -0.6607
 3229TIP3   OH231101   2.222   3.006  11.675 -0.0352 -0.0681  0.1816
 3229TIP3    H131102   2.202   2.973  11.587  1.4186 -1.5404  0.3686
 3229TIP3    H231103   2.280   3.081  11.659  0.2224 -0.3273 -0.1050
 3230TIP3   OH231104   5.646   5.369  11.121  0.1932 -0.1978 -0.1708
 3230TIP3    H131105   5.706   5.314  11.170  0.3632 -0.0757 -0.2387
 3230TIP3    H231106   5.559   5.336  11.142  0.2856 -0.3839 -0.0819
 3231TIP3   OH231107   5.872   6.586  16.489 -0.2418 -0.0332 -0.4745
 3231TIP3    H131108   5.914   6.586  16.575  2.1910 -0.0737 -1.5708
 3231TIP3    H231109   5.788   6.542  16.502  0.7521 -1.4599  1.5589
 3232TIP3   OH231110   3.031   1.507  15.914 -0.1316 -0.1066  0.1459
 3232TIP3    H131111   2.979   1.549  15.982 -1.1630  0.6369 -1.0502
 3232TIP3    H231112   2.974   1.439  15.878  0.3707 -0.4467 -0.0274
 3233TIP3   OH231113   2.388   2.094   5.500  0.4011 -0.5125  0.1937
 3233TIP3    H131114   2.442   2.135   5.568  1.3294 -0.4528 -0.5541
 3233TIP3    H231115   2.355   2.168   5.449  2.6050 -0.6332 -1.5541
 3234TIP3   OH231116   4.254   5.576   2.207 -0.1257 -0.4033 -0.0860
 3234TIP3    H131117   4.224   5.539   2.290  1.7139 -1.6465  0.0970
 3234TIP3    H231118   4.297   5.658   2.232  0.5340 -0.8368  0.2178
 3235TIP3   OH231119   5.239   3.450  11.725 -0.1430  0.1902  0.1829
 3235TIP3    H131120   5.217   3.383  11.661  0.3045 -0.2287  0.4609
 3235TIP3    H231121   5.245   3.403  11.808 -0.3859  0.6704  0.4808
 3236TIP3   OH231122   5.845   3.321   1.383  0.4697  0.2407  0.1876
 3236TIP3    H131123   5.770   3.343   1.439  0.0431 -1.0061  0.1437
 3236TIP3    H231124   5.910   3.387   1.404  0.5725 -0.5216  2.6799
 3237TIP3   OH231125   0.538   4.215   1.196 -0.3898  0.0240  0.0064
 3237TIP3    H131126   0.594   4.279   1.240 -1.6102  2.0717 -1.2663
 3237TIP3    H231127   0.449   4.250   1.207 -1.1702 -1.7332 -0.3338
 3238TIP3   OH231128   1.056   6.301  16.155 -0.7833 -0.2690 -0.0294
 3238TIP3    H131129   0.962   6.319  16.157 -0.9480 -0.8152 -1.5188
 3238TIP3    H231130   1.080   6.286  16.246 -2.2131 -0.4635  0.3308
 3239TIP3   OH231131   1.837   4.245  10.412 -0.0995  0.6330 -0.0432
 3239TIP3    H131132   1.827   4.250  10.507 -1.3232 -0.7242 -0.0742
 3239TIP3    H231133   1.763   4.296  10.377 -0.5377 -0.1339 -0.2558
 3240TIP3   OH231134   6.194   5.010   1.591 -0.6000 -0.0044 -0.3780
 3240TIP3    H131135   6.198   5.091   1.642 -1.1260 -0.3105  0.1617
 3240TIP3    H231136   6.201   4.940   1.657  1.3246 -0.4153 -0.9478
 3241TIP3   OH231137   5.743   3.567   1.199 -0.0664  0.3631  0.6195
 3241TIP3    H131138   5.774   3.645   1.154 -1.2937  1.6211  1.8633
 3241TIP3    H231139   5.736   3.501   1.129  0.0449  1.6343 -0.6437
 3242TIP3   OH231140   5.863   0.216   3.089  0.4862  0.4033  0.3513
 3242TIP3    H131141   5.832   0.260   3.169 -0.2997  0.5560 -0.0285
 3242TIP3    H231142   5.791   0.158   3.064  1.6815 -1.4845  1.0984
 3243TIP3   OH231143   2.761   2.411  15.829  0.0325  0.2766 -0.2031
 3243TIP3    H131144   2.737   2.362  15.750  0.8605  0.5502 -0.6404
 3243TIP3    H231145   2.707   2.490  15.825  0.4495  0.5391 -0.7787
 3244TIP3   OH231146   0.814   1.675  15.754  0.0975 -0.3685  0.0807
 3244TIP3    H131147   0.792   1.674  15.661 -0.7718  2.7588  0.1538
 3244TIP3    H231148   0.894   1.726  15.759 -0.6163  0.6957  1.1388
 3245TIP3   OH231149   2.821   4.895  12.371 -0.2314 -0.0709 -0.2451
 3245TIP3    H131150   2.821   4.986  12.399  0.2159 -0.4655  1.1299
 3245TIP3    H231151   2.816   4.899  12.276 -0.1495  1.3836 -0.2079
 3246TIP3   OH231152   3.245   1.857  14.113  0.1653  0.0836  0.5015
 3246TIP3    H131153   3.237   1.941  14.069  0.0627 -0.2755 -0.1840
 3246TIP3    H231154   3.166   1.808  14.088  0.7471 -0.6186 -0.0107
 3247TIP3   OH231155   3.528   4.135  15.034 -0.2249  0.3516 -0.3138
 3247TIP3    H131156   3.465   4.203  15.056 -0.9662 -0.2947 -0.3874
 3247TIP3    H231157   3.524   4.128  14.939 -0.3091  0.0614 -0.2901
 3248TIP3   OH231158   4.403   0.164  12.137 -0.1397  0.2081  0.2693
 3248TIP3    H131159   4.390   0.248  12.092 -0.7825 -0.1801 -0.2960
 3248TIP3    H231160   4.315   0.137  12.162 -0.3863 -1.8165 -2.3662
 3249TIP3   OH231161   4.015   1.184  14.733  0.6901 -0.6604 -0.6214
 3249TIP3    H131162   3.946   1.244  14.760  0.4495 -1.1111 -0.2280
 3249TIP3    H231163   4.040   1.215  14.646  1.3803  0.7270  0.0287
 3250TIP3   OH231164   4.943   3.338   2.479 -0.2429 -0.1404  0.0828
 3250TIP3    H131165   5.021   3.391   2.464 -0.0415  0.0189  1.5515
 3250TIP3    H231166   4.890   3.350   2.401 -0.3879  2.5408  0.4941
 3251TIP3   OH231167   6.016   0.105  14.406  0.3870  0.5410 -0.4033
 3251TIP3    H131168   5.989   0.196  14.409 -0.4852  0.4793 -3.1428
 3251TIP3    H231169   5.948   0.058  14.454  1.0845  1.3364  1.4206
 3252TIP3   OH231170   3.811   3.857  12.127  0.5046  0.1815 -0.0021
 3252TIP3    H131171   3.797   3.879  12.035 -1.2611  1.8956  0.6171
 3252TIP3    H231172   3.770   3.771  12.137 -1.8524  1.1846 -0.2740
 3253TIP3   OH231173   2.462   3.906   1.160  0.3897 -0.1323 -0.1548
 3253TIP3    H131174   2.389   3.959   1.127  0.6556  0.1699 -0.2698
 3253TIP3    H231175   2.431   3.870   1.243  0.8624  1.7077  0.8671
 3254TIP3   OH231176   0.487   5.914  11.593  0.4615  0.4485  0.1981
 3254TIP3    H131177   0.527   5.851  11.532  0.8811  0.5132  0.4022
 3254TIP3    H231178   0.394   5.892  11.593  0.5681 -0.0088  0.0703
 3255TIP3   OH231179   3.860   6.356  14.904  0.1705  0.2425  0.5720
 3255TIP3    H131180   3.805   6.279  14.918 -1.6479  0.7527 -2.7378
 3255TIP3    H231181   3.832   6.418  14.972 -1.6536 -0.3958  0.4580
 3256TIP3   OH231182   2.045   5.525  13.130  0.3982 -0.2437 -0.1949
 3256TIP3    H131183   2.009   5.566  13.208 -0.4050 -0.8534 -0.2282
 3256TIP3    H231184   2.124   5.575  13.110  0.4968  0.0428  0.8801
 3257TIP3   OH231185   2.363   4.468   2.732 -0.1793 -0.1896 -0.5861
 3257TIP3    H131186   2.285   4.416   2.712 -0.7067  0.3544  0.0017
 3257TIP3    H231187   2.368   4.532   2.661  1.4341 -2.0260 -2.2582
 3258TIP3   OH231188   4.503   2.127   5.285 -0.2024  0.5862 -0.0551
 3258TIP3    H131189   4.453   2.068   5.342 -1.4767  0.2864 -1.4373
 3258TIP3    H231190   4.467   2.112   5.198  1.3964  1.3770 -0.8820
 3259TIP3   OH231191   6.750   3.177  15.376 -0.0808  0.4954  0.3471
 3259TIP3    H131192   6.795   3.126  15.443  0.5443  1.5536  0.7541
 3259TIP3    H231193   6.693   3.114  15.332  0.4520 -0.4814  1.0260
 3260TIP3   OH231194   4.707   2.147   3.787  0.3031 -0.0184 -0.1833
 3260TIP3    H131195   4.735   2.237   3.769 -0.2688  0.3961  0.8921
 3260TIP3    H231196   4.640   2.130   3.721 -0.2079  0.6754  0.1346
 3261TIP3   OH231197   5.908   0.788  17.112 -0.3954 -0.1401  0.3766
 3261TIP3    H131198   5.849   0.803  17.038 -0.9569 -1.5258  0.5147
 3261TIP3    H231199   5.877   0.707  17.151  2.2062 -1.4860 -0.1351
 3262TIP3   OH231200   2.595   1.426   5.013 -0.4198  0.7907 -0.0778
 3262TIP3    H131201   2.579   1.360   4.945 -2.4138  0.2535  0.8480
 3262TIP3    H231202   2.608   1.375   5.093  0.3356  1.4694  0.2460
 3263TIP3   OH231203   0.416   6.615  13.398 -0.8239  0.3236  0.1479
 3263TIP3    H131204   0.369   6.639  13.478  3.8183 -0.2212  3.4527
 3263TIP3    H231205   0.417   6.519  13.399  1.0115  0.3216  0.7011
 3264TIP3   OH231206   0.602   3.715   0.004 -0.2557 -0.3209 -0.3460
 3264TIP3    H131207   0.520   3.764   0.015  0.4350  0.9487 -0.7566
 3264TIP3    H231208   0.645   3.721   0.089  0.5112  1.0751 -0.8110
 3265TIP3   OH231209   4.035   6.018  14.125  1.2409 -0.2199 -0.3901
 3265TIP3    H131210   3.995   6.083  14.067  1.5817 -0.9626 -1.4769
 3265TIP3    H231211   3.970   5.948  14.130  0.2499  0.7451  1.9077
 3266TIP3   OH231212   1.661   4.077  13.005 -0.2741  0.4779 -0.0410
 3266TIP3    H131213   1.714   4.004  13.037 -0.7200 -1.3543 -3.0891
 3266TIP3    H231214   1.723   4.140  12.970  0.0206  0.4711  0.4616
 3267TIP3   OH231215   3.547   1.792   4.267 -0.2400 -0.2645 -0.5028
 3267TIP3    H131216   3.508   1.851   4.331  0.9302 -0.1151  0.1055
 3267TIP3    H231217   3.607   1.847   4.218 -0.1035 -0.6774 -0.8026
 3268TIP3   OH231218   6.458   2.350   3.725  0.1626 -0.1772  0.3526
 3268TIP3    H131219   6.438   2.419   3.787  0.3596  0.2066 -0.0043
 3268TIP3    H231220   6.483   2.275   3.779 -2.2432 -0.7182  0.8435
 3269TIP3   OH231221   1.633   3.566   6.072  0.0559  0.0137 -0.2613
 3269TIP3    H131222   1.594   3.575   5.985  1.9783  2.0564 -0.9862
 3269TIP3    H231223   1.580   3.621   6.129  0.7215  1.2834 -0.8487
 3270TIP3   OH231224   4.542   3.082  16.400 -0.5360 -0.1291  0.4825
 3270TIP3    H131225   4.616   3.130  16.364  1.2991 -3.4011 -0.5674
 3270TIP3    H231226   4.532   3.114  16.489  0.9319  1.6785  0.0392
 3271TIP3   OH231227   5.311   2.911  13.665 -0.0802 -0.5194  0.6394
 3271TIP3    H131228   5.399   2.940  13.685  0.3583 -0.6947 -0.8743
 3271TIP3    H231229   5.254   2.970  13.714  0.8605 -0.0269  1.1655
 3272TIP3   OH231230   4.420   0.825  16.743 -0.4069 -0.3681 -0.2514
 3272TIP3    H131231   4.496   0.883  16.751  2.3427 -3.5230 -1.1227
 3272TIP3    H231232   4.384   0.821  16.832 -0.2654  2.0059 -0.0240
 3273TIP3   OH231233   4.307   2.922   1.674 -0.3614  0.3461  0.1731
 3273TIP3    H131234   4.238   2.969   1.627 -0.6469 -0.5390 -0.3187
 3273TIP3    H231235   4.270   2.836   1.692  0.7045 -0.2485 -0.3609
 3274TIP3   OH231236   0.259   0.405  12.832  0.7649  0.1460  0.4635
 3274TIP3    H131237   0.344   0.361  12.829  0.8280  0.3078 -0.5199
 3274TIP3    H231238   0.236   0.406  12.924  2.1282  0.6538  0.8303
 3275TIP3   OH231239   5.202   1.295   2.274  0.0286  0.8529  0.3070
 3275TIP3    H131240   5.164   1.244   2.203 -0.1532  0.0757  0.9394
 3275TIP3    H231241   5.296   1.290   2.260  0.0409 -0.1556  0.6797
 3276TIP3   OH231242   3.402   6.439  13.308 -0.3595  0.6732 -0.3272
 3276TIP3    H131243   3.496   6.437  13.290 -0.1762 -3.1478  0.2080
 3276TIP3    H231244   3.361   6.409  13.227 -0.8918 -0.0654  0.2011
 3277TIP3   OH231245   2.005   4.916  15.614  0.6122  0.1853  0.1086
 3277TIP3    H131246   1.997   4.956  15.528 -1.2706  0.8908  0.5746
 3277TIP3    H231247   2.012   4.991  15.674 -0.8405 -0.2155  0.7989
 3278TIP3   OH231248   3.282   2.396  15.342  0.3990  0.4507  0.0881
 3278TIP3    H131249   3.368   2.438  15.340 -0.0050  1.2860 -2.0179
 3278TIP3    H231250   3.274   2.351  15.258 -1.0373  0.0208  0.4211
 3279TIP3   OH231251   5.618   4.458   2.403 -0.2949  0.0764  0.3375
 3279TIP3    H131252   5.533   4.475   2.364 -0.0296  0.1589 -0.2179
 3279TIP3    H231253   5.604   4.466   2.497 -0.2423  3.3278  0.1750
 3280TIP3   OH231254   5.684   0.060   2.979 -0.1203 -0.6987  0.3371
 3280TIP3    H131255   5.659   0.076   2.888  0.0050  0.8448  0.5468
 3280TIP3    H231256   5.608   0.015   3.017 -1.6379  1.5805  0.2862
 3281TIP3   OH231257   1.627   5.127   6.003  0.0363 -0.4346  0.1364
 3281TIP3    H131258   1.560   5.127   5.935 -0.4116  0.9998  0.5577
 3281TIP3    H231259   1.578   5.123   6.085  0.5040 -0.2485  0.4261
 3282TIP3   OH231260   1.420   1.363  15.205  0.0539  0.4437 -0.0453
 3282TIP3    H131261   1.344   1.414  15.232  0.0739  0.4092  0.0773
 3282TIP3    H231262   1.449   1.403  15.123  0.8760  1.4691  0.7202
 3283TIP3   OH231263   3.788   1.672  12.055  0.2932 -0.3715 -0.0318
 3283TIP3    H131264   3.754   1.598  12.006 -2.2995  0.9302 -0.3682
 3283TIP3    H231265   3.831   1.727  11.990  1.1831 -0.9769  0.0269
 3284TIP3   OH231266   6.471   5.364  14.191  0.6501 -0.4322 -0.4563
 3284TIP3    H131267   6.529   5.354  14.115  0.3785  1.8546 -1.0517
 3284TIP3    H231268   6.383   5.356  14.155  0.5369 -1.6298  0.0509
 3285TIP3   OH231269   2.746   6.752  17.050  0.2614 -0.2466 -0.0602
 3285TIP3    H131270   2.672   6.695  17.028  0.2294 -0.4303  0.5078
 3285TIP3    H231271   2.821   6.692  17.057  0.0385 -0.3726  1.5181
 3286TIP3   OH231272   1.434   0.120   0.344  0.8388  0.7617  0.7956
 3286TIP3    H131273   1.368   0.145   0.408  1.4898  1.7667  1.0982
 3286TIP3    H231274   1.442   0.025   0.353 -1.9143  0.2820 -0.5767
 3287TIP3   OH231275   2.367   4.368   3.377 -0.0211 -0.4777 -0.3107
 3287TIP3    H131276   2.418   4.308   3.323  0.0336  2.3911 -3.9338
 3287TIP3    H231277   2.279   4.332   3.376  0.7163 -2.4620  1.0361
 3288TIP3   OH231278   2.298   1.912  16.873  0.1290 -0.5670 -0.0054
 3288TIP3    H131279   2.315   1.819  16.862 -1.8219 -0.8286 -1.2428
 3288TIP3    H231280   2.377   1.946  16.916  0.7782 -2.8038  0.6966
 3289TIP3   OH231281   3.005   6.718  15.862 -0.2703  0.2243  0.3234
 3289TIP3    H131282   3.015   6.813  15.857 -2.9309  0.6669  1.4953
 3289TIP3    H231283   2.996   6.700  15.956  0.7905 -1.3002  0.1800
 3290TIP3   OH231284   6.350   6.404   1.286 -0.1579 -0.1531  0.2288
 3290TIP3    H131285   6.439   6.434   1.300  0.1855 -0.8269 -0.4258
 3290TIP3    H231286   6.354   6.310   1.304 -0.4111 -0.4500 -1.1546
 3291TIP3   OH231287   2.842   5.649  16.171 -0.1923 -0.3162 -0.7159
 3291TIP3    H131288   2.931   5.614  16.169 -1.0654 -2.8703  0.6749
 3291TIP3    H231289   2.794   5.590  16.229 -2.8932  0.7444 -1.6932
 3292TIP3   OH231290   0.359   6.056  17.099  0.1098 -0.2729 -0.0374
 3292TIP3    H131291   0.286   6.080  17.043 -0.2440 -0.4022  0.3686
 3292TIP3    H231292   0.329   6.073  17.188  0.9008  0.5426  0.0834
 3293TIP3   OH231293   5.931   5.111   4.373  0.5109  0.1995  0.3033
 3293TIP3    H131294   6.026   5.105   4.384  1.0041  1.7412 -2.3849
 3293TIP3    H231295   5.899   5.024   4.399  2.4911 -0.0556  2.1793
 3294TIP3   OH231296   6.075   1.132  15.294 -0.1762  0.3458  0.4099
 3294TIP3    H131297   5.987   1.168  15.280  0.4255  1.7833  0.1816
 3294TIP3    H231298   6.114   1.189  15.359  0.4870 -0.4925  0.7658
 3295TIP3   OH231299   0.327   2.963  15.463  0.0230 -0.0447  0.2652
 3295TIP3    H131300   0.236   2.990  15.477  0.5272  1.8892 -0.0136
 3295TIP3    H231301   0.335   2.881  15.512 -1.9858 -0.4982 -0.0687
 3296TIP3   OH231302   0.263   0.954   5.553  0.3484  0.2070  0.5370
 3296TIP3    H131303   0.257   0.910   5.639 -0.2825  0.6644  0.7341
 3296TIP3    H231304   0.320   0.897   5.502 -1.0883 -1.3075  0.5276
 3297TIP3   OH231305   1.626   1.745  15.108 -0.3283  0.2613 -0.0705
 3297TIP3    H131306   1.640   1.653  15.133  0.9745  0.6163  0.6146
 3297TIP3    H231307   1.692   1.793  15.158 -2.3928  1.8455  1.3064
 3298TIP3   OH231308   6.663   6.110   4.141 -0.4171 -0.3918 -0.5887
 3298TIP3    H131309   6.705   6.059   4.210 -1.7068 -0.8016 -0.0684
 3298TIP3    H231310   6.569   6.096   4.155 -0.7233  0.1002 -1.9954
 3299TIP3   OH231311   2.932   2.408  10.733  0.5032  0.2387  0.5453
 3299TIP3    H131312   2.937   2.349  10.808 -0.3745  0.0466  0.4647
 3299TIP3    H231313   2.840   2.435  10.730  0.9331  1.8007  0.7134
 3300TIP3   OH231314   5.432   2.798  14.945  0.0899  0.0136  0.4364
 3300TIP3    H131315   5.363   2.849  14.987 -0.0424 -0.3678  0.6834
 3300TIP3    H231316   5.395   2.772  14.861  0.0050 -0.0212  0.4848
 3301TIP3   OH231317   5.777   0.246  12.888  0.0378 -0.2399 -0.4066
 3301TIP3    H131318   5.796   0.190  12.963 -0.5781 -0.8714 -0.7068
 3301TIP3    H231319   5.847   0.227  12.825  0.5222  0.2496 -0.0127
 3302TIP3   OH231320   1.989   3.951  11.972  0.1241  0.0282  0.3570
 3302TIP3    H131321   2.049   3.877  11.986  0.3769  0.3812  1.2075
 3302TIP3    H231322   1.925   3.918  11.909  0.4658 -0.7914  0.4232
 3303TIP3   OH231323   0.301   5.836   5.081 -0.1440 -0.2152  0.5270
 3303TIP3    H131324   0.234   5.779   5.119 -1.0701 -0.3509 -1.2023
 3303TIP3    H231325   0.256   5.879   5.008  0.3871  3.0404  1.9557
 3304TIP3   OH231326   0.972   4.940  13.391 -0.2057  0.6100  0.0504
 3304TIP3    H131327   0.907   5.009  13.379 -0.5548  0.3737  0.5131
 3304TIP3    H231328   1.056   4.981  13.370 -0.2066  1.6374  1.7837
 3305TIP3   OH231329   0.716   6.460   1.684 -0.5698  0.4137  0.8637
 3305TIP3    H131330   0.634   6.505   1.705 -0.3126  1.0934  0.4536
 3305TIP3    H231331   0.707   6.438   1.591  0.0830  1.3376  0.5592
 3306TIP3   OH231332   1.223   3.880  13.925  0.0855 -0.2254 -0.7197
 3306TIP3    H131333   1.272   3.961  13.911  1.3126 -1.0336 -1.2219
 3306TIP3    H231334   1.203   3.880  14.019  1.0322  0.1313 -0.5108
 3307TIP3   OH231335   1.479   0.466   2.041  0.1272  0.0600  0.5892
 3307TIP3    H131336   1.528   0.428   1.968  0.9018 -1.6760  1.9478
 3307TIP3    H231337   1.394   0.488   2.003  0.8672  0.2135 -1.0853
 3308TIP3   OH231338   2.721   0.683   3.569 -0.5838  0.1809 -0.5209
 3308TIP3    H131339   2.696   0.749   3.634  0.4620 -0.3990  0.4968
 3308TIP3    H231340   2.809   0.656   3.594 -1.2964 -2.2547 -0.3705
 3309TIP3   OH231341   2.876   0.878  13.348 -0.2869 -0.3559  0.2356
 3309TIP3    H131342   2.838   0.820  13.414  1.7752 -1.5816  0.4663
 3309TIP3    H231343   2.845   0.965  13.371 -0.5724 -0.9065  2.1151
 3310TIP3   OH231344   5.623   5.148  12.715 -0.3418 -0.6274 -0.1228
 3310TIP3    H131345   5.553   5.197  12.757  0.0037 -0.0071 -0.2459
 3310TIP3    H231346   5.581   5.069  12.682 -0.8315 -0.6078  0.4365
 3311TIP3   OH231347   5.113   2.969   3.527 -0.0591  0.3806 -0.7893
 3311TIP3    H131348   5.056   3.013   3.590  1.1939  0.5263  0.2711
 3311TIP3    H231349   5.165   2.909   3.579 -0.8929 -1.5525 -2.0526
 3312TIP3   OH231350   5.188   1.572  12.247 -0.5377  0.1453  0.3958
 3312TIP3    H131351   5.237   1.634  12.193 -0.4656 -0.0448  0.2443
 3312TIP3    H231352   5.194   1.608  12.336 -2.4014  1.6072  0.0127
 3313TIP3   OH231353   4.652   2.169  12.566  0.4348 -0.3492  0.0169
 3313TIP3    H131354   4.716   2.207  12.627 -1.4502 -0.5188  2.2196
 3313TIP3    H231355   4.661   2.074  12.579  0.1443 -0.3907 -0.0976
 3314TIP3   OH231356   0.432   1.601  14.363  0.5983 -0.6972  0.6750
 3314TIP3    H131357   0.418   1.612  14.269 -0.3086 -2.0935  0.6012
 3314TIP3    H231358   0.518   1.638  14.380  0.6730 -0.2168 -0.6631
 3315TIP3   OH231359   0.881   3.453   5.481 -0.3269  0.0096  0.1488
 3315TIP3    H131360   0.817   3.450   5.552 -0.8137 -2.0127 -0.3076
 3315TIP3    H231361   0.853   3.526   5.426 -0.6384  0.8469  1.3817
 3316TIP3   OH231362   6.728   2.364   2.476 -0.0566  0.0688  0.7122
 3316TIP3    H131363   6.636   2.374   2.501 -1.2152 -2.8849 -1.7972
 3316TIP3    H231364   6.740   2.423   2.402  0.7663  1.9258  2.2166
 3317TIP3   OH231365   3.323   5.221   4.779  0.4892 -0.5388 -0.1984
 3317TIP3    H131366   3.324   5.176   4.863  1.1266 -0.9777 -0.4286
 3317TIP3    H231367   3.281   5.305   4.796  2.0887  0.0796  0.9226
 3318TIP3   OH231368   1.618   6.099  16.740 -0.0569 -0.0117  0.3124
 3318TIP3    H131369   1.652   6.143  16.662  0.1320 -0.0609  0.3679
 3318TIP3    H231370   1.546   6.155  16.770  0.6246  0.6216  0.7883
 3319TIP3   OH231371   2.439   2.961   0.331 -0.5354 -0.4695 -0.1653
 3319TIP3    H131372   2.400   2.907   0.400  0.8391 -2.9383 -1.1730
 3319TIP3    H231373   2.475   2.897   0.269  2.1670  1.6272 -0.9257
 3320TIP3   OH231374   0.315   3.019   6.178 -0.0722 -0.2728 -0.2197
 3320TIP3    H131375   0.315   2.940   6.124 -0.5534 -0.8431  0.5978
 3320TIP3    H231376   0.404   3.055   6.169 -0.7692  0.9787 -3.2596
 3321TIP3   OH231377   0.883   5.255  14.272  0.4557 -0.2385  0.0387
 3321TIP3    H131378   0.970   5.282  14.244  0.7310 -0.2982  0.7887
 3321TIP3    H231379   0.827   5.330  14.254  0.6118 -0.2982 -0.6943
 3322TIP3   OH231380   5.259   0.311   0.985  0.1890 -0.5939  0.3282
 3322TIP3    H131381   5.345   0.269   0.992  0.3849 -0.1828  0.4584
 3322TIP3    H231382   5.210   0.257   0.924  0.9315 -0.1929 -0.6362
 3323TIP3   OH231383   0.036   0.893  14.457 -0.1846  0.5307  0.2399
 3323TIP3    H131384   0.006   0.958  14.520  0.3223  0.8587  0.1477
 3323TIP3    H231385   0.108   0.848  14.501  1.5477  2.1213 -0.8158
 3324TIP3   OH231386   4.687   3.593  12.971  0.1609  0.7128 -0.6045
 3324TIP3    H131387   4.713   3.592  12.879  2.2325  1.3246 -0.0766
 3324TIP3    H231388   4.766   3.569  13.019 -1.2489 -1.1507  0.9903
 3325TIP3   OH231389   4.042   2.215   1.962  0.1742 -0.5399  0.1317
 3325TIP3    H131390   4.110   2.197   1.898  0.7982  1.3839  0.1848
 3325TIP3    H231391   4.027   2.131   2.005  0.8930 -1.5027 -1.4175
 3326TIP3   OH231392   3.869   4.920  15.860 -0.4126 -0.3853 -0.0053
 3326TIP3    H131393   3.843   4.998  15.810  0.0324  0.8803  1.6314
 3326TIP3    H231394   3.944   4.884  15.812 -1.5616 -0.7450 -1.6254
 3327TIP3   OH231395   3.733   0.589  14.113 -0.6189  0.0819  0.1738
 3327TIP3    H131396   3.827   0.583  14.133 -0.3379  0.1071 -1.0524
 3327TIP3    H231397   3.718   0.681  14.094 -1.3243  0.4461  2.1891
 3328TIP3   OH231398   5.755   6.667   6.744  0.2501  0.6960  0.5656
 3328TIP3    H131399   5.842   6.643   6.712  0.3794  1.5069  0.2549
 3328TIP3    H231400   5.769   6.750   6.790 -0.2508  0.4762  1.1242
 3329TIP3   OH231401   1.594   4.790  15.619  0.6793  0.3776  0.5622
 3329TIP3    H131402   1.631   4.706  15.594  0.8289 -0.0712  2.1850
 3329TIP3    H231403   1.511   4.769  15.661  0.5938  1.0598  0.7561
 3330TIP3   OH231404   1.359   5.766   3.416 -0.4195 -0.5164 -0.0700
 3330TIP3    H131405   1.422   5.749   3.346  1.3151 -0.1486  1.3252
 3330TIP3    H231406   1.330   5.856   3.401 -1.4654 -1.0225 -1.3123
 3331TIP3   OH231407   0.133   2.097  17.037  0.0954  0.1186  1.0933
 3331TIP3    H131408   0.112   2.187  17.012  2.4687  0.6236  0.6156
 3331TIP3    H231409   0.226   2.099  17.059  0.4043 -2.3366  0.4280
 3332TIP3   OH231410   3.757   0.419  14.378  0.2311  0.0134 -0.1683
 3332TIP3    H131411   3.804   0.500  14.400 -0.3971  0.9657 -2.1038
 3332TIP3    H231412   3.737   0.380  14.463  0.8311  1.7304  0.8266
 3333TIP3   OH231413   1.692   6.118  14.442  0.1160  0.1150  0.1860
 3333TIP3    H131414   1.642   6.108  14.523  1.3502  0.1135  0.9851
 3333TIP3    H231415   1.723   6.029  14.423 -0.2338  0.1052 -0.3261
 3334TIP3   OH231416   1.885   6.337  11.690 -0.2207 -0.5912 -0.1252
 3334TIP3    H131417   1.951   6.390  11.734 -0.6432  0.3918 -0.6415
 3334TIP3    H231418   1.806   6.348  11.742 -1.0823  1.6336 -1.7405
 3335TIP3   OH231419   4.404   5.495  15.116 -0.2162  0.0088 -0.2531
 3335TIP3    H131420   4.336   5.435  15.086  0.6426 -0.7137 -0.7667
 3335TIP3    H231421   4.482   5.442  15.124  0.3956  0.9145 -0.0428
 3336TIP3   OH231422   1.999   5.320  15.191 -0.3593  0.1027 -0.4533
 3336TIP3    H131423   1.953   5.374  15.254 -0.3287 -0.8836  0.4372
 3336TIP3    H231424   1.952   5.236  15.192  0.4034 -0.3436 -0.7983
 3337TIP3   OH231425   5.797   5.795  12.674 -0.0481 -0.0908  0.4217
 3337TIP3    H131426   5.861   5.727  12.654  0.5146  1.0141 -1.7876
 3337TIP3    H231427   5.761   5.770  12.760  2.3726 -1.4477  1.1123
 3338TIP3   OH231428   6.605   5.373  15.674  0.5874  0.3891 -0.0683
 3338TIP3    H131429   6.600   5.462  15.641  0.8988  0.7954  0.9610
 3338TIP3    H231430   6.593   5.381  15.769 -0.9660 -0.8120 -0.1066
 3339TIP3   OH231431   6.244   6.793  11.050 -0.5698 -0.6699 -0.1122
 3339TIP3    H131432   6.295   6.818  11.127 -0.7778  0.4225 -0.3120
 3339TIP3    H231433   6.285   6.712  11.019  1.2274  0.2976 -0.4215
 3340TIP3   OH231434   2.850   4.297   0.119  0.2113  0.4325 -0.0484
 3340TIP3    H131435   2.882   4.223   0.068 -1.2682  0.1627 -0.6466
 3340TIP3    H231436   2.894   4.374   0.082 -0.8008  0.2368 -1.7471
 3341TIP3   OH231437   1.771   6.270  13.933  0.6265  0.1480 -0.0804
 3341TIP3    H131438   1.790   6.361  13.910  0.9485  0.2694  0.6570
 3341TIP3    H231439   1.854   6.235  13.963  0.6409 -0.5744 -0.9237
 3342TIP3   OH231440   5.872   6.093   5.935 -0.6023  0.0441 -0.1445
 3342TIP3    H131441   5.931   6.153   5.980 -0.3999  0.0555 -0.4237
 3342TIP3    H231442   5.820   6.054   6.005 -2.2971  2.1820 -0.1137
 3343TIP3   OH231443   5.124   2.873   0.625 -0.5784 -0.3644  0.1389
 3343TIP3    H131444   5.160   2.817   0.556  1.8965 -0.5587  1.4942
 3343TIP3    H231445   5.145   2.962   0.598  2.0862 -0.5261  1.4501
 3344TIP3   OH231446   2.514   4.790  12.830  0.5394  0.4263  0.0614
 3344TIP3    H131447   2.485   4.742  12.908  1.1286  1.2849  0.8313
 3344TIP3    H231448   2.606   4.809  12.847  1.0530 -0.5617 -1.4739
 3345TIP3   OH231449   5.706   2.422   3.125  0.6008 -0.0224  0.1529
 3345TIP3    H131450   5.693   2.464   3.209  0.7322  1.9172 -0.7473
 3345TIP3    H231451   5.626   2.370   3.111  0.8028 -0.7825  1.6493
 3346TIP3   OH231452   5.608   6.395   3.402  0.4135 -0.5796  0.0200
 3346TIP3    H131453   5.566   6.481   3.410  0.0258 -0.5152 -2.1450
 3346TIP3    H231454   5.681   6.398   3.464 -0.9118  0.4556  1.6069
 3347TIP3   OH231455   4.359   3.964  14.139 -0.1864  0.1398 -0.5358
 3347TIP3    H131456   4.305   3.977  14.061 -1.3112  1.0476  0.3674
 3347TIP3    H231457   4.429   4.030  14.130 -1.7408  2.0149  0.4168
 3348TIP3   OH231458   5.481   2.704   3.659  0.0882  0.1423  0.6237
 3348TIP3    H131459   5.513   2.634   3.717 -0.3728 -1.0746 -0.5407
 3348TIP3    H231460   5.561   2.747   3.628  0.4510 -0.6809  0.3893
 3349TIP3   OH231461   6.253   1.398  12.635  0.0979  0.1177  0.1203
 3349TIP3    H131462   6.202   1.475  12.608  0.5457  0.5344  0.4591
 3349TIP3    H231463   6.251   1.341  12.558  1.0812  1.1531 -0.7119
 3350TIP3   OH231464   2.664   3.734  15.778 -0.6553  0.2635 -0.0757
 3350TIP3    H131465   2.731   3.747  15.845 -1.4505  2.2137  0.4000
 3350TIP3    H231466   2.661   3.639  15.766  2.5538  0.1143 -0.5420
 3351TIP3   OH231467   5.799   0.270  13.320  0.0030 -0.5381 -0.1130
 3351TIP3    H131468   5.874   0.233  13.366  0.5982  1.4409  0.5850
 3351TIP3    H231469   5.739   0.297  13.389 -1.2184 -1.7074 -0.6533
 3352TIP3   OH231470   6.352   2.348   2.144 -0.0646 -0.2433  0.3458
 3352TIP3    H131471   6.259   2.334   2.166  0.0090 -0.6246  0.4272
 3352TIP3    H231472   6.399   2.291   2.205  0.1899 -0.6204 -0.1932
 3353TIP3   OH231473   6.579   5.037   5.935 -0.3977  0.1689 -0.5042
 3353TIP3    H131474   6.652   5.027   5.874  1.5199 -0.5954  1.7638
 3353TIP3    H231475   6.592   5.123   5.975 -1.0910  0.2726 -0.4784
 3354TIP3   OH231476   5.545   2.487  11.791  0.3613 -0.4921 -0.0425
 3354TIP3    H131477   5.543   2.450  11.703 -1.5625 -1.0511  0.1745
 3354TIP3    H231478   5.520   2.414  11.848 -0.2114  0.3013  0.7506
 3355TIP3   OH231479   0.260   2.984  12.739  0.2084  0.7497 -0.6190
 3355TIP3    H131480   0.239   3.078  12.737  0.6317  0.8474 -0.7917
 3355TIP3    H231481   0.207   2.949  12.810  1.4943  1.4909  0.7743
 3356TIP3   OH231482   0.441   4.703   4.822 -0.4841  0.3313  0.3046
 3356TIP3    H131483   0.499   4.673   4.751 -0.3961  0.5244  0.2959
 3356TIP3    H231484   0.416   4.622   4.868 -0.3895  0.2251  0.1697
 3357TIP3   OH231485   2.953   5.484  13.309 -0.4059  0.5155 -0.4398
 3357TIP3    H131486   2.967   5.564  13.257  0.4584 -0.4017 -1.6762
 3357TIP3    H231487   3.033   5.433  13.295  0.7273  0.9786  3.2737
 3358TIP3   OH231488   0.642   6.513  12.238 -0.3946  0.3614  0.4416
 3358TIP3    H131489   0.663   6.424  12.269 -2.5457  0.1844  1.5774
 3358TIP3    H231490   0.592   6.498  12.158  1.3916  0.6806 -0.7790
 3359TIP3   OH231491   4.098   4.933  13.969  0.2956 -0.0276 -0.1965
 3359TIP3    H131492   4.181   4.905  14.008 -0.2965 -0.1191  1.0113
 3359TIP3    H231493   4.058   4.990  14.034 -0.2027  0.7110 -1.1335
 3360TIP3   OH231494   4.538   1.895  16.055 -0.0492 -0.3160 -0.2228
 3360TIP3    H131495   4.483   1.892  16.133  1.7296 -0.1866  1.0997
 3360TIP3    H231496   4.529   1.808  16.016 -1.9872  0.0398 -0.6620
 3361TIP3   OH231497   5.011   1.621  15.690  0.0614 -0.1697  0.2507
 3361TIP3    H131498   4.943   1.632  15.757  0.7807  0.1946  0.9320
 3361TIP3    H231499   5.014   1.705  15.644 -0.2173 -0.3186 -0.0490
 3362TIP3   OH231500   0.991   5.522   5.938 -0.2638 -0.1351 -0.2467
 3362TIP3    H131501   0.916   5.569   5.902 -2.0885  0.5895  3.9185
 3362TIP3    H231502   1.026   5.581   6.005  2.4271 -1.5538 -0.2777
 3363TIP3   OH231503   5.698   2.040  12.205 -0.4528  0.0524  0.1249
 3363TIP3    H131504   5.750   1.993  12.271 -0.4212 -2.0385 -1.2818
 3363TIP3    H231505   5.763   2.087  12.153 -0.2179 -0.4116 -0.0050
 3364TIP3   OH231506   4.172   5.404   5.868  0.0627 -0.0806 -0.6303
 3364TIP3    H131507   4.098   5.465   5.873 -0.5845 -0.8838 -0.1317
 3364TIP3    H231508   4.148   5.332   5.926  0.5868 -1.0634 -1.5941
 3365TIP3   OH231509   4.856   0.388  14.178  0.2473 -0.7384 -0.6348
 3365TIP3    H131510   4.785   0.435  14.222  0.8710  1.1064 -1.5053
 3365TIP3    H231511   4.933   0.406  14.233  0.4157 -1.0883 -0.7562
 3366TIP3   OH231512   2.665   4.880  14.607 -0.4068  0.4628 -0.0968
 3366TIP3    H131513   2.723   4.892  14.533  0.2613  0.5617  0.4353
 3366TIP3    H231514   2.592   4.941  14.591  1.4832  3.2448  1.0823
 3367TIP3   OH231515   0.111   1.689  15.201 -0.2946  0.0157 -0.4335
 3367TIP3    H131516   0.051   1.625  15.238  0.7006  0.3299  1.9226
 3367TIP3    H231517   0.167   1.639  15.142  1.2705 -1.6750  2.2763
 3368TIP3   OH231518   2.490   4.666  15.060  0.1888 -0.0604  0.2322
 3368TIP3    H131519   2.435   4.680  14.983  0.2999 -0.0791  0.1487
 3368TIP3    H231520   2.576   4.700  15.034  0.9150 -2.3265 -0.5579
 3369TIP3   OH231521   0.241   3.735  12.739  0.3985  0.2967 -0.3081
 3369TIP3    H131522   0.295   3.815  12.736 -1.3786  1.6773  1.8809
 3369TIP3    H231523   0.227   3.718  12.832  1.0028 -2.8653 -0.6776
 3370TIP3   OH231524   0.454   0.896  12.014  0.0839 -0.0907 -0.4568
 3370TIP3    H131525   0.381   0.862  11.962  0.2860  0.6592 -1.2451
 3370TIP3    H231526   0.438   0.863  12.103 -1.5900  0.6511 -0.4634
 3371TIP3   OH231527   5.712   6.257  13.582  0.0674  0.8960  1.0235
 3371TIP3    H131528   5.743   6.301  13.504 -0.3373  0.0299  0.3566
 3371TIP3    H231529   5.664   6.324  13.631 -0.1880  1.2989  0.2338
 3372TIP3   OH231530   0.901   2.313  12.070  0.4012 -0.1632  0.0776
 3372TIP3    H131531   0.925   2.405  12.082 -0.7971  0.2426 -0.4078
 3372TIP3    H231532   0.921   2.272  12.154  1.6999  0.3513  0.0442
 3373TIP3   OH231533   1.916   2.712   3.507  0.2080  0.5736  0.4586
 3373TIP3    H131534   1.977   2.715   3.434 -0.0187  1.2149  0.2893
 3373TIP3    H231535   1.924   2.798   3.549  0.2370  0.2619  1.1058
 3374TIP3   OH231536   6.472   3.901  14.270 -0.6135  0.2947 -0.3338
 3374TIP3    H131537   6.537   3.861  14.327 -1.8631 -1.8787 -0.3307
 3374TIP3    H231538   6.521   3.925  14.191  0.3415 -0.5458 -0.0167
 3375TIP3   OH231539   5.695   5.119  16.072  0.1102  0.3973  0.0593
 3375TIP3    H131540   5.718   5.202  16.030 -1.0538  0.6188 -0.1819
 3375TIP3    H231541   5.623   5.142  16.132  0.4465 -0.2647  0.7239
 3376TIP3   OH231542   1.833   4.507  10.996 -0.2408  0.3432 -0.1910
 3376TIP3    H131543   1.754   4.507  11.050  0.2845 -2.2181  0.7480
 3376TIP3    H231544   1.817   4.438  10.931  1.2497 -0.3565  0.1340
 3377TIP3   OH231545   4.667   3.987  15.400 -0.7587  0.3251  0.1360
 3377TIP3    H131546   4.641   3.896  15.382 -1.6227  0.6662 -0.4204
 3377TIP3    H231547   4.663   3.994  15.496  0.4084 -0.5176  0.2734
 3378TIP3   OH231548   3.152   1.727   0.155  0.0134  0.0537 -0.8091
 3378TIP3    H131549   3.237   1.770   0.149 -0.8465  1.6629 -2.8561
 3378TIP3    H231550   3.169   1.637   0.127  1.0952  0.2866 -0.9359
 3379TIP3   OH231551   4.600   5.198  11.552 -1.0541 -0.2083  0.2040
 3379TIP3    H131552   4.580   5.146  11.630 -2.0535  0.0843  0.1654
 3379TIP3    H231553   4.541   5.274  11.558 -0.0041  0.6419 -0.0153
 3380TIP3   OH231554   1.065   3.234  16.085 -0.2827  0.4811 -0.4971
 3380TIP3    H131555   1.086   3.325  16.066 -0.2207  0.2309 -1.7198
 3380TIP3    H231556   1.039   3.197  16.001 -2.1148 -0.1739  0.2917
 3381TIP3   OH231557   1.709   3.822  16.249  0.2585 -0.0001  0.5033
 3381TIP3    H131558   1.774   3.873  16.200 -0.4928  0.3464 -0.1544
 3381TIP3    H231559   1.717   3.853  16.339 -1.3317  2.5781 -0.1390
 3382TIP3   OH231560   5.594   6.058  14.400 -0.1105  0.3342  0.2481
 3382TIP3    H131561   5.620   6.135  14.351 -0.1425  1.3472  1.7419
 3382TIP3    H231562   5.523   6.019  14.349 -0.3165  1.4866 -0.3766
 3383TIP3   OH231563   2.828   6.251   3.709  0.1920 -0.2685  0.6085
 3383TIP3    H131564   2.768   6.225   3.640 -1.4666  0.9590  1.5295
 3383TIP3    H231565   2.797   6.206   3.787 -1.1452  2.2447  1.6442
 3384TIP3   OH231566   1.199   1.578  14.051 -0.4822  0.3300  0.9888
 3384TIP3    H131567   1.120   1.558  14.101  0.0744 -2.4074  0.9318
 3384TIP3    H231568   1.270   1.571  14.114 -0.0516 -0.0274  0.4732
 3385TIP3   OH231569   2.116   1.700  12.316  0.3161  0.4592  0.1314
 3385TIP3    H131570   2.124   1.623  12.372  1.1239  0.4486  0.0115
 3385TIP3    H231571   2.038   1.683  12.262  0.4191 -0.2146  0.1927
 3386TIP3   OH231572   1.542   5.842   4.577  0.2206 -0.1855  0.1357
 3386TIP3    H131573   1.605   5.905   4.612  0.2689  0.5826 -1.2741
 3386TIP3    H231574   1.458   5.889   4.578  0.0668 -0.4520  0.0135
 3387TIP3   OH231575   3.705   0.979   4.428 -0.2918  0.2946  0.6763
 3387TIP3    H131576   3.670   1.002   4.342  0.0184 -3.0671 -0.5167
 3387TIP3    H231577   3.633   0.932   4.470  0.2759  0.0152  1.3409
 3388TIP3   OH231578   3.245   2.352   0.650  0.0240 -0.2105  0.5064
 3388TIP3    H131579   3.307   2.316   0.714  0.5673  0.2131  0.2295
 3388TIP3    H231580   3.296   2.418   0.603  0.0325 -1.4059 -1.2385
 3389TIP3   OH231581   1.885   1.378  15.859 -0.3068  0.1834  0.0741
 3389TIP3    H131582   1.800   1.400  15.820  0.6315  1.7859 -1.1688
 3389TIP3    H231583   1.865   1.362  15.951 -2.3279 -2.0311 -0.6288
 3390TIP3   OH231584   4.968   6.650  13.450 -0.3573 -0.1513  0.0527
 3390TIP3    H131585   5.051   6.609  13.474 -0.1621 -1.8710 -3.0558
 3390TIP3    H231586   4.963   6.728  13.505  3.5270  0.2427  0.1010
 3391TIP3   OH231587   3.659   3.009  12.793  0.5062  0.1223  0.0840
 3391TIP3    H131588   3.698   2.951  12.858  0.9969 -0.8576 -1.0516
 3391TIP3    H231589   3.645   2.954  12.717  1.6434  1.6336 -1.2919
 3392TIP3   OH231590   4.000   3.642  15.429  0.6132  0.2621  0.4749
 3392TIP3    H131591   3.934   3.626  15.362 -0.0174 -0.4240  1.2413
 3392TIP3    H231592   3.983   3.576  15.496  0.3750  1.7443  1.9454
 3393TIP3   OH231593   1.265   5.700   1.162 -0.5349  0.0725 -0.1968
 3393TIP3    H131594   1.254   5.673   1.071 -0.0562  1.2483 -0.6271
 3393TIP3    H231595   1.328   5.772   1.158  0.2789 -0.5196  1.1754
 3394TIP3   OH231596   4.208   1.487   5.215 -0.1044  0.2413 -0.0497
 3394TIP3    H131597   4.271   1.552   5.246 -0.4320 -0.9066  3.4411
 3394TIP3    H231598   4.241   1.403   5.247 -2.9883 -0.4781  1.4320
 3395TIP3   OH231599   4.457   5.427   0.579 -0.3588 -0.0468 -0.0011
 3395TIP3    H131600   4.415   5.412   0.495  1.3336  1.2952 -1.1491
 3395TIP3    H231601   4.425   5.512   0.608 -0.3890 -0.1802  0.3700
 3396TIP3   OH231602   0.688   3.074   5.135 -0.1153  0.1640  0.0232
 3396TIP3    H131603   0.749   3.130   5.184 -1.0619 -0.2726  1.8021
 3396TIP3    H231604   0.677   2.996   5.190 -0.2834 -0.9330 -1.5030
 3397TIP3   OH231605   1.393   5.928   0.843 -0.2814  0.4647 -0.2665
 3397TIP3    H131606   1.440   5.935   0.760  0.6916  3.1382  0.4074
 3397TIP3    H231607   1.303   5.907   0.818 -0.1609  1.8475 -2.0679
 3398TIP3   OH231608   5.902   0.210   2.803  0.4964 -0.5200 -0.0260
 3398TIP3    H131609   5.887   0.205   2.897  0.6100 -1.0930 -0.0345
 3398TIP3    H231610   5.929   0.301   2.788 -1.3404  0.1040  0.2166
 3399TIP3   OH231611   2.481   1.521   5.303  0.5117 -0.3203 -0.9800
 3399TIP3    H131612   2.557   1.463   5.310  0.0088 -0.9924 -0.9326
 3399TIP3    H231613   2.518   1.608   5.290  1.3257 -0.4392  0.3543
 3400TIP3   OH231614   4.261   3.427   2.788  0.5316 -0.3321  0.5599
 3400TIP3    H131615   4.238   3.519   2.799  0.5498 -0.3669  0.9028
 3400TIP3    H231616   4.301   3.402   2.872  2.2192 -0.1570 -0.1561
 3401TIP3   OH231617   5.029   0.470  14.374  0.2929  0.5281  0.0460
 3401TIP3    H131618   4.974   0.422  14.436 -0.1925  0.6855 -0.2612
 3401TIP3    H231619   5.113   0.481  14.420 -0.9504  3.2663  1.9149
 3402TIP3   OH231620   3.261   6.091   1.891 -0.3380  0.0600  0.3135
 3402TIP3    H131621   3.181   6.101   1.839  0.4685 -0.4511 -1.1129
 3402TIP3    H231622   3.305   6.175   1.884 -0.8712  0.4314  1.3331
 3403TIP3   OH231623   2.513   4.168  16.255  0.5206 -0.1169  0.2167
 3403TIP3    H131624   2.592   4.194  16.208 -0.4826  1.2028 -0.8108
 3403TIP3    H231625   2.493   4.080  16.222  1.1079 -0.1286 -0.1194
 3404TIP3   OH231626   3.917   6.082   5.138  0.1228 -0.1246 -0.4140
 3404TIP3    H131627   3.904   6.165   5.182  0.3097 -0.2953 -0.0344
 3404TIP3    H231628   4.009   6.083   5.112 -0.4763  0.9095 -2.7393
 3405TIP3   OH231629   0.777   3.731   5.498  0.2413 -0.2705 -0.0705
 3405TIP3    H131630   0.849   3.793   5.490 -0.4395  0.4994 -0.3550
 3405TIP3    H231631   0.739   3.750   5.584  0.6545 -0.9902  0.2814
 3406TIP3   OH231632   0.942   6.636   1.721  0.3268 -0.1328  0.3892
 3406TIP3    H131633   0.890   6.609   1.645  1.3664 -3.1672  0.6176
 3406TIP3    H231634   0.902   6.589   1.795  0.3360  1.4828  1.4674
 3407TIP3   OH231635   3.374   6.792  11.812  0.6383  0.4135 -0.1578
 3407TIP3    H131636   3.333   6.770  11.728 -0.0514  0.0828  0.2520
 3407TIP3    H231637   3.415   6.710  11.841 -1.9511 -0.4476  1.3838
 3408TIP3   OH231638   2.339   6.469  11.415 -0.4919  0.1898 -0.4517
 3408TIP3    H131639   2.345   6.497  11.323 -0.0449 -0.8803 -0.7731
 3408TIP3    H231640   2.406   6.401  11.423 -3.0364 -2.5230 -0.3941
 3409TIP3   OH231641   2.991   1.522   6.301 -0.7187  0.7404  0.2407
 3409TIP3    H131642   3.007   1.508   6.394 -1.3399  1.2127  0.4253
 3409TIP3    H231643   2.904   1.485   6.285 -0.7453  0.9346 -0.0836
 3410TIP3   OH231644   3.723   1.451   4.484 -0.1527  0.7373  0.2480
 3410TIP3    H131645   3.748   1.450   4.576  1.4322  1.0136 -0.1565
 3410TIP3    H231646   3.755   1.368   4.449 -0.5389  0.7369 -0.1180
 3411TIP3   OH231647   5.758   1.972  12.999 -0.5916  0.1304 -0.6767
 3411TIP3    H131648   5.759   2.030  13.075 -0.2302 -2.7748  1.7145
 3411TIP3    H231649   5.839   1.922  13.006 -1.1882 -1.1277 -2.2026
 3412TIP3   OH231650   1.884   3.055   4.087 -0.1086  0.0564  0.2961
 3412TIP3    H131651   1.905   3.110   4.163 -1.4745  0.0767  0.6794
 3412TIP3    H231652   1.789   3.045   4.090 -0.0474 -1.0006 -0.6981
 3413TIP3   OH231653   4.858   3.551   2.796 -0.0020  0.0901  0.2887
 3413TIP3    H131654   4.765   3.545   2.775  0.1101 -0.2777 -0.1180
 3413TIP3    H231655   4.901   3.562   2.711  0.3876 -0.5383  0.4000
 3414TIP3   OH231656   1.036   5.089  12.047  0.0884  0.3798 -0.1283
 3414TIP3    H131657   1.012   5.139  12.125 -1.1193 -1.3279  0.6752
 3414TIP3    H231658   1.000   5.001  12.063  3.9792 -1.5001 -0.4158
 3415TIP3   OH231659   1.592   3.169   3.900  0.3858  0.3680  0.2023
 3415TIP3    H131660   1.629   3.256   3.916  2.3940 -0.4996  0.6690
 3415TIP3    H231661   1.560   3.172   3.810 -1.4556  2.1622  0.8523
 3416TIP3   OH231662   4.121   2.343   5.701  0.3461  0.2293  0.0927
 3416TIP3    H131663   4.209   2.320   5.671  0.4363  2.0300 -1.2055
 3416TIP3    H231664   4.075   2.372   5.622 -0.8345  1.0010  1.0263
 3417TIP3   OH231665   2.371   4.735  15.491 -0.1630  0.0298  0.7357
 3417TIP3    H131666   2.390   4.674  15.419 -0.4435 -0.1762  0.8345
 3417TIP3    H231667   2.283   4.710  15.521 -1.0270  1.6223 -0.3614
 3418TIP3   OH231668   2.002   2.769   6.414 -0.0417  0.3386 -0.2524
 3418TIP3    H131669   1.918   2.768   6.461  0.1207 -1.6520  0.0786
 3418TIP3    H231670   1.977   2.768   6.322 -0.3552  1.9192 -0.2155
 3419TIP3   OH231671   2.705   5.667   1.647  0.0421  0.4891 -0.2530
 3419TIP3    H131672   2.684   5.677   1.740  1.7505  0.3682  0.1673
 3419TIP3    H231673   2.761   5.742   1.628  2.5171 -1.2835 -0.2975
 3420TIP3   OH231674   1.984   5.152  14.869  0.0065  0.0677 -0.2459
 3420TIP3    H131675   2.046   5.168  14.940 -0.3417  1.8188 -0.2816
 3420TIP3    H231676   2.023   5.196  14.794 -0.4993 -0.2241 -0.6810
 3421TIP3   OH231677   5.656   6.798   4.336 -0.2472  0.3700 -0.0413
 3421TIP3    H131678   5.743   6.826   4.365 -0.2044  1.9399 -1.4957
 3421TIP3    H231679   5.630   6.730   4.398  1.5006  0.7253  1.1464
 3422TIP3   OH231680   0.660   3.483  10.944  0.1259 -0.9625 -0.1163
 3422TIP3    H131681   0.636   3.562  10.896 -2.6675 -0.9655  1.1096
 3422TIP3    H231682   0.599   3.416  10.913  0.6899 -1.9346  0.8052
 3423TIP3   OH231683   3.477   6.068  17.082  0.2070  0.3922  0.1525
 3423TIP3    H131684   3.549   6.115  17.124  1.4515 -0.6961 -0.6913
 3423TIP3    H231685   3.421   6.040  17.155  2.7377 -2.1805  1.3004
 3424TIP3   OH231686   4.335   5.978   3.331 -0.8633  0.0100 -0.1948
 3424TIP3    H131687   4.281   5.963   3.409  2.2220 -0.6812  2.0065
 3424TIP3    H231688   4.403   6.039   3.360 -0.5954  1.1636 -2.9231
 3425TIP3   OH231689   1.815   0.121   4.757  0.1591  0.0370 -0.0325
 3425TIP3    H131690   1.736   0.097   4.805 -1.8932  0.9444 -2.6693
 3425TIP3    H231691   1.830   0.213   4.780  0.2576 -0.0341  0.1943
 3426TIP3   OH231692   5.348   3.989   5.731  0.0240 -0.5931 -0.2436
 3426TIP3    H131693   5.297   4.057   5.687 -0.6563 -1.8060 -1.4114
 3426TIP3    H231694   5.298   3.967   5.809  0.5223  0.5917  0.4358
 3427TIP3   OH231695   3.402   4.097   5.876  0.2859 -0.2344  0.5363
 3427TIP3    H131696   3.317   4.139   5.860  0.9489  1.2934  0.8741
 3427TIP3    H231697   3.430   4.067   5.790 -1.5867 -2.7952  0.7310
 3428TIP3   OH231698   2.446   0.212  10.775 -0.2638  0.3468 -0.0233
 3428TIP3    H131699   2.351   0.206  10.766 -0.2605 -0.5889  0.4365
 3428TIP3    H231700   2.475   0.121  10.779  0.6822  0.6254 -0.4331
 3429TIP3   OH231701   3.227   5.880  16.083 -0.3995  0.6877 -0.1075
 3429TIP3    H131702   3.185   5.813  16.029  0.1402  2.3034 -2.7006
 3429TIP3    H231703   3.281   5.930  16.022  3.1942  0.4828  2.5496
 3430TIP3   OH231704   1.329   0.955  11.270 -0.0218 -0.2179 -0.0076
 3430TIP3    H131705   1.393   0.894  11.235 -0.4478 -0.4328 -0.4180
 3430TIP3    H231706   1.340   1.034  11.217  1.4523  0.5743  1.3745
 3431TIP3   OH231707   6.684   4.858   1.091  0.5076  0.2980 -0.0662
 3431TIP3    H131708   6.705   4.769   1.122 -0.4395  0.7059  1.8763
 3431TIP3    H231709   6.613   4.845   1.028  0.7300 -0.3479 -0.1988
 3432TIP3   OH231710   5.497   3.499   6.214  0.3368  0.0385  0.2041
 3432TIP3    H131711   5.494   3.587   6.250  0.1737  0.0329  0.2065
 3432TIP3    H231712   5.421   3.493   6.157  0.4481 -0.0410  0.0622
 3433TIP3   OH231713   4.478   3.046   5.694  0.5196 -0.1934 -0.0801
 3433TIP3    H131714   4.490   3.134   5.730  2.1317  0.1766 -1.3812
 3433TIP3    H231715   4.418   3.003   5.755 -0.4281  1.8422  0.5008
 3434TIP3   OH231716   3.258   4.969   0.273  0.2725  0.0747 -0.5379
 3434TIP3    H131717   3.172   4.955   0.311 -0.5746  0.9956 -1.9957
 3434TIP3    H231718   3.314   4.993   0.347 -0.5336 -1.1923  0.5274
 3435TIP3   OH231719   3.739   3.086  15.924 -0.8683 -0.0205 -0.3128
 3435TIP3    H131720   3.694   3.116  16.002  0.5268  1.6670 -0.0981
 3435TIP3    H231721   3.730   3.158  15.862  1.4813  0.4112 -0.2373
 3436TIP3   OH231722   2.228   5.754   5.494  0.6604 -0.3768 -0.2301
 3436TIP3    H131723   2.193   5.842   5.510  3.3376  1.4457 -3.0721
 3436TIP3    H231724   2.323   5.765   5.497  1.0899 -3.1171 -1.0173
 3437TIP3   OH231725   5.981   0.364   0.768  0.3610  0.7285  0.2662
 3437TIP3    H131726   6.005   0.456   0.779 -1.8401  1.2013  1.7814
 3437TIP3    H231727   5.931   0.343   0.847  0.7594 -1.7726 -0.0689
 3438TIP3   OH231728   1.878   1.297  16.121 -0.4631 -0.1484 -0.2703
 3438TIP3    H131729   1.944   1.230  16.102 -0.3198  0.3288 -1.5480
 3438TIP3    H231730   1.826   1.259  16.192 -0.0847 -1.4015 -0.6327
 3439TIP3   OH231731   4.707   6.768  13.382  0.1844  0.4490 -0.2452
 3439TIP3    H131732   4.669   6.735  13.301  0.3040 -1.5049  0.4310
 3439TIP3    H231733   4.775   6.704  13.404  0.5981  1.2950  1.0553
 3440TIP3   OH231734   3.572   1.744  15.736 -0.3189  0.0024 -0.0657
 3440TIP3    H131735   3.589   1.650  15.726 -0.1316  0.0947 -0.6126
 3440TIP3    H231736   3.496   1.761  15.680  0.3242  0.3870 -0.8387
 3441TIP3   OH231737   6.027   1.035   1.687  0.5201  0.3899  0.6889
 3441TIP3    H131738   5.942   1.026   1.731  0.9481 -1.1953  1.2582
 3441TIP3    H231739   6.034   1.129   1.667 -1.1124  0.6310  1.1195
 3442TIP3   OH231740   5.418   5.758  16.659 -0.2821  0.3447 -0.0126
 3442TIP3    H131741   5.332   5.789  16.629 -0.7605 -0.6692  0.2597
 3442TIP3    H231742   5.398   5.704  16.735  0.8501  2.2894  1.7631
 3443TIP3   OH231743   2.744   0.318  15.680 -0.0075 -0.1743 -0.3564
 3443TIP3    H131744   2.807   0.330  15.609  0.3022 -0.0259 -0.0639
 3443TIP3    H231745   2.666   0.283  15.638 -0.4946  1.6451 -1.0613
 3444TIP3   OH231746   1.198   0.247  12.615 -0.1435  0.0773 -0.2353
 3444TIP3    H131747   1.293   0.238  12.624 -0.1156 -0.3691 -0.8976
 3444TIP3    H231748   1.186   0.330  12.570 -0.0508 -0.0334 -0.4639
 3445TIP3   OH231749   4.682   2.038  14.586 -0.1238 -0.0027 -1.0835
 3445TIP3    H131750   4.775   2.017  14.573 -0.2608 -1.8393  0.4632
 3445TIP3    H231751   4.635   1.967  14.543 -0.8092  0.6701 -1.4551
 3446TIP3   OH231752   3.822   3.661   5.389 -0.1457  0.1937  0.4100
 3446TIP3    H131753   3.820   3.718   5.313 -0.1808 -0.1397  0.1588
 3446TIP3    H231754   3.882   3.590   5.364 -0.8507 -0.3906  0.3488
 3447TIP3   OH231755   0.209   5.611   5.486 -0.2722 -0.8067  0.9640
 3447TIP3    H131756   0.202   5.666   5.564 -1.2529 -0.2663  0.5061
 3447TIP3    H231757   0.294   5.634   5.448  0.4417 -1.4203  2.1085
 3448TIP3   OH231758   3.822   5.292  12.721  0.3173  0.5705  0.1679
 3448TIP3    H131759   3.764   5.357  12.761  0.0089  1.9444 -2.2707
 3448TIP3    H231760   3.897   5.286  12.780 -1.1573  0.5689  2.1563
 3449TIP3   OH231761   1.313   6.641  13.373 -0.2605 -0.3522 -0.0329
 3449TIP3    H131762   1.323   6.645  13.278  0.4131  0.8925  0.0769
 3449TIP3    H231763   1.401   6.659  13.408 -0.6631  0.0118  0.8333
 3450TIP3   OH231764   6.589   3.196  11.246 -0.1633 -0.7901 -0.7509
 3450TIP3    H131765   6.548   3.120  11.204 -0.3551 -0.6287 -0.8549
 3450TIP3    H231766   6.555   3.195  11.336 -1.1559 -0.1027 -1.1024
 3451TIP3   OH231767   5.674   3.754  14.135 -0.1798  0.2527 -0.0084
 3451TIP3    H131768   5.627   3.830  14.169  1.3958  1.0592  0.4414
 3451TIP3    H231769   5.719   3.787  14.057 -0.8161 -0.6605 -0.7795
 3452TIP3   OH231770   2.797   0.513  14.693  0.1299  0.3179  0.3594
 3452TIP3    H131771   2.722   0.558  14.732  0.0974 -0.5944  1.3839
 3452TIP3    H231772   2.871   0.571  14.710 -0.0197  0.2967  1.1034
 3453TIP3   OH231773   3.522   2.288   1.616  0.2640  0.8847 -0.2079
 3453TIP3    H131774   3.510   2.202   1.577  1.8217  0.1897  0.7694
 3453TIP3    H231775   3.468   2.287   1.695  2.6309 -0.4337  1.5261
 3454TIP3   OH231776   0.014   6.623   5.090 -0.5312 -0.7427  0.0833
 3454TIP3    H131777   0.001   6.610   5.184  2.1154  2.4117  1.1028
 3454TIP3    H231778   0.085   6.563   5.067  1.9381  1.4216  1.3624
 3455TIP3   OH231779   6.392   4.164   0.649  0.3531 -0.4918  0.5685
 3455TIP3    H131780   6.411   4.093   0.588  0.2809  0.9808 -1.2900
 3455TIP3    H231781   6.296   4.165   0.654  0.0830  1.5562 -2.2469
 3456TIP3   OH231782   0.872   3.458   1.300 -0.4044  0.3583  0.1692
 3456TIP3    H131783   0.869   3.391   1.232  1.0080 -0.0656  0.4905
 3456TIP3    H231784   0.788   3.504   1.292 -1.0556 -0.9065 -0.5931
 3457TIP3   OH231785   6.530   2.115   3.885 -0.0346 -0.2503 -0.1561
 3457TIP3    H131786   6.555   2.035   3.839  0.5989 -0.0660 -0.1381
 3457TIP3    H231787   6.481   2.084   3.962 -1.6400 -0.5452 -1.2463
 3458TIP3   OH231788   0.190   0.773   1.551 -0.0548 -0.1797  0.1778
 3458TIP3    H131789   0.177   0.796   1.643  1.2284 -0.8763  0.5483
 3458TIP3    H231790   0.209   0.680   1.552  2.9539  0.3256 -0.4549
 3459TIP3   OH231791   3.915   3.504  12.836  0.2454  0.1504  0.0060
 3459TIP3    H131792   3.945   3.474  12.922 -0.9029  1.2687  0.8477
 3459TIP3    H231793   3.820   3.506  12.844  0.1436  0.5267 -1.2042
 3460TIP3   OH231794   4.397   4.861  12.171  0.6295 -0.4469 -0.5243
 3460TIP3    H131795   4.453   4.897  12.240 -1.5700  1.6647  0.3300
 3460TIP3    H231796   4.341   4.798  12.217  0.8723 -0.9576 -0.9248
 3461TIP3   OH231797   6.185   6.187   0.238  0.4943 -0.1567  0.6786
 3461TIP3    H131798   6.202   6.260   0.298  0.6274 -1.0333  1.7262
 3461TIP3    H231799   6.090   6.190   0.224  0.7073  1.4328 -0.9183
 3462TIP3   OH231800   2.872   0.277   4.714  0.1548  0.5003  0.4116
 3462TIP3    H131801   2.900   0.343   4.650 -0.8047  1.6779  1.1367
 3462TIP3    H231802   2.788   0.310   4.746 -1.3147 -2.0481 -0.5404
 3463TIP3   OH231803   0.592   5.257   1.537 -0.6944 -0.3723 -0.0377
 3463TIP3    H131804   0.615   5.257   1.444 -3.3201  2.4563 -0.8612
 3463TIP3    H231805   0.674   5.274   1.583  0.3307  0.3793 -2.0378
 3464TIP3   OH231806   5.265   4.567   3.892 -0.0173 -0.2993 -0.1250
 3464TIP3    H131807   5.271   4.637   3.826  1.1601 -0.4449 -0.2073
 3464TIP3    H231808   5.275   4.486   3.841 -1.5654 -0.5645 -0.0558
 3465TIP3   OH231809   3.975   0.409  12.473 -0.0295  0.2236 -0.3767
 3465TIP3    H131810   3.948   0.441  12.387  0.0098  1.2304 -0.0285
 3465TIP3    H231811   3.984   0.488  12.526  0.9993 -0.2920  0.2546
 3466TIP3   OH231812   5.586   4.296   1.615 -0.6953 -0.0746  0.1199
 3466TIP3    H131813   5.645   4.278   1.541 -0.6401 -0.8485  0.3375
 3466TIP3    H231814   5.566   4.389   1.608  1.0828  0.3735  0.4088
 3467TIP3   OH231815   3.076   1.454   0.353  0.0791  0.4641  0.0532
 3467TIP3    H131816   3.062   1.360   0.345  0.7115  0.4857 -1.6102
 3467TIP3    H231817   3.098   1.467   0.445 -0.9307 -0.8744  0.5125
 3468TIP3   OH231818   4.629   5.209   3.453  0.0079 -0.4980  0.5882
 3468TIP3    H131819   4.700   5.272   3.441 -1.3022  1.3423  2.0547
 3468TIP3    H231820   4.550   5.255   3.426 -0.8620 -1.9574  0.5055
 3469TIP3   OH231821   4.521   5.775  16.148  0.4419 -0.1760  0.3541
 3469TIP3    H131822   4.615   5.772  16.127  0.3449  2.1085 -0.7109
 3469TIP3    H231823   4.519   5.790  16.243  1.2762  2.3142  0.0442
 3470TIP3   OH231824   3.831   1.483   5.647 -0.0213 -0.3955  0.0054
 3470TIP3    H131825   3.818   1.421   5.575 -0.8314  0.7459 -0.8752
 3470TIP3    H231826   3.750   1.480   5.697 -0.8340  1.2814 -1.1355
 3471TIP3   OH231827   0.150   2.881   0.333  0.2862 -0.7622  0.3750
 3471TIP3    H131828   0.236   2.854   0.368  0.7067  0.6043  0.4571
 3471TIP3    H231829   0.119   2.805   0.284  1.7304 -1.1515  0.0144
 3472TIP3   OH231830   3.547   4.046  13.670  0.3248  0.0840 -0.5162
 3472TIP3    H131831   3.576   4.129  13.635 -0.4104  1.0305  0.9968
 3472TIP3    H231832   3.455   4.060  13.693  0.2120 -1.0982 -0.1327
 3473TIP3   OH231833   1.741   4.285   5.029 -0.5082 -0.3614  0.1081
 3473TIP3    H131834   1.747   4.256   5.120 -0.2071 -0.3388  0.0964
 3473TIP3    H231835   1.651   4.316   5.019 -0.8056 -1.1848  0.1523
 3474TIP3   OH231836   6.204   6.417  16.974  0.2199  0.0687  0.2209
 3474TIP3    H131837   6.123   6.386  16.934  0.2974  1.1253 -0.8337
 3474TIP3    H231838   6.227   6.495  16.923  1.2732  0.4601  1.2509
 3475TIP3   OH231839   4.501   1.540  15.388  0.2634 -0.0028  0.6091
 3475TIP3    H131840   4.489   1.450  15.358 -0.4778  0.5863 -1.0225
 3475TIP3    H231841   4.421   1.560  15.437  0.1190 -0.0447  0.3965
 3476TIP3   OH231842   5.393   3.418   2.162  0.1881 -0.5381  0.3112
 3476TIP3    H131843   5.369   3.511   2.165  0.5408 -0.4803  2.1446
 3476TIP3    H231844   5.399   3.398   2.068  2.1360  1.8081 -0.1600
 3477TIP3   OH231845   3.879   1.956   2.410 -0.1830 -0.3173  0.0695
 3477TIP3    H131846   3.842   1.869   2.424 -0.2580  0.0366  2.5031
 3477TIP3    H231847   3.880   1.996   2.497  1.8695  1.3089 -0.6049
 3478TIP3   OH231848   2.320   6.719  15.426  0.8788 -0.7596 -0.2181
 3478TIP3    H131849   2.394   6.746  15.371  0.1241 -0.3379 -1.0666
 3478TIP3    H231850   2.355   6.650  15.481  2.0398 -0.2177 -0.2363
 3479TIP3   OH231851   3.858   1.202  14.160 -0.7819  0.0463 -0.3951
 3479TIP3    H131852   3.872   1.163  14.073 -1.3528  0.1262 -0.5308
 3479TIP3    H231853   3.869   1.296  14.147  1.9000 -0.1232  0.2011
 3480TIP3   OH231854   0.544   0.985   6.590 -0.4007  0.1581 -0.1816
 3480TIP3    H131855   0.449   0.983   6.605 -0.3045  0.3369  0.5315
 3480TIP3    H231856   0.560   1.070   6.549 -0.3876  0.7618  1.0313
 3481TIP3   OH231857   3.648   1.611  13.725  0.4608 -0.0426  0.1795
 3481TIP3    H131858   3.631   1.630  13.633  1.1003 -0.5568 -0.0581
 3481TIP3    H231859   3.621   1.520  13.736  1.1414 -0.2350  0.2926
 3482TIP3   OH231860   0.472   0.777   4.699  0.2768 -0.3808 -0.2611
 3482TIP3    H131861   0.397   0.719   4.687 -0.7396  0.8990 -0.2984
 3482TIP3    H231862   0.460   0.813   4.787  1.4433 -0.9657  0.1591
 3483TIP3   OH231863   6.253   0.565   3.690  0.7948 -0.0471 -0.7027
 3483TIP3    H131864   6.213   0.626   3.628 -1.1668 -0.7384 -0.1751
 3483TIP3    H231865   6.321   0.616   3.733  0.8889  1.0122 -2.0283
 3484TIP3   OH231866   3.820   2.391   3.064 -1.0785 -0.1199 -0.0048
 3484TIP3    H131867   3.822   2.460   3.130  1.4871  2.0921 -2.1595
 3484TIP3    H231868   3.905   2.348   3.071 -2.0589 -2.1778  0.2795
 3485TIP3   OH231869   1.515   1.900  12.904  0.3755  0.0669 -0.4568
 3485TIP3    H131870   1.469   1.982  12.888  2.8534  2.0080  1.4518
 3485TIP3    H231871   1.451   1.844  12.947 -1.2466  1.2048 -1.3135
 3486TIP3   OH231872   6.296   2.510   3.462  0.0696  0.0868 -0.1149
 3486TIP3    H131873   6.343   2.538   3.383 -0.1058  1.7685  0.3520
 3486TIP3    H231874   6.317   2.577   3.527 -1.1829 -0.3500  0.7590
 3487TIP3   OH231875   3.210   1.983  15.095 -0.6340 -0.2303 -0.1437
 3487TIP3    H131876   3.128   1.997  15.048  0.0816 -0.8932 -1.6531
 3487TIP3    H231877   3.195   1.901  15.144 -1.0324 -0.0782 -0.0013
 3488TIP3   OH231878   3.082   6.074   3.061 -0.0014  0.0033  0.1658
 3488TIP3    H131879   3.075   6.113   2.974  0.5015 -1.5952 -0.6336
 3488TIP3    H231880   3.023   6.127   3.115 -1.9522 -0.1950 -1.6051
 3489TIP3   OH231881   5.263   0.973  14.742 -0.1774  0.3413  0.4834
 3489TIP3    H131882   5.326   0.929  14.684 -0.9475 -0.9799  0.6097
 3489TIP3    H231883   5.248   0.911  14.813  0.3425  1.7261  1.8446
 3490TIP3   OH231884   0.177   4.582  13.817 -0.0463  0.3188 -0.6098
 3490TIP3    H131885   0.258   4.532  13.810  0.2025  0.6834 -0.3497
 3490TIP3    H231886   0.204   4.667  13.852 -0.5609  0.3867 -0.3731
 3491TIP3   OH231887   4.504   1.971  10.707 -0.3064  0.3162 -0.3407
 3491TIP3    H131888   4.575   1.930  10.756 -0.0282  1.8495  0.5917
 3491TIP3    H231889   4.425   1.924  10.734  0.2281 -0.8372 -0.7402
 3492TIP3   OH231890   6.712   1.559  12.604 -0.3117  0.0102 -0.8825
 3492TIP3    H131891   6.664   1.484  12.569  1.5962 -1.0015 -1.4617
 3492TIP3    H231892   6.735   1.533  12.693  0.0624  0.0621 -0.9649
 3493TIP3   OH231893   6.747   6.312  14.326 -0.4618 -1.5645 -0.2101
 3493TIP3    H131894   6.690   6.387  14.341 -0.0596 -1.5854  1.5954
 3493TIP3    H231895   6.800   6.305  14.405 -0.8585 -4.0773 -0.0720
 3494TIP3   OH231896   4.011   0.237  13.838  0.0956 -0.1023  0.4557
 3494TIP3    H131897   3.995   0.197  13.923  1.1893  0.9838  1.1965
 3494TIP3    H231898   4.106   0.242  13.831  0.0352 -0.3524 -0.9298
 3495TIP3   OH231899   6.097   4.017  16.360 -1.0716 -0.2445  0.6373
 3495TIP3    H131900   6.126   3.981  16.443  0.9808 -1.1668 -0.3956
 3495TIP3    H231901   6.042   4.092  16.383  1.5510  1.1370  2.8355
 3496TIP3   OH231902   2.867   3.643  15.046  0.1960 -0.5433 -0.3942
 3496TIP3    H131903   2.932   3.640  14.976 -0.1791  1.5841 -0.9148
 3496TIP3    H231904   2.916   3.673  15.122  0.4408 -2.0687  0.0670
 3497TIP3   OH231905   6.228   5.693   0.107  0.5072 -0.2241  0.1636
 3497TIP3    H131906   6.265   5.771   0.148  2.3507 -0.8310 -0.2700
 3497TIP3    H231907   6.196   5.640   0.180 -3.4807  2.0904  0.4007
 3498TIP3   OH231908   1.007   4.646  14.624 -0.2121 -0.5921 -0.1562
 3498TIP3    H131909   1.029   4.735  14.598  1.0306  0.1034  2.9012
 3498TIP3    H231910   0.915   4.635  14.599 -0.2053  1.3102 -1.1193
 3499TIP3   OH231911   4.653   5.769  13.751  0.5215 -0.6469 -0.2000
 3499TIP3    H131912   4.591   5.696  13.762 -0.2730 -0.1030 -0.8914
 3499TIP3    H231913   4.689   5.784  13.838 -0.7443 -0.6092  0.3299
 3500TIP3   OH231914   0.103   6.622   1.312  0.5951 -0.0299  0.4558
 3500TIP3    H131915   0.144   6.547   1.269 -0.8599 -0.9572  0.6339
 3500TIP3    H231916   0.061   6.586   1.390  0.9914  1.2064  1.2841
 3501TIP3   OH231917   5.401   6.208   3.644 -0.1211 -0.6057  0.5733
 3501TIP3    H131918   5.432   6.283   3.695  0.3014 -2.1425  2.7085
 3501TIP3    H231919   5.307   6.222   3.634 -0.2414 -0.3246  1.9347
 3502TIP3   OH231920   5.857   0.510   0.341  0.4639 -0.0396 -0.2052
 3502TIP3    H131921   5.835   0.553   0.258  0.9724 -0.7840 -0.7352
 3502TIP3    H231922   5.806   0.429   0.340 -1.7353  1.2288  1.5168
 3503TIP3   OH231923   2.417   2.493   0.488  0.1419  0.1101 -0.1356
 3503TIP3    H131924   2.395   2.433   0.417  2.9040  0.2843 -1.2568
 3503TIP3    H231925   2.420   2.437   0.566 -2.4211 -0.1709 -0.1697
 3504TIP3   OH231926   1.936   6.262  14.570 -0.2800  0.0650  0.3531
 3504TIP3    H131927   1.865   6.303  14.619  0.5656  1.6758  0.2902
 3504TIP3    H231928   1.991   6.221  14.636 -0.2953  0.3841  0.5627
 3505TIP3   OH231929   3.841   0.137   1.135  1.3009  0.2626 -0.2753
 3505TIP3    H131930   3.788   0.071   1.089  0.0062  1.5111 -0.6549
 3505TIP3    H231931   3.885   0.088   1.204  2.5925 -1.5191 -2.2160
 3506TIP3   OH231932   3.308   5.416   3.495  0.1094  0.6535  0.6807
 3506TIP3    H131933   3.348   5.406   3.408 -0.1017 -0.0647  0.6611
 3506TIP3    H231934   3.224   5.458   3.478 -0.1024  0.1602  0.4920
 3507TIP3   OH231935   4.105   3.432   4.890  0.3897 -0.1576  0.3363
 3507TIP3    H131936   4.083   3.380   4.813  2.1498  0.6043 -0.7533
 3507TIP3    H231937   4.193   3.466   4.872  0.1943  1.3887  1.9583
 3508TIP3   OH231938   1.264   0.134   4.035  0.2309 -0.1895  0.2092
 3508TIP3    H131939   1.294   0.224   4.047  1.5746 -0.5542 -0.2966
 3508TIP3    H231940   1.325   0.081   4.086  0.4815 -0.9525 -0.8428
 3509TIP3   OH231941   3.437   2.025   0.350  0.8340  0.0370  0.4872
 3509TIP3    H131942   3.477   2.040   0.435  1.6857  1.4205 -0.1095
 3509TIP3    H231943   3.343   2.028   0.366  0.9760 -0.7218  1.5224
 3510TIP3   OH231944   4.801   6.570   3.930  0.2892  0.0455 -0.0222
 3510TIP3    H131945   4.840   6.501   3.983  0.1043 -0.1487 -0.1379
 3510TIP3    H231946   4.857   6.575   3.852  2.0334  1.9774  1.2237
 3511TIP3   OH231947   3.822   2.124  11.565  0.1160 -0.1969  0.4819
 3511TIP3    H131948   3.801   2.032  11.581  1.6109 -0.7330 -0.3805
 3511TIP3    H231949   3.738   2.168  11.562 -0.6381 -1.5488  0.8586
 3512TIP3   OH231950   3.813   4.668   2.194 -0.1536  0.0863  0.0267
 3512TIP3    H131951   3.749   4.740   2.189 -0.7132 -0.3326  1.0050
 3512TIP3    H231952   3.890   4.708   2.235  0.3663  0.6743 -1.4400
 3513TIP3   OH231953   0.139   6.742  16.122  0.4532  0.6697 -0.1681
 3513TIP3    H131954   0.081   6.756  16.196 -0.3002  1.5497 -0.9032
 3513TIP3    H231955   0.198   6.671  16.150 -0.9017 -0.1784  0.6274
 3514TIP3   OH231956   4.648   5.607  12.037 -0.8241 -0.4262 -0.0122
 3514TIP3    H131957   4.568   5.632  11.990 -0.7483 -0.4106 -0.1344
 3514TIP3    H231958   4.636   5.643  12.125 -0.5305  0.4142 -0.3100
 3515TIP3   OH231959   6.531   3.579  14.107 -0.7940  0.0720 -0.1337
 3515TIP3    H131960   6.536   3.571  14.203  0.2345 -1.9520 -0.2865
 3515TIP3    H231961   6.517   3.672  14.091  0.0336  0.6234  1.9656
 3516TIP3   OH231962   3.758   2.278  14.543  0.2520 -0.3889 -0.0232
 3516TIP3    H131963   3.819   2.207  14.562  0.9648  0.4173  0.7922
 3516TIP3    H231964   3.676   2.250  14.582  0.7052 -0.4677  0.9011
 3517TIP3   OH231965   6.376   0.408   1.413  0.1355  0.0875  0.3450
 3517TIP3    H131966   6.363   0.370   1.326 -0.1458 -0.0994  0.4659
 3517TIP3    H231967   6.301   0.465   1.426 -0.5936 -0.9924  1.0436
 3518TIP3   OH231968   0.195   0.335  11.403 -0.0599 -0.4663 -0.1188
 3518TIP3    H131969   0.290   0.342  11.410 -0.1554  0.8755 -0.0151
 3518TIP3    H231970   0.180   0.295  11.318  0.5303  2.3141 -1.6285
 3519TIP3   OH231971   6.331   3.032   3.203 -0.3002  0.0140 -0.3864
 3519TIP3    H131972   6.346   2.954   3.256  0.2266 -0.3259 -1.0163
 3519TIP3    H231973   6.406   3.089   3.220 -0.7551  0.4582  0.1826
 3520TIP3   OH231974   1.824   1.693  11.624 -0.0730 -0.8063  0.2870
 3520TIP3    H131975   1.751   1.730  11.574  0.8373  1.4760  0.5327
 3520TIP3    H231976   1.897   1.753  11.608  0.2185  0.2693  4.4953
 3521TIP3   OH231977   1.186   6.035   0.490  0.4528 -0.0356 -0.0982
 3521TIP3    H131978   1.227   6.105   0.440 -0.2970  1.0428  0.7537
 3521TIP3    H231979   1.233   5.956   0.464  0.2156  0.5033 -2.3438
 3522TIP3   OH231980   2.358   0.156  14.305  0.7612  0.3293 -0.8608
 3522TIP3    H131981   2.414   0.223  14.267  0.0880  1.3103 -0.1706
 3522TIP3    H231982   2.269   0.183  14.283  0.3963  0.4678  0.6468
 3523TIP3   OH231983   2.758   1.251   1.908  0.1244  0.3678  0.4099
 3523TIP3    H131984   2.852   1.253   1.930  0.3021  3.0155 -0.2172
 3523TIP3    H231985   2.753   1.293   1.822 -1.5140 -1.2370 -0.3432
 3524TIP3   OH231986   0.776   0.833   6.569 -0.6845 -0.1874  0.3369
 3524TIP3    H131987   0.730   0.769   6.624  0.1820  0.1677  1.5092
 3524TIP3    H231988   0.723   0.912   6.573  0.1474  0.3290  1.9632
 3525TIP3   OH231989   2.034   5.230  14.497 -0.6391 -0.1422  0.1840
 3525TIP3    H131990   2.005   5.156  14.550  0.1077  0.1320  0.9964
 3525TIP3    H231991   1.956   5.284  14.487 -0.8299 -0.2805  0.8815
 3526TIP3   OH231992   3.208   3.098   0.064  0.5302 -0.1797  0.0671
 3526TIP3    H131993   3.232   3.060  -0.020 -0.3825  0.9201 -0.7355
 3526TIP3    H231994   3.205   3.193   0.047  0.2984  0.0603  1.3312
 3527TIP3   OH231995   3.911   6.428  14.626 -0.1102 -0.4299 -0.0808
 3527TIP3    H131996   3.901   6.445  14.719 -2.9434  1.9374 -0.6607
 3527TIP3    H231997   3.936   6.512  14.588 -0.9211 -0.8553 -1.6457
 3528TIP3   OH231998   3.128   1.418   4.850  0.0007 -0.3636  0.3090
 3528TIP3    H131999   3.052   1.377   4.892  0.9574  1.0721  3.8036
 3528TIP3    H232000   3.093   1.499   4.812 -0.8423 -1.5737 -1.6540
 3529TIP3   OH232001   6.799   4.752  13.128  0.1059 -0.2996 -0.3385
 3529TIP3    H132002   6.870   4.817  13.129 -0.4303  0.3678 -1.9780
 3529TIP3    H232003   6.841   4.669  13.150  1.0318  0.3963  0.5930
 3530TIP3   OH232004   5.638   1.851   4.091  0.6508 -0.3158  1.1450
 3530TIP3    H132005   5.661   1.927   4.145 -1.5766  1.5797 -0.3678
 3530TIP3    H232006   5.696   1.856   4.016 -1.6676  2.0611 -0.6563
 3531TIP3   OH232007   3.702   3.556   4.920  0.0678  0.3719 -0.0419
 3531TIP3    H132008   3.644   3.627   4.947 -0.5700 -0.0353 -0.2993
 3531TIP3    H232009   3.715   3.570   4.827 -2.3343 -1.3624 -0.7513
 3532TIP3   OH232010   1.438   2.986   2.301 -0.4287 -0.2557 -0.0228
 3532TIP3    H132011   1.481   3.019   2.380 -0.6426  1.5031 -0.6026
 3532TIP3    H232012   1.346   2.979   2.325 -0.2485 -1.3966  0.3890
 3533TIP3   OH232013   1.832   1.257   4.727 -0.1189  0.0537 -0.1460
 3533TIP3    H132014   1.840   1.323   4.796 -2.2062 -1.2108  1.4412
 3533TIP3    H232015   1.914   1.208   4.732 -0.9596 -1.2930  2.9657
 3534TIP3   OH232016   3.102   5.760   5.170 -0.1957 -0.2400  0.1642
 3534TIP3    H132017   3.051   5.838   5.147  0.9847  0.3869 -0.4241
 3534TIP3    H232018   3.044   5.687   5.152 -0.8090  0.4449 -0.7193
 3535TIP3   OH232019   2.929   4.847   3.794  0.4691 -0.1192 -0.3237
 3535TIP3    H132020   2.949   4.855   3.887 -1.3167  0.8857  0.0137
 3535TIP3    H232021   2.949   4.934   3.758 -2.9726  0.9562  0.0384
 3536TIP3   OH232022   5.875   4.857   0.022  0.3060  0.2101 -0.8230
 3536TIP3    H132023   5.865   4.896  -0.065 -0.1672 -0.4029 -1.0474
 3536TIP3    H232024   5.892   4.932   0.080 -1.2204  0.8209 -1.1334
 3537TIP3   OH232025   1.793   2.326  15.132  0.4878 -0.4105  0.4056
 3537TIP3    H132026   1.821   2.311  15.042  0.3175 -1.5667  0.5272
 3537TIP3    H232027   1.831   2.411  15.155 -0.0247  0.2313 -0.9704
 3538TIP3   OH232028   6.750   1.858   0.646 -0.6321 -0.1714  0.3815
 3538TIP3    H132029   6.758   1.763   0.641 -1.0051 -0.1944  0.1438
 3538TIP3    H232030   6.820   1.885   0.704  0.7349 -0.4055 -1.0815
 3539TIP3   OH232031   3.087   0.330  12.192 -0.4592 -0.0414  0.3073
 3539TIP3    H132032   3.017   0.274  12.158 -0.6605 -0.2549  1.0601
 3539TIP3    H232033   3.045   0.415  12.203 -0.3099  0.1137 -0.2615
 3540TIP3   OH232034   3.984   5.755  15.420  0.0399  0.0464 -0.3246
 3540TIP3    H132035   3.904   5.752  15.367 -0.2603 -1.3934  0.1596
 3540TIP3    H232036   4.050   5.712  15.366 -0.7811 -3.4838  1.1553
 3541TIP3   OH232037   1.410   2.283   0.948 -0.5788 -0.3891  0.6472
 3541TIP3    H132038   1.342   2.332   0.993 -0.1738  0.9800 -0.1702
 3541TIP3    H232039   1.374   2.266   0.861  0.9579  2.4890 -0.6699
 3542TIP3   OH232040   4.566   3.964  12.772  0.0512 -0.3739 -0.1788
 3542TIP3    H132041   4.594   3.920  12.691 -0.4250 -0.7325 -0.1560
 3542TIP3    H232042   4.578   3.897  12.840  0.2329 -0.1481  0.0097
 3543TIP3   OH232043   6.070   2.088   6.430  0.1526  0.0431 -0.4075
 3543TIP3    H132044   6.155   2.076   6.386 -0.0495 -0.1052 -0.7636
 3543TIP3    H232045   6.047   2.001   6.463  0.4580  0.2210  0.2849
 3544TIP3   OH232046   1.927   5.139  10.838  0.0984 -0.0812 -0.1255
 3544TIP3    H132047   2.013   5.128  10.797  0.5420 -0.1091  0.7922
 3544TIP3    H232048   1.946   5.179  10.923 -0.6816 -1.3015  0.6500
 3545TIP3   OH232049   3.107   1.205  12.391 -0.0874 -0.2793 -0.5963
 3545TIP3    H132050   3.196   1.241  12.392  0.1521 -0.8432  0.3749
 3545TIP3    H232051   3.050   1.282  12.380  0.4413  0.3383  0.7101
 3546TIP3   OH232052   2.169   0.354   4.768  0.0556  0.3357  0.2999
 3546TIP3    H132053   2.209   0.379   4.851  1.5718 -2.0120  0.3728
 3546TIP3    H232054   2.106   0.286   4.791 -1.1079  1.1820 -0.2801
 3547TIP3   OH232055   3.181   4.726  13.472 -0.2329  0.0531 -0.6534
 3547TIP3    H132056   3.123   4.696  13.542 -1.9065  1.3868 -1.3706
 3547TIP3    H232057   3.249   4.776  13.517 -0.9179  0.3547  0.0708
 3548TIP3   OH232058   6.146   2.888   2.390  0.5266  0.4562 -0.3177
 3548TIP3    H132059   6.095   2.969   2.386 -1.4801 -0.6643  0.7023
 3548TIP3    H232060   6.158   2.862   2.299 -0.8685  0.6951 -0.5895
 3549TIP3   OH232061   4.208   5.262  14.291  0.0395  0.0891 -0.3361
 3549TIP3    H132062   4.156   5.342  14.298  1.1880  0.9240 -0.9448
 3549TIP3    H232063   4.221   5.234  14.382  1.6718  2.0047  0.0990
 3550TIP3   OH232064   6.287   1.764  13.972 -0.4532  0.8617 -0.0804
 3550TIP3    H132065   6.280   1.677  14.013  1.9616  0.9367  0.6262
 3550TIP3    H232066   6.205   1.808  13.995 -0.7244 -0.4062  1.5580
 3551TIP3   OH232067   3.408   4.359  16.159 -0.8108 -0.7877  0.3949
 3551TIP3    H132068   3.468   4.366  16.085  0.2184 -1.3291  1.1662
 3551TIP3    H232069   3.334   4.415  16.135 -1.0943 -1.9026 -1.6062
 3552TIP3   OH232070   6.512   0.653   5.992  0.7024 -0.0747  0.4090
 3552TIP3    H132071   6.533   0.561   6.003 -1.4202 -0.6233  0.3646
 3552TIP3    H232072   6.489   0.662   5.899 -1.0707  0.0137  0.8291
 3553TIP3   OH232073   1.095   2.796   6.336 -0.1714 -0.4533  0.5256
 3553TIP3    H132074   1.164   2.863   6.330  0.5745 -1.1036  1.5717
 3553TIP3    H232075   1.129   2.732   6.398 -1.2236 -1.4038  0.1515
 3554TIP3   OH232076   1.265   3.450  12.649  0.1694 -0.1144 -0.3756
 3554TIP3    H132077   1.346   3.488  12.613  0.3060 -0.4738 -0.4554
 3554TIP3    H232078   1.288   3.359  12.668 -0.4425 -0.4556 -1.1756
 3555TIP3   OH232079   4.703   0.794   4.792  0.0538 -0.2525 -0.0524
 3555TIP3    H132080   4.614   0.822   4.809  0.1950  0.1516  0.0294
 3555TIP3    H232081   4.694   0.721   4.730 -0.2152  1.5502 -2.2810
 3556TIP3   OH232082   3.336   1.442   3.938  0.2740 -0.1744 -0.3653
 3556TIP3    H132083   3.323   1.425   4.032  1.1311  1.7774  0.1535
 3556TIP3    H232084   3.248   1.454   3.903 -0.0720 -1.1814  0.1027
 3557TIP3   OH232085   6.487   5.261   0.609  0.5859  0.4074  0.7854
 3557TIP3    H132086   6.554   5.304   0.662  0.0875  1.3300  0.6847
 3557TIP3    H232087   6.422   5.330   0.592  1.5250  0.6614 -2.4232
 3558TIP3   OH232088   4.898   5.950   1.194  0.4709 -0.8025  0.2760
 3558TIP3    H132089   4.954   6.026   1.207  1.5980 -1.5851  0.2271
 3558TIP3    H232090   4.942   5.900   1.125 -2.0714  0.1770 -2.2391
 3559TIP3   OH232091   2.018   0.042  13.786  0.6612  0.1526 -0.2867
 3559TIP3    H132092   2.041   0.122  13.739  2.8336 -0.0763  0.2752
 3559TIP3    H232093   2.074  -0.026  13.747 -1.9992 -1.4660 -1.6289
 3560TIP3   OH232094   1.968   3.378  10.517 -0.1067 -0.0357  0.1502
 3560TIP3    H132095   1.889   3.344  10.558  0.6772 -1.8077  0.2796
 3560TIP3    H232096   2.039   3.325  10.553  1.1666  1.5411  0.0785
 3561TIP3   OH232097   0.151   0.511   3.336 -0.0097  0.4695  0.0145
 3561TIP3    H132098   0.083   0.468   3.283  0.6674 -0.3022 -0.2467
 3561TIP3    H232099   0.132   0.604   3.327 -0.9001  0.2774 -0.2387
 3562TIP3   OH232100   2.507   6.398   5.396 -0.3718 -0.2656  0.2226
 3562TIP3    H132101   2.531   6.480   5.439 -1.7587 -0.1204  0.8014
 3562TIP3    H232102   2.588   6.348   5.391  0.7121  1.4889 -0.9826
 3563TIP3   OH232103   5.916   1.164   5.275 -0.3503 -0.2873  0.2686
 3563TIP3    H132104   5.937   1.091   5.333  0.3240  0.2096  0.6709
 3563TIP3    H232105   5.835   1.138   5.232 -0.5686 -0.9049  1.0286
 3564TIP3   OH232106   5.256   2.721   2.515 -0.1620 -0.6670 -0.4676
 3564TIP3    H132107   5.247   2.628   2.536  2.0768 -0.7309  0.4340
 3564TIP3    H232108   5.298   2.722   2.429  1.2943 -0.5433  0.2199
 3565TIP3   OH232109   4.489   3.475  10.386  0.0852 -0.4513  0.4491
 3565TIP3    H132110   4.554   3.504  10.450 -0.3547  2.3689 -0.2605
 3565TIP3    H232111   4.414   3.532  10.400 -1.4117 -2.1252 -0.2785
 3566TIP3   OH232112   0.767   3.509  15.940  0.4802 -0.2037 -0.1090
 3566TIP3    H132113   0.710   3.447  15.894  0.6650 -0.0038 -0.6169
 3566TIP3    H232114   0.838   3.526  15.878  0.4832  0.4366  0.0707
 3567TIP3   OH232115   1.752   5.454  13.265  0.3076 -0.7376  1.0401
 3567TIP3    H132116   1.798   5.370  13.271  1.2219 -0.2103  1.6483
 3567TIP3    H232117   1.800   5.512  13.325  0.0597  0.3875  0.1858
 3568TIP3   OH232118   5.984   0.546  13.015  0.6913  0.8434 -0.4689
 3568TIP3    H132119   5.911   0.487  13.037  0.9835  0.4126 -0.6557
 3568TIP3    H232120   5.988   0.545  12.920  1.6562 -0.0214 -0.4363
 3569TIP3   OH232121   4.532   6.655   2.552  0.2954 -0.1004 -0.1043
 3569TIP3    H132122   4.579   6.648   2.469 -1.6062 -0.9540 -1.1522
 3569TIP3    H232123   4.600   6.679   2.616  1.7891  0.5999 -1.8813
 3570TIP3   OH232124   2.523   3.560  11.338  0.5362  0.1434  0.3877
 3570TIP3    H132125   2.507   3.577  11.245  1.8309  1.5534  0.3839
 3570TIP3    H232126   2.516   3.465  11.347  1.6431 -0.1578 -1.4191
 3571TIP3   OH232127   2.535   6.527   0.104  0.3457  0.5855 -0.7849
 3571TIP3    H132128   2.623   6.492   0.119  0.3123  1.1051  0.7555
 3571TIP3    H232129   2.514   6.576   0.183 -0.5930  2.0640 -1.8802
 3572TIP3   OH232130   5.251   3.612  13.312  0.3430 -0.3097 -0.3403
 3572TIP3    H132131   5.275   3.633  13.221 -0.1169  0.2632 -0.3395
 3572TIP3    H232132   5.229   3.697  13.350 -2.0976 -0.8062 -0.4738
 3573TIP3   OH232133   2.831   4.195   2.349  0.2437 -0.0936  0.1385
 3573TIP3    H132134   2.813   4.166   2.439 -0.2098 -2.6202 -0.6766
 3573TIP3    H232135   2.744   4.203   2.309  0.4915 -0.7618 -0.5523
 3574TIP3   OH232136   1.831   5.815  13.035 -0.4865 -0.3893 -0.0653
 3574TIP3    H132137   1.848   5.813  13.129 -0.2612 -1.6477 -0.1130
 3574TIP3    H232138   1.738   5.793  13.026 -0.8004  0.8917 -0.0900
 3575TIP3   OH232139   0.061   4.367  14.982  0.0216  0.3599 -0.0768
 3575TIP3    H132140   0.074   4.461  14.991 -0.7481  0.3880  0.9367
 3575TIP3    H232141   0.100   4.345  14.897 -2.6188  2.1077 -1.8631
 3576TIP3   OH232142   5.436   3.031  11.052 -0.0738 -0.7064 -0.1325
 3576TIP3    H132143   5.469   2.957  11.103 -0.0525 -1.6265 -1.4417
 3576TIP3    H232144   5.345   3.041  11.081 -1.5387 -4.0495 -2.8052
 3577TIP3   OH232145   0.519   2.250   5.652 -0.1550  0.2715 -0.2208
 3577TIP3    H132146   0.565   2.329   5.624  0.3196 -0.4176 -1.4446
 3577TIP3    H232147   0.463   2.227   5.578 -1.5021  0.3353  0.7312
 3578TIP3   OH232148   0.750   5.262  14.973 -0.0217  0.0441 -0.4549
 3578TIP3    H132149   0.679   5.320  14.946  0.9324  1.3288 -0.3121
 3578TIP3    H232150   0.815   5.320  15.012 -0.0236 -1.3818  1.8608
 3579TIP3   OH232151   0.772   3.377  12.954 -0.1097 -0.0041  0.3670
 3579TIP3    H132152   0.800   3.459  12.995  1.0993 -0.9589  1.5717
 3579TIP3    H232153   0.833   3.311  12.989 -0.3704 -1.2448 -1.3770
 3580TIP3   OH232154   4.269   3.461  11.624 -0.2376 -0.7036  0.3203
 3580TIP3    H132155   4.304   3.372  11.621 -1.9114 -1.5622  2.5251
 3580TIP3    H232156   4.256   3.478  11.718 -0.0135  1.8867 -0.0319
 3581TIP3   OH232157   0.310   3.365   2.566  0.2736 -0.8321 -0.5092
 3581TIP3    H132158   0.220   3.399   2.572  0.9774  0.8519  2.4851
 3581TIP3    H232159   0.346   3.407   2.488 -0.3212  1.8647  0.5520
 3582TIP3   OH232160   5.575   5.667  11.789  0.8480  0.4463  0.2282
 3582TIP3    H132161   5.615   5.753  11.800 -0.4138  1.0138  0.6199
 3582TIP3    H232162   5.513   5.679  11.717  1.6161 -0.5092 -0.6176
 3583TIP3   OH232163   0.826   5.283   2.636  0.1372 -0.2311 -0.1691
 3583TIP3    H132164   0.774   5.332   2.699 -1.8534 -1.2076 -0.9463
 3583TIP3    H232165   0.795   5.193   2.645  1.5012 -0.8012 -0.9102
 3584TIP3   OH232166   3.048   0.906  15.067  0.0270 -0.4873 -0.2458
 3584TIP3    H132167   3.062   0.820  15.106 -1.4156 -0.3391  0.6856
 3584TIP3    H232168   2.970   0.940  15.111  1.0620  1.6768  0.0570
 3585TIP3   OH232169   3.643   3.410  12.897  0.2677 -0.6172 -0.3883
 3585TIP3    H132170   3.658   3.367  12.813  0.6170  0.7370 -1.0465
 3585TIP3    H232171   3.666   3.344  12.963 -0.0053 -1.6931 -1.3403
 3586TIP3   OH232172   1.579   1.735   0.329 -0.6005  0.3954 -0.4527
 3586TIP3    H132173   1.667   1.724   0.366  0.9211 -0.1601 -3.7621
 3586TIP3    H232174   1.521   1.688   0.389  1.7828 -1.5279  0.5227
 3587TIP3   OH232175   2.934   3.075  11.178 -0.1228  0.3702 -0.2216
 3587TIP3    H132176   2.913   3.057  11.086 -0.5244  0.4033 -0.1369
 3587TIP3    H232177   3.028   3.097  11.177 -0.3598  1.4015 -0.7699
 3588TIP3   OH232178   2.093   6.035   3.724 -0.4462 -0.1215  0.5211
 3588TIP3    H132179   2.054   6.113   3.685  1.0751  1.2373  1.5732
 3588TIP3    H232180   2.084   5.968   3.657  0.4352  1.6324 -1.4751
 3589TIP3   OH232181   6.488   6.736  14.990 -0.4021  0.7745 -0.3529
 3589TIP3    H132182   6.416   6.750  15.052  0.9761 -2.0438  2.1013
 3589TIP3    H232183   6.444   6.705  14.911 -1.9755 -0.8059  1.0384
 3590TIP3   OH232184   1.825   4.039   2.773  0.3323 -0.5030 -0.1479
 3590TIP3    H132185   1.843   3.984   2.849 -0.1495  0.1950  0.4822
 3590TIP3    H232186   1.740   4.079   2.792  1.9106  2.6815  0.7389
 3591TIP3   OH232187   0.317   4.846  12.161 -0.0657  0.2738 -0.5077
 3591TIP3    H132188   0.236   4.813  12.121 -0.5915  1.0104 -0.0764
 3591TIP3    H232189   0.369   4.767  12.177 -1.0844 -0.3249  0.0486
 3592TIP3   OH232190   0.882   3.918   4.964 -0.1345 -0.3010 -0.0820
 3592TIP3    H132191   0.843   3.911   4.876 -1.4759 -3.2925  0.6341
 3592TIP3    H232192   0.848   4.001   4.998 -1.4748 -0.1918 -1.5573
 3593TIP3   OH232193   4.999   0.422  15.522  0.3095  0.2334  0.2394
 3593TIP3    H132194   4.951   0.348  15.560  0.4242 -0.5134 -1.0269
 3593TIP3    H232195   5.024   0.475  15.597  0.0077 -0.8820  1.1550
 3594TIP3   OH232196   1.972   5.757   3.229 -0.5653 -0.3862 -0.1989
 3594TIP3    H132197   2.036   5.719   3.169 -1.3594  0.4886 -1.6642
 3594TIP3    H232198   1.907   5.688   3.242  0.5463 -1.2369  1.2019
 3595TIP3   OH232199   4.286   1.862   6.417 -0.5626  0.3426  0.6455
 3595TIP3    H132200   4.349   1.815   6.362 -1.2226 -0.2330  0.3636
 3595TIP3    H232201   4.252   1.795   6.476  0.4615  1.0389  2.0821
 3596TIP3   OH232202   0.863   2.995   5.435  0.1228 -0.2814 -0.0956
 3596TIP3    H132203   0.890   3.043   5.357  1.6019 -0.7881  0.0809
 3596TIP3    H232204   0.854   3.062   5.503 -0.6187  0.0852 -0.5298
 3597TIP3   OH232205   6.436   2.480   0.398  0.3028 -0.4044  0.3385
 3597TIP3    H132206   6.516   2.436   0.370  1.5480  2.3670 -0.8337
 3597TIP3    H232207   6.378   2.477   0.322  0.6710  0.5211  0.0073
 3598TIP3   OH232208   5.834   3.397   3.707 -0.2963  0.5049 -0.4331
 3598TIP3    H132209   5.782   3.382   3.786  1.1274  0.6192  0.5525
 3598TIP3    H232210   5.776   3.449   3.650 -0.3619  2.9649  1.7064
 3599TIP3   OH232211   1.136   4.818  13.003  0.0290  0.2155 -0.4423
 3599TIP3    H132212   1.053   4.865  13.016  1.0060  1.7833  0.4369
 3599TIP3    H232213   1.128   4.740  13.059  0.2792  1.8785  2.0614
 3600TIP3   OH232214   2.186   0.411   1.834 -0.3722  0.4494 -0.1917
 3600TIP3    H132215   2.205   0.348   1.903 -0.9688  0.8816  0.3884
 3600TIP3    H232216   2.096   0.439   1.852 -0.3605  0.9300 -0.8584
 3601TIP3   OH232217   4.764   4.282   4.004  0.2785 -0.3772 -0.8490
 3601TIP3    H132218   4.777   4.314   3.915  2.1883 -0.0366 -0.4966
 3601TIP3    H232219   4.798   4.192   4.002  2.9944  0.5389  0.1252
 3602TIP3   OH232220   3.862   2.241   2.587 -0.3079 -0.4390 -0.1757
 3602TIP3    H132221   3.808   2.259   2.664 -0.1665 -0.3551 -0.0951
 3602TIP3    H232222   3.950   2.228   2.623 -0.5071 -1.9129 -0.1469
 3603TIP3   OH232223   0.802   3.033  16.851 -0.0315 -0.3879 -0.1612
 3603TIP3    H132224   0.763   3.003  16.769  0.1559  0.4663 -0.5807
 3603TIP3    H232225   0.769   2.973  16.917 -1.1544 -0.3720 -0.6761
 3604TIP3   OH232226   3.302   1.081   1.896 -0.0017 -0.5113 -0.8286
 3604TIP3    H132227   3.375   1.043   1.847  2.4511  0.0988  2.0419
 3604TIP3    H232228   3.334   1.167   1.923 -1.5811 -0.4439  1.0181
 3605TIP3   OH232229   5.174   6.308  15.281  0.7219 -0.0569  0.4292
 3605TIP3    H132230   5.086   6.282  15.307  1.0258 -0.3880  1.1404
 3605TIP3    H232231   5.186   6.395  15.320  0.9459 -0.2876  0.8807
 3606TIP3   OH232232   6.471   2.708  16.413 -0.2126 -0.2172 -0.7504
 3606TIP3    H132233   6.483   2.800  16.389  0.0909 -0.0188  0.1055
 3606TIP3    H232234   6.552   2.665  16.386 -0.1835 -0.1468 -0.7753
 3607TIP3   OH232235   0.931   0.619   0.155  0.4140  0.8409 -0.3359
 3607TIP3    H132236   0.969   0.568   0.226  0.5224  2.3101  0.7078
 3607TIP3    H232237   0.837   0.607   0.164  0.4439  0.7266 -0.1777
 3608TIP3   OH232238   0.222   4.669   1.452  0.5123  0.3271  0.2161
 3608TIP3    H132239   0.310   4.701   1.472  2.7299 -1.8506 -4.4119
 3608TIP3    H232240   0.183   4.737   1.398 -0.8375  1.3086  2.2957
 3609TIP3   OH232241   3.282   6.267   2.198 -0.0391  0.2639  0.1154
 3609TIP3    H132242   3.295   6.174   2.181  1.2731  0.3674  0.4694
 3609TIP3    H232243   3.350   6.290   2.262  1.0298  1.9102 -1.5173
 3610TIP3   OH232244   3.147   1.766  15.239 -0.0759 -0.3318  0.4602
 3610TIP3    H132245   3.083   1.702  15.206  1.5949 -2.5340  1.2161
 3610TIP3    H232246   3.105   1.804  15.315 -1.9126  1.0301 -1.1320
 3611TIP3   OH232247   2.833   6.600   3.667  0.7217 -0.1230  0.1742
 3611TIP3    H132248   2.909   6.559   3.626  1.0568 -0.3752  1.0182
 3611TIP3    H232249   2.856   6.692   3.675  1.2760 -0.3235  1.1142
 3612TIP3   OH232250   1.681   2.516   5.882  0.0739  0.4698 -0.3851
 3612TIP3    H132251   1.707   2.608   5.888  0.1259  0.4395 -0.1060
 3612TIP3    H232252   1.707   2.478   5.967  2.2525 -0.3805 -1.3594
 3613TIP3   OH232253   1.100   5.124   1.548  0.5025  0.0572 -0.3949
 3613TIP3    H132254   1.074   5.216   1.554 -1.5877 -0.4669 -0.4019
 3613TIP3    H232255   1.149   5.108   1.628  2.4254  1.5752 -1.1956
 3614TIP3   OH232256   5.072   0.170  12.075  0.1187  0.4516 -0.5203
 3614TIP3    H132257   5.097   0.128  11.993  0.2756  2.8275 -1.7926
 3614TIP3    H232258   5.149   0.160  12.132  0.8708  0.6449 -1.4764
 3615TIP3   OH232259   5.381   3.069   4.130  0.5777 -0.7326 -0.9846
 3615TIP3    H132260   5.342   3.156   4.118  1.0965 -0.7613 -3.4095
 3615TIP3    H232261   5.329   3.012   4.074  1.1325 -1.7256 -0.5148
 3616TIP3   OH232262   0.745   6.096  15.261  0.3953 -0.9743  0.9159
 3616TIP3    H132263   0.686   6.155  15.307 -0.9691  0.1952 -2.0700
 3616TIP3    H232264   0.687   6.032  15.219  1.2868 -0.5338 -1.0981
 3617TIP3   OH232265   1.615   4.562  11.191 -0.1412  0.2741 -0.0876
 3617TIP3    H132266   1.684   4.512  11.233  0.1841  0.2271 -0.6748
 3617TIP3    H232267   1.568   4.603  11.264 -1.3926 -2.0832  0.5532
 3618TIP3   OH232268   0.946   1.078   0.445  0.3326 -0.0587  0.1840
 3618TIP3    H132269   1.006   1.096   0.517  0.1433 -0.8617  0.5507
 3618TIP3    H232270   0.982   1.127   0.371  0.5548  0.7378  0.8046
 3619TIP3   OH232271   4.528   2.595  12.915  0.5544 -0.5180 -0.5567
 3619TIP3    H132272   4.520   2.648  12.836 -3.1655 -0.2367 -0.1717
 3619TIP3    H232273   4.483   2.513  12.892 -5.1944  1.2777  2.3699
 3620TIP3   OH232274   1.392   3.829   6.057  0.6327 -0.0508  0.1244
 3620TIP3    H132275   1.321   3.861   6.001  1.0213 -1.2844 -1.1329
 3620TIP3    H232276   1.450   3.904   6.067 -0.5212  0.8004  0.6583
 3621TIP3   OH232277   5.614   5.590  13.216  0.5200  0.0253 -0.2731
 3621TIP3    H132278   5.520   5.591  13.200  0.7577 -2.1113 -2.4500
 3621TIP3    H232279   5.630   5.666  13.272 -2.3718  0.8440 -0.4026
 3622TIP3   OH232280   1.805   3.854   1.397  0.0578  0.3957  0.2043
 3622TIP3    H132281   1.753   3.776   1.419  0.4238  0.6263  2.0053
 3622TIP3    H232282   1.795   3.863   1.302 -1.6733 -0.6437  0.2444
 3623TIP3   OH232283   1.834   5.904  10.488  0.0931  0.3208  0.1728
 3623TIP3    H132284   1.856   5.988  10.447 -1.1812  1.3458  1.4483
 3623TIP3    H232285   1.899   5.843  10.455  1.8193  2.0815  0.0967
 3624TIP3   OH232286   1.471   4.664   2.237 -0.0673 -0.1306 -0.2431
 3624TIP3    H132287   1.521   4.719   2.298 -0.1114 -0.1038 -0.2306
 3624TIP3    H232288   1.386   4.708   2.230 -0.8521 -1.3054  1.3579
 3625TIP3   OH232289   1.064   0.618   3.023 -0.1433 -0.6634 -0.1504
 3625TIP3    H132290   1.065   0.686   3.091 -0.7768  0.1133 -0.8875
 3625TIP3    H232291   1.003   0.552   3.056  0.5746 -0.9361  0.6334
 3626TIP3   OH232292   4.120   2.991  16.332 -0.5488  0.5000 -0.3759
 3626TIP3    H132293   4.161   2.926  16.274  1.8180 -0.3702  2.0581
 3626TIP3    H232294   4.179   3.066  16.329 -2.2430  1.8557 -1.6449
 3627TIP3   OH232295   1.586   0.587   3.869  0.4192  0.1407  0.2237
 3627TIP3    H132296   1.601   0.531   3.792 -0.1751  1.2931 -0.7645
 3627TIP3    H232297   1.538   0.662   3.835  0.1852  0.7072  1.7339
 3628TIP3   OH232298   6.780   2.344   4.711  0.4909 -0.2868  0.5267
 3628TIP3    H132299   6.820   2.336   4.797 -0.5142  0.8338  1.1277
 3628TIP3    H232300   6.831   2.412   4.667  0.1986  0.0756  0.7385
 3629TIP3   OH232301   5.911   4.733   2.639  0.1653  0.0110 -0.3123
 3629TIP3    H132302   5.939   4.797   2.575  1.0329 -0.3992 -0.3503
 3629TIP3    H232303   5.971   4.660   2.629  1.0813  0.3935  1.7503
 3630TIP3   OH232304   5.467   4.541   1.333 -0.3970  0.2078 -0.0618
 3630TIP3    H132305   5.549   4.495   1.315 -1.0567 -0.8744 -0.3756
 3630TIP3    H232306   5.441   4.576   1.248 -0.1298  0.7813  0.0896
 3631TIP3   OH232307   3.923   6.313  11.498  0.2329  0.0777 -0.2740
 3631TIP3    H132308   3.913   6.225  11.535 -0.7693 -0.2222 -1.2287
 3631TIP3    H232309   4.004   6.308  11.448 -0.8735 -0.9690 -2.0728
 3632TIP3   OH232310   0.035   5.671   6.339  0.0261 -0.2570 -0.3889
 3632TIP3    H132311  -0.046   5.718   6.321  0.5913  0.0536 -2.3903
 3632TIP3    H232312   0.011   5.606   6.405 -1.8532 -0.2053 -0.9634
 3633TIP3   OH232313   4.031   6.541  11.694 -0.2008 -0.2147  0.1753
 3633TIP3    H132314   4.051   6.594  11.617 -2.5140 -0.2495 -0.4976
 3633TIP3    H232315   3.936   6.534  11.695 -0.2218 -0.5323  2.8361
 3634TIP3   OH232316   3.559   5.363   2.939 -0.2200  0.4752  0.4726
 3634TIP3    H132317   3.495   5.291   2.943  1.3339 -1.0387 -0.5222
 3634TIP3    H232318   3.585   5.367   2.847  0.5606  1.5595  0.7249
 3635TIP3   OH232319   4.609   0.873  13.496  0.1044  0.0800  0.8373
 3635TIP3    H132320   4.679   0.813  13.471 -1.8584 -1.5713 -1.1109
 3635TIP3    H232321   4.578   0.841  13.580  0.6771 -0.1107  0.9788
 3636TIP3   OH232322   3.662   2.934   2.328  0.4138 -0.2015 -0.6753
 3636TIP3    H132323   3.616   2.864   2.281 -0.4095 -0.2312  0.1418
 3636TIP3    H232324   3.743   2.893   2.358  0.1391 -0.6872 -0.5735
 3637TIP3   OH232325   1.537   5.063   4.679  0.2018  0.0087  0.7089
 3637TIP3    H132326   1.570   4.983   4.720  0.1262 -0.0892  0.5830
 3637TIP3    H232327   1.603   5.087   4.614 -0.1085 -0.3517  0.2531
 3638TIP3   OH232328   1.001   4.288   5.055  0.0402 -0.2717 -0.0252
 3638TIP3    H132329   0.995   4.290   5.151 -0.7931  0.9963 -0.0745
 3638TIP3    H232330   0.954   4.366   5.027  1.7152  0.3139 -1.4066
 3639TIP3   OH232331   4.327   1.027   0.276 -0.0739 -0.7215  0.0568
 3639TIP3    H132332   4.411   1.007   0.235 -0.9058 -0.8096 -1.6807
 3639TIP3    H232333   4.275   0.947   0.265 -0.7118 -0.3419  0.2621
 3640TIP3   OH232334   6.641   5.892   6.250  0.0847  0.3148  0.4521
 3640TIP3    H132335   6.633   5.931   6.337 -1.6772  1.7428 -0.2859
 3640TIP3    H232336   6.555   5.904   6.210  0.4521 -1.4953 -1.0326
 3641TIP3   OH232337   1.651   4.120  11.302 -0.0210  0.3488  0.0777
 3641TIP3    H132338   1.682   4.110  11.392  1.6585  1.1158 -0.3949
 3641TIP3    H232339   1.652   4.214  11.286 -1.7817  0.3489 -0.2805
 3642TIP3   OH232340   0.131   4.024   0.979  1.1273  0.5243 -0.2257
 3642TIP3    H132341   0.159   4.077   0.904  1.6699 -0.0409 -0.4387
 3642TIP3    H232342   0.136   4.083   1.054  1.6685  0.7926 -0.4680
 3643TIP3   OH232343   6.245   0.629  16.858 -0.8089  0.2867  0.3437
 3643TIP3    H132344   6.205   0.710  16.892 -1.7413 -0.1726  0.3841
 3643TIP3    H232345   6.188   0.559  16.891 -0.9978 -0.2710 -1.0780
 3644TIP3   OH232346   6.314   5.110   1.191 -0.7711  0.1612 -0.2429
 3644TIP3    H132347   6.346   5.167   1.261  0.3084  2.1611 -2.2417
 3644TIP3    H232348   6.247   5.163   1.147 -0.3246 -0.4203 -1.6584
 3645TIP3   OH232349   3.484   5.139  15.692  0.1376  0.0661 -0.3178
 3645TIP3    H132350   3.393   5.145  15.663  0.3259 -0.1073 -0.9896
 3645TIP3    H232351   3.479   5.124  15.786 -0.5551 -0.6756 -0.4584
 3646TIP3   OH232352   4.732   0.970   3.977  0.4644  0.0745  0.0794
 3646TIP3    H132353   4.756   0.887   4.018 -0.5662  0.5984  1.8784
 3646TIP3    H232354   4.771   1.037   4.034 -0.1561  0.8448 -0.3784
 3647TIP3   OH232355   6.206   4.532  11.558 -0.1645 -0.4308  0.4822
 3647TIP3    H132356   6.230   4.479  11.482 -0.8856  0.9545 -0.7552
 3647TIP3    H232357   6.120   4.568  11.536  0.9002  2.4518  0.5603
 3648TIP3   OH232358   0.286   3.309  12.918  0.0693 -0.0556 -0.3470
 3648TIP3    H132359   0.232   3.296  12.840 -1.1414 -1.8174  0.7274
 3648TIP3    H232360   0.375   3.294  12.888 -0.5617 -3.2023 -0.9583
 3649TIP3   OH232361   1.788   4.523   4.017 -0.2325  0.3735 -0.9740
 3649TIP3    H132362   1.697   4.549   4.003 -0.3841 -0.7164 -2.1190
 3649TIP3    H232363   1.839   4.594   3.978 -0.5429  1.4442  0.4791
 3650TIP3   OH232364   5.098   0.868  10.214 -0.1750 -0.1934 -0.1610
 3650TIP3    H132365   5.192   0.851  10.215 -0.0136  0.5960  1.8096
 3650TIP3    H232366   5.062   0.799  10.157  1.4023 -1.5792  0.4404
 3651TIP3   OH232367   3.448   2.503   2.165 -0.0424 -0.0743  0.1684
 3651TIP3    H132368   3.485   2.420   2.197 -0.1660 -0.8546 -1.5883
 3651TIP3    H232369   3.425   2.485   2.074 -2.2665  1.1963  0.4046
 3652TIP3   OH232370   1.349   0.431  14.401  0.0664  0.0099 -0.1918
 3652TIP3    H132371   1.362   0.382  14.320 -0.7343  0.0012 -0.3219
 3652TIP3    H232372   1.272   0.390  14.442  0.6246 -0.1761  0.7176
 3653TIP3   OH232373   4.118   2.591   3.620  0.2601  0.2185 -0.3438
 3653TIP3    H132374   4.024   2.608   3.625  0.3240  0.1919  2.4669
 3653TIP3    H232375   4.158   2.670   3.657  1.3310 -0.0546 -0.8952
 3654TIP3   OH232376   3.258   2.715  11.490  0.3220 -0.2453 -0.2305
 3654TIP3    H132377   3.249   2.731  11.583 -0.8144 -0.1255 -0.3407
 3654TIP3    H232378   3.168   2.714  11.457  0.7430  2.3765 -1.7689
 3655TIP3   OH232379   5.294   4.740  13.531  0.0219 -0.0563 -0.2538
 3655TIP3    H132380   5.234   4.807  13.564 -1.0813 -0.3819 -1.4872
 3655TIP3    H232381   5.291   4.751  13.436  1.5087 -0.4593 -0.3716
 3656TIP3   OH232382   5.154   5.249  14.496 -0.2049 -0.2034  0.0886
 3656TIP3    H132383   5.103   5.170  14.516 -0.2034  0.1295  1.5757
 3656TIP3    H232384   5.099   5.298  14.435 -0.1578 -1.3806 -0.9528
 3657TIP3   OH232385   3.764   4.101   5.724  0.6536 -0.1540  0.6277
 3657TIP3    H132386   3.719   4.182   5.751  0.5151 -0.1202  0.3021
 3657TIP3    H232387   3.857   4.125   5.722  0.6328 -0.0641  0.7526
 3658TIP3   OH232388   3.841   1.673   1.160 -0.4318  0.2256  0.1457
 3658TIP3    H132389   3.841   1.583   1.194 -0.2505 -0.1926 -0.9203
 3658TIP3    H232390   3.753   1.685   1.124  0.2024 -0.3613 -1.7592
 3659TIP3   OH232391   2.201   6.418  16.731 -0.5247  0.2641 -0.2990
 3659TIP3    H132392   2.176   6.507  16.708  0.2292  0.7896  0.8317
 3659TIP3    H232393   2.141   6.362  16.681 -1.0180  1.3921 -1.0011
 3660TIP3   OH232394   2.884   6.268  16.907 -0.0030  0.1717  0.0301
 3660TIP3    H132395   2.979   6.278  16.913  0.1633  0.8448 -2.5435
 3660TIP3    H232396   2.855   6.344  16.858 -1.7943 -0.4578  0.0373
 3661TIP3   OH232397   3.243   3.664  14.025  1.0869 -0.2309 -0.0114
 3661TIP3    H132398   3.198   3.643  14.107 -0.1853 -0.9647 -0.8648
 3661TIP3    H232399   3.307   3.593  14.014  1.2546 -0.1369  0.3255
 3662TIP3   OH232400   3.186   6.125   1.281  0.2452  0.0240 -0.1512
 3662TIP3    H132401   3.210   6.162   1.366  1.9264 -0.5936 -0.3155
 3662TIP3    H232402   3.166   6.033   1.299  0.5326 -0.0903 -0.4035
 3663TIP3   OH232403   2.412   2.669  13.089  0.2640 -0.3075  0.7002
 3663TIP3    H132404   2.423   2.582  13.127 -1.2515 -1.4101 -1.1947
 3663TIP3    H232405   2.482   2.722  13.128  0.2477 -1.9267  3.1085
 3664TIP3   OH232406   6.404   4.724  14.274 -0.4593  0.1459 -1.1062
 3664TIP3    H132407   6.346   4.662  14.318 -1.7799  1.6524 -0.6597
 3664TIP3    H232408   6.406   4.694  14.183 -1.5077 -0.2461 -1.0113
 3665TIP3   OH232409   1.739   1.100   0.224  0.5370 -0.2261  0.2466
 3665TIP3    H132410   1.799   1.080   0.296  1.7739 -0.1530 -0.7115
 3665TIP3    H232411   1.656   1.122   0.266  1.5334  0.9403  1.6950
 3666TIP3   OH232412   4.220   2.951  11.023  0.1753 -0.0706 -0.1812
 3666TIP3    H132413   4.192   2.861  11.005 -0.9956  0.2979 -0.2513
 3666TIP3    H232414   4.303   2.940  11.071 -0.9413 -1.2559  1.6196
 3667TIP3   OH232415   5.317   1.394  16.914  0.5734  0.1711 -0.1665
 3667TIP3    H132416   5.319   1.356  17.002  0.6368 -1.1238 -0.7160
 3667TIP3    H232417   5.409   1.410  16.893  0.5205  1.1333  0.2531
 3668TIP3   OH232418   6.409   1.200   2.788  0.4801  0.2938 -0.6710
 3668TIP3    H132419   6.349   1.264   2.748 -0.1857  0.4590  0.5537
 3668TIP3    H232420   6.376   1.115   2.759  0.1369  0.4194 -0.6504
 3669TIP3   OH232421   6.450   3.183   0.560 -0.4338  0.2517  0.4030
 3669TIP3    H132422   6.430   3.178   0.653 -0.6720 -0.8297  0.3086
 3669TIP3    H232423   6.417   3.268   0.532 -2.5034 -0.3544  0.8249
 3670TIP3   OH232424   1.196   0.201   1.173 -0.0205 -0.6745 -0.4186
 3670TIP3    H132425   1.189   0.106   1.161  1.2031 -0.9989  1.0350
 3670TIP3    H232426   1.137   0.220   1.246  1.1055 -0.6701  0.5395
 3671TIP3   OH232427   2.178   5.010   0.807 -0.1042  0.1211 -0.5144
 3671TIP3    H132428   2.158   4.950   0.735 -1.2224  1.7045 -1.5896
 3671TIP3    H232429   2.094   5.050   0.828  0.3606  0.2850  1.1547
 3672TIP3   OH232430   4.283   5.548  12.125  0.1760 -0.4108  0.1480
 3672TIP3    H132431   4.258   5.597  12.204  0.8219  0.3128 -0.0805
 3672TIP3    H232432   4.207   5.493  12.106  0.2805 -1.1394  1.6716
 3673TIP3   OH232433   0.093   5.040   3.052 -0.1045  0.5350  0.2883
 3673TIP3    H132434   0.100   4.956   3.099 -0.7248  0.7653  0.8003
 3673TIP3    H232435   0.156   5.097   3.096  1.0612  0.0757 -0.6932
 3674TIP3   OH232436   6.554   1.683  10.426 -1.3558  0.9646  0.1711
 3674TIP3    H132437   6.458   1.677  10.433 -1.2855  0.3402  0.6938
 3674TIP3    H232438   6.585   1.597  10.452 -0.6265  1.3060  0.4625
 3675TIP3   OH232439   6.015   5.013  14.363 -0.4597  0.0545  0.1673
 3675TIP3    H132440   5.990   4.955  14.291 -0.2660  0.9494 -0.6399
 3675TIP3    H232441   6.066   4.958  14.422  0.4592 -0.3945 -1.0154
 3676TIP3   OH232442   0.616   0.496   1.520  0.0955  0.0766 -0.1146
 3676TIP3    H132443   0.692   0.550   1.544  2.9683 -2.3380 -2.8263
 3676TIP3    H232444   0.610   0.430   1.590 -0.1097  0.7730  0.5421
 3677TIP3   OH232445   3.576   0.459   1.785  0.1469  0.4579  0.1542
 3677TIP3    H132446   3.584   0.364   1.779 -1.2369  0.3569 -0.6736
 3677TIP3    H232447   3.651   0.493   1.736 -0.0681 -0.2401 -0.6910
 3678TIP3   OH232448   2.968   6.022  13.836  0.2557 -0.7453  0.2759
 3678TIP3    H132449   3.006   6.074  13.907 -0.4107  0.0119  0.0946
 3678TIP3    H232450   2.929   5.946  13.879 -0.7514  0.0508  0.8268
 3679TIP3   OH232451   3.160   3.831   3.911  0.1425 -0.2313 -0.5688
 3679TIP3    H132452   3.196   3.743   3.904 -1.3108 -1.0530  1.5701
 3679TIP3    H232453   3.089   3.833   3.847 -0.6985 -1.1042  0.3134
 3680TIP3   OH232454   5.511   5.509   5.569  0.4600 -0.1588  0.0103
 3680TIP3    H132455   5.500   5.560   5.489 -1.5671 -0.0651  0.2754
 3680TIP3    H232456   5.430   5.525   5.618  1.8555  0.1811  2.3229
 3681TIP3   OH232457   4.439   0.258  14.338 -0.6216 -0.8494  0.2734
 3681TIP3    H132458   4.493   0.289  14.411 -0.5060  1.8045 -0.8615
 3681TIP3    H232459   4.357   0.229  14.380 -0.9098  1.4279  1.4616
 3682TIP3   OH232460   5.766   4.198   3.596  0.1815  0.5165 -0.5147
 3682TIP3    H132461   5.828   4.266   3.622  0.5144 -0.2929  0.8934
 3682TIP3    H232462   5.682   4.244   3.586  0.3411  1.0987  0.6699
 3683TIP3   OH232463   5.982   2.854   3.701  0.6942 -0.2426 -0.1969
 3683TIP3    H132464   5.988   2.762   3.677 -5.6329 -0.9966 -0.5264
 3683TIP3    H232465   6.007   2.902   3.622  2.1211 -1.7113 -0.6750
 3684TIP3   OH232466   4.617   0.607  13.911 -0.3875 -0.8436 -0.0152
 3684TIP3    H132467   4.696   0.578  13.865  0.5531 -0.3234  1.2155
 3684TIP3    H232468   4.582   0.527  13.951  1.6289 -0.5801  2.5162
 3685TIP3   OH232469   2.643   6.400   0.557  0.2849 -0.2131 -0.3557
 3685TIP3    H132470   2.733   6.399   0.590  0.6623 -0.3626 -1.3512
 3685TIP3    H232471   2.590   6.377   0.633  0.9370  1.4041  0.6492
 3686TIP3   OH232472   4.048   4.145   6.403 -0.7098 -0.1102 -0.3706
 3686TIP3    H132473   4.055   4.221   6.345  1.8564 -1.1745 -1.6219
 3686TIP3    H232474   4.022   4.181   6.487 -1.1659  1.9136 -1.3143
 3687TIP3   OH232475   0.985   6.351   4.280 -0.4124  0.4658  0.5074
 3687TIP3    H132476   0.997   6.256   4.281  2.2719  0.7094  1.4793
 3687TIP3    H232477   0.959   6.372   4.191 -1.1310 -1.1824  0.3053
 3688TIP3   OH232478   1.760   2.633  14.065  0.0790 -0.0234 -0.1238
 3688TIP3    H132479   1.824   2.657  13.998 -1.6369  1.4403 -1.3413
 3688TIP3    H232480   1.771   2.699  14.134  0.5245 -0.3567  0.1265
 3689TIP3   OH232481   0.466   4.434   4.908 -0.0485  0.2562  1.3273
 3689TIP3    H132482   0.553   4.455   4.942  0.9011 -0.3976 -0.5539
 3689TIP3    H232483   0.456   4.340   4.923 -1.3680  0.6723  3.4331
 3690TIP3   OH232484   2.981   0.246  11.511 -0.2397 -0.0310 -0.1111
 3690TIP3    H132485   2.915   0.178  11.492 -0.4191  0.1223 -0.0390
 3690TIP3    H232486   2.969   0.266  11.603  0.8039 -0.9509  0.2459
 3691TIP3   OH232487   3.170   0.400   5.869 -0.2450  0.3202  0.2172
 3691TIP3    H132488   3.248   0.435   5.827  1.1339 -0.5087  1.9336
 3691TIP3    H232489   3.106   0.390   5.798  1.4567  0.3155 -1.3892
 3692TIP3   OH232490   2.027   0.132  14.840 -0.3576 -0.1499  0.5984
 3692TIP3    H132491   1.963   0.195  14.805  0.2083  0.5324  0.7821
 3692TIP3    H232492   1.974   0.069  14.888 -0.9685 -0.0228  0.1074
 3693TIP3   OH232493   0.129   5.537   5.811  0.3174 -0.1255 -0.0269
 3693TIP3    H132494   0.188   5.611   5.801  0.0279  0.0978 -0.0853
 3693TIP3    H232495   0.041   5.574   5.799  0.2561 -0.8118 -2.0386
 3694TIP3   OH232496   1.127   5.849   0.774  0.4466 -0.2220 -0.2642
 3694TIP3    H132497   1.076   5.844   0.693 -0.6875  0.2351  0.3968
 3694TIP3    H232498   1.061   5.851   0.844  1.3906 -0.1254  0.6513
 3695TIP3   OH232499   2.797   1.013  16.394  0.3240  0.3853 -0.3562
 3695TIP3    H132500   2.748   1.015  16.476  1.0013  2.8652  0.0728
 3695TIP3    H232501   2.732   1.028  16.326 -0.0646 -0.4628 -0.1820
 3696TIP3   OH232502   5.518   0.345  16.691 -0.0236 -0.6783  0.3772
 3696TIP3    H132503   5.529   0.334  16.596 -0.1209 -2.3266  0.5368
 3696TIP3    H232504   5.600   0.312  16.728 -0.2603 -0.6755  0.9094
 3697TIP3   OH232505   1.569   4.214  13.501  0.0531  0.4363 -0.3388
 3697TIP3    H132506   1.644   4.274  13.502  0.9920 -0.7183 -0.0871
 3697TIP3    H232507   1.557   4.193  13.408  0.5386  0.0093 -0.3045
 3698TIP3   OH232508   5.887   2.560   0.820  0.4359 -0.5075 -0.1158
 3698TIP3    H132509   5.976   2.529   0.836  0.2354 -1.9004 -1.5522
 3698TIP3    H232510   5.857   2.513   0.742 -1.0143  1.0603 -0.5906
 3699TIP3   OH232511   0.742   1.969   4.286 -0.4798  0.3418 -0.5361
 3699TIP3    H132512   0.700   1.889   4.254 -0.9249  0.2075  0.3571
 3699TIP3    H232513   0.825   1.939   4.324 -0.3247  0.3927 -0.8381
 3700TIP3   OH232514   2.577   5.552   4.358  0.1041  0.1081  0.3199
 3700TIP3    H132515   2.630   5.595   4.425 -0.0078  2.1167 -0.8184
 3700TIP3    H232516   2.487   5.578   4.378 -0.2700 -1.5350  0.9629
 3701TIP3   OH232517   5.749   0.494   1.423 -0.1981 -0.5602 -0.1423
 3701TIP3    H132518   5.697   0.507   1.503 -1.8280  2.0907 -1.4914
 3701TIP3    H232519   5.799   0.575   1.413 -0.9756 -0.2858 -2.3963
 3702TIP3   OH232520   0.037   4.694   4.409  0.8278 -0.1679  0.0919
 3702TIP3    H132521   0.037   4.606   4.372  1.0637 -0.0503 -0.1829
 3702TIP3    H232522   0.114   4.697   4.466  1.2245  0.0917 -0.4477
 3703TIP3   OH232523   1.563   3.983   0.115  0.1584  0.3432 -0.1152
 3703TIP3    H132524   1.485   3.937   0.085  0.3231 -0.9857  1.3778
 3703TIP3    H232525   1.611   4.003   0.034  0.6456 -3.1738 -0.8420
 3704TIP3   OH232526   3.335   5.725   0.448  0.3770  0.5598 -0.3422
 3704TIP3    H132527   3.260   5.773   0.414 -1.8105 -2.0035  0.4291
 3704TIP3    H232528   3.344   5.756   0.539 -0.9038 -0.2807  0.0996
 3705TIP3   OH232529   5.403   4.891   4.455  0.5246  0.2766  0.0364
 3705TIP3    H132530   5.344   4.816   4.443  1.0982 -0.2853  0.6969
 3705TIP3    H232531   5.477   4.872   4.398 -0.1030  1.1917 -1.1243
 3706TIP3   OH232532   5.570   2.186   0.834  0.4731 -0.5958  0.1136
 3706TIP3    H132533   5.625   2.186   0.912 -0.6355  1.6236  0.9881
 3706TIP3    H232534   5.488   2.146   0.862  0.0652  0.2240  0.1341
 3707TIP3   OH232535   5.111   3.907   5.069  0.0974  0.1152  0.1740
 3707TIP3    H132536   5.190   3.958   5.090  0.1674 -0.0725  0.3606
 3707TIP3    H232537   5.086   3.865   5.151 -1.0623  1.3487  0.4913
 3708TIP3   OH232538   4.024   3.744   2.755 -0.5340 -0.0486  0.2808
 3708TIP3    H132539   3.946   3.754   2.810 -0.7266  0.8380 -0.1342
 3708TIP3    H232540   4.037   3.830   2.716  2.0532  0.5289  2.1718
 3709TIP3   OH232541   2.481   6.529  13.875  0.3438 -0.0571  0.0492
 3709TIP3    H132542   2.498   6.485  13.791  2.0242  0.0902  0.2814
 3709TIP3    H232543   2.562   6.576  13.894 -0.6382  1.3313  0.9150
 3710TIP3   OH232544   3.474   5.869  11.416  0.0142 -0.4165  0.2901
 3710TIP3    H132545   3.534   5.851  11.345 -0.4868 -0.2860 -0.1743
 3710TIP3    H232546   3.444   5.782  11.445  1.2689 -0.5480  1.2814
 3711TIP3   OH232547   2.716   3.757   1.352 -0.0850 -0.3367  0.5114
 3711TIP3    H132548   2.771   3.810   1.410  0.3848 -0.5777  0.2937
 3711TIP3    H232549   2.629   3.797   1.358  0.8031  2.3164 -1.8399
 3712TIP3   OH232550   5.875   1.493   2.431 -0.1322 -0.3620 -0.1152
 3712TIP3    H132551   5.943   1.532   2.376  0.2004  2.5126  2.0567
 3712TIP3    H232552   5.921   1.430   2.486 -0.0732 -1.5647 -1.4824
 3713TIP3   OH232553   1.567   1.878   6.216  0.0496  0.1724 -0.3551
 3713TIP3    H132554   1.540   1.948   6.275  1.4628  1.5320 -1.2225
 3713TIP3    H232555   1.643   1.838   6.259 -1.0380 -1.2073  0.3663
 3714TIP3   OH232556   2.671   1.960  17.105 -0.1177 -0.3518  0.5789
 3714TIP3    H132557   2.627   1.950  17.189 -1.8109  0.5510 -0.1547
 3714TIP3    H232558   2.741   1.895  17.107  0.4593  0.2462  3.0179
 3715TIP3   OH232559   5.495   1.822  13.361 -0.0987  0.0840 -0.1116
 3715TIP3    H132560   5.432   1.809  13.431  0.9904  0.6534  1.0170
 3715TIP3    H232561   5.498   1.738  13.315 -0.2439 -0.5637  1.0383
 3716TIP3   OH232562   4.361   6.262   1.922 -0.4521 -0.1228  0.0491
 3716TIP3    H132563   4.409   6.223   1.995 -0.0415  1.7965  0.8854
 3716TIP3    H232564   4.283   6.208   1.914  0.3979 -1.5018  0.6640
 3717TIP3   OH232565   4.705   2.817  15.049  0.0494  0.7020  0.5517
 3717TIP3    H132566   4.759   2.753  15.097  0.8837  1.5313  0.7428
 3717TIP3    H232567   4.724   2.800  14.957  0.8816  1.1739  0.6239
 3718TIP3   OH232568   3.523   2.802   3.668 -0.2246  0.5031  0.4957
 3718TIP3    H132569   3.457   2.802   3.599 -0.8352  2.0570  1.0393
 3718TIP3    H232570   3.595   2.854   3.634  0.2725 -0.2939  0.3179
 3719TIP3   OH232571   4.201   3.074   6.121  0.1256 -0.1327 -0.3182
 3719TIP3    H132572   4.268   3.072   6.188 -1.5095  1.2792  1.4715
 3719TIP3    H232573   4.132   3.016   6.154 -1.4153  1.8424  0.1299
 3720TIP3   OH232574   5.566   3.067   0.850 -0.2373 -0.6794 -0.5426
 3720TIP3    H132575   5.550   3.004   0.779 -1.3503  0.4979 -1.3936
 3720TIP3    H232576   5.550   3.019   0.930 -3.6070 -0.8934 -1.2265
 3721TIP3   OH232577   1.936   5.644  13.416  0.4549  0.0478  0.5395
 3721TIP3    H132578   1.960   5.736  13.427  1.4116 -0.1896  0.5369
 3721TIP3    H232579   2.014   5.596  13.443  0.4224 -0.7211 -0.6693
 3722TIP3   OH232580   2.330   4.337  14.787  0.1717  0.3255 -0.2194
 3722TIP3    H132581   2.235   4.346  14.800 -0.2611 -2.8696 -0.3857
 3722TIP3    H232582   2.366   4.339  14.876 -0.4222 -1.1663  0.0857
 3723TIP3   OH232583   3.315   6.037   0.776 -0.0253  0.9501 -0.3689
 3723TIP3    H132584   3.335   5.947   0.749  1.3941  0.7355  1.2634
 3723TIP3    H232585   3.315   6.034   0.872 -0.5094  2.5877 -0.2946
 3724TIP3   OH232586   4.609   3.653  14.875 -0.0077 -0.1820  0.2601
 3724TIP3    H132587   4.675   3.589  14.850  0.6027  0.3682  0.4503
 3724TIP3    H232588   4.526   3.615  14.844  0.6982  0.6767 -3.1120
 3725TIP3   OH232589   4.359   2.514   1.714 -0.4112  0.3704  0.1937
 3725TIP3    H132590   4.421   2.549   1.777  0.5203 -0.8567  0.0032
 3725TIP3    H232591   4.335   2.428   1.748  0.2281 -0.3846 -1.1581
 3726TIP3   OH232592   5.527   4.991   5.513  0.2418 -0.1409 -0.4543
 3726TIP3    H132593   5.501   4.999   5.421  0.0829  0.4740 -0.3573
 3726TIP3    H232594   5.611   4.945   5.510  0.4371  0.2411 -0.9329
 3727TIP3   OH232595   6.433   6.005   3.355  0.5781  0.1676  0.0913
 3727TIP3    H132596   6.359   5.950   3.381 -0.1573 -0.1581 -2.3792
 3727TIP3    H232597   6.399   6.094   3.357  0.9930  0.3223  1.5876
 3728TIP3   OH232598   2.667   3.170   0.294  0.3307 -0.3542  0.0307
 3728TIP3    H132599   2.679   3.264   0.295  1.0601 -0.4418  0.0807
 3728TIP3    H232600   2.600   3.153   0.361 -2.3071  0.4151 -2.2234
 3729TIP3   OH232601   0.366   6.213   2.769 -0.2389  0.0310  0.1820
 3729TIP3    H132602   0.333   6.244   2.854  0.6374  2.8567 -0.4074
 3729TIP3    H232603   0.289   6.178   2.725 -1.5497  2.0202  0.7199
 3730TIP3   OH232604   3.077   1.619   4.157  0.0667  0.0815  0.3493
 3730TIP3    H132605   3.092   1.568   4.078 -0.0162 -1.1303  1.0963
 3730TIP3    H232606   3.110   1.707   4.136 -2.5001  0.6458 -2.0375
 3731TIP3   OH232607   5.043   0.821  11.234  0.1128 -0.0844  0.5157
 3731TIP3    H132608   5.114   0.796  11.176 -1.1664 -0.8457 -0.7719
 3731TIP3    H232609   5.081   0.815  11.322  1.7320 -0.0932 -0.1578
 3732TIP3   OH232610   2.927   4.341  11.676 -0.1947  0.2942 -0.3204
 3732TIP3    H132611   2.880   4.389  11.608 -0.6923 -0.6488 -0.6567
 3732TIP3    H232612   2.947   4.407  11.743 -0.0336  1.1485 -1.1966
 3733TIP3   OH232613   2.837   2.418  14.403 -0.3970  0.5632 -0.1795
 3733TIP3    H132614   2.863   2.363  14.330 -0.6408 -0.0249  0.1751
 3733TIP3    H232615   2.873   2.504  14.382 -1.8268  0.8234 -1.7946
 3734TIP3   OH232616   1.588   0.436   2.606  0.0827  0.2015 -0.3733
 3734TIP3    H132617   1.501   0.476   2.610 -0.4743 -0.9928 -0.1712
 3734TIP3    H232618   1.579   0.364   2.544  0.9802  0.1631 -0.4762
 3735TIP3   OH232619   3.105   1.754   2.962  0.6288  0.2006 -0.2777
 3735TIP3    H132620   3.091   1.787   3.051  2.4161  1.9634 -0.5827
 3735TIP3    H232621   3.021   1.714   2.938  0.3563 -1.1336  2.4891
 3736TIP3   OH232622   3.631   4.138   0.921  0.4432  0.2357 -0.5131
 3736TIP3    H132623   3.637   4.114   0.828 -0.9715 -0.0301 -0.5487
 3736TIP3    H232624   3.588   4.223   0.921  0.7961  0.4214 -0.1065
 3737TIP3   OH232625   4.710   2.280   3.304  0.2911  0.0020  0.9897
 3737TIP3    H132626   4.737   2.319   3.221 -1.4749  0.5425  0.6420
 3737TIP3    H232627   4.786   2.292   3.361  0.8965  1.2214 -0.0075
 3738TIP3   OH232628   6.499   2.507  13.152 -0.5696 -0.6781 -0.7063
 3738TIP3    H132629   6.465   2.546  13.233  0.2376 -0.1404 -0.6210
 3738TIP3    H232630   6.575   2.455  13.181 -0.1903 -0.3684 -1.1342
 3739TIP3   OH232631   3.024   4.768  14.431  0.4611 -0.2357 -0.1998
 3739TIP3    H132632   3.041   4.854  14.393  1.4518 -1.3050 -2.3395
 3739TIP3    H232633   3.048   4.777  14.523  3.4556  0.9874 -1.0078
 3740TIP3   OH232634   6.122   1.124  14.207  0.4731  0.2076 -0.7614
 3740TIP3    H132635   6.031   1.100  14.185  0.0066  2.2826 -1.2908
 3740TIP3    H232636   6.175   1.060  14.159 -0.6821 -0.4726 -1.1953
 3741TIP3   OH232637   4.450   4.051  11.799 -0.2685 -0.2424 -0.4142
 3741TIP3    H132638   4.417   4.134  11.835  0.9513 -0.2693  0.8473
 3741TIP3    H232639   4.444   4.062  11.704  0.0551  1.3851 -0.2779
 3742TIP3   OH232640   0.362   4.149   4.143 -0.2785  0.1373 -0.0436
 3742TIP3    H132641   0.422   4.090   4.188  1.6849  0.9772 -1.4108
 3742TIP3    H232642   0.389   4.236   4.170 -0.9473  0.5222 -0.5977
 3743TIP3   OH232643   0.253   2.168  12.181  0.1659 -0.0539  0.0434
 3743TIP3    H132644   0.167   2.169  12.223  0.7297  0.8004  1.2505
 3743TIP3    H232645   0.313   2.141  12.250  0.9846  0.2532 -0.5301
 3744TIP3   OH232646   1.833   6.162   1.940  0.1217  0.1622 -0.6009
 3744TIP3    H132647   1.838   6.221   1.865  2.0204 -0.2374 -0.8265
 3744TIP3    H232648   1.796   6.215   2.011 -0.3382  0.9501 -1.4155
 3745TIP3   OH232649   4.113   4.644  13.524  0.1677  0.7772 -0.4054
 3745TIP3    H132650   4.128   4.686  13.440  0.7729 -0.9555 -1.2145
 3745TIP3    H232651   4.198   4.647  13.569  0.2849  0.2229 -0.5780
 3746TIP3   OH232652   5.838   4.093   2.298 -0.7975  0.5332  1.0469
 3746TIP3    H132653   5.876   4.113   2.212 -2.1818 -0.7731  0.0764
 3746TIP3    H232654   5.748   4.068   2.279 -0.7455 -1.1422  2.7375
 3747TIP3   OH232655   3.496   1.498  16.097 -0.0287 -0.0097 -0.4548
 3747TIP3    H132656   3.471   1.492  16.005  1.9255 -0.0407 -1.0363
 3747TIP3    H232657   3.533   1.411  16.117 -0.0602  0.1300  0.2218
 3748TIP3   OH232658   2.083   6.164   0.950  0.1908 -0.6146 -0.2166
 3748TIP3    H132659   2.115   6.202   1.032 -0.2848  0.9483 -0.7157
 3748TIP3    H232660   2.088   6.069   0.963  1.1550 -0.3923  1.2043
 3749TIP3   OH232661   2.143   3.374   6.735  0.0611 -0.1078  0.1043
 3749TIP3    H132662   2.171   3.355   6.646 -0.6942  0.6123 -0.3009
 3749TIP3    H232663   2.224   3.394   6.782  0.6036 -1.7290 -0.0853
 3750TIP3   OH232664   4.655   3.427  11.667  0.1490  0.0005  0.5887
 3750TIP3    H132665   4.723   3.434  11.734  0.2154  1.1435  0.4200
 3750TIP3    H232666   4.613   3.343  11.685  1.3973 -0.5949  0.8831
 3751TIP3   OH232667   0.427   5.947   5.639 -0.1151 -0.4434 -0.6493
 3751TIP3    H132668   0.459   5.955   5.729  0.1662  0.2727 -0.8097
 3751TIP3    H232669   0.350   5.891   5.646 -0.1551 -0.3112  0.0511
 3752TIP3   OH232670   5.598   6.384  17.112  0.7601  0.1663 -0.2424
 3752TIP3    H132671   5.693   6.388  17.099  1.1654 -3.0530  0.8046
 3752TIP3    H232672   5.561   6.393  17.024  2.0566  0.6598 -0.7630
 3753TIP3   OH232673   5.396   6.741   1.516 -0.9245 -0.4360 -0.2930
 3753TIP3    H132674   5.393   6.709   1.606  0.4569  2.0575  0.7538
 3753TIP3    H232675   5.336   6.816   1.516 -0.7525 -0.2859 -1.4044
 3754TIP3   OH232676   1.244   4.751  15.508 -0.5382 -0.1419 -0.7444
 3754TIP3    H132677   1.287   4.835  15.522 -0.4705 -0.5004  1.5631
 3754TIP3    H232678   1.296   4.708  15.440  1.3554  0.4148  0.2722
 3755TIP3   OH232679   3.077   5.602  14.622 -0.4082  0.3070 -0.3983
 3755TIP3    H132680   3.106   5.651  14.700 -0.8113 -0.5144  0.2785
 3755TIP3    H232681   3.033   5.668  14.568  1.8965  1.4344 -1.0861
 3756TIP3   OH232682   2.984   5.219   4.168  0.3976  0.5127 -0.2472
 3756TIP3    H132683   2.943   5.280   4.107  0.4601  1.2841  0.4654
 3756TIP3    H232684   2.919   5.208   4.237  0.6553  0.2938 -0.0389
 3757TIP3   OH232685   0.747   2.471   1.674 -0.0104 -0.5976  0.0368
 3757TIP3    H132686   0.835   2.508   1.684 -0.1305 -0.7584  2.0740
 3757TIP3    H232687   0.692   2.545   1.647  0.1553  0.2603  1.9573
 3758TIP3   OH232688   1.222   6.228  13.152  0.0244  0.7181  0.3349
 3758TIP3    H132689   1.284   6.161  13.180  0.3054  0.2853 -1.2051
 3758TIP3    H232690   1.168   6.184  13.086 -2.1702  0.9841  1.8325
 3759TIP3   OH232691   1.291   4.860   6.060  0.2735  0.4004 -0.0836
 3759TIP3    H132692   1.199   4.872   6.081 -0.2295 -1.3230 -1.0743
 3759TIP3    H232693   1.337   4.928   6.109 -1.4575  0.8836  0.9214
 3760TIP3   OH232694   6.275   0.993  15.656  0.1027 -0.2056  0.2687
 3760TIP3    H132695   6.218   0.921  15.627 -0.7908  1.0897 -1.3405
 3760TIP3    H232696   6.347   0.949  15.702 -1.6758 -1.9684  1.5593
 3761TIP3   OH232697   2.541   0.860   2.318  0.1666 -0.4023  0.2106
 3761TIP3    H132698   2.582   0.789   2.367  0.0313 -0.9780 -0.4956
 3761TIP3    H232699   2.573   0.849   2.228 -0.4775 -0.0449 -0.0694
 3762TIP3   OH232700   1.878   6.124   5.065  0.2995  0.2330  0.5867
 3762TIP3    H132701   1.938   6.199   5.067 -3.7102  3.7669  1.4812
 3762TIP3    H232702   1.836   6.124   5.150 -0.9927 -2.1069  0.0368
 3763TIP3   OH232703   0.554   3.870   0.752  0.0814 -0.0204 -0.0765
 3763TIP3    H132704   0.644   3.850   0.776  0.4602  2.0006  0.3398
 3763TIP3    H232705   0.501   3.827   0.819  0.5598 -2.6636 -1.2534
 3764TIP3   OH232706   6.106   2.648  16.181  0.4246 -0.0568 -0.4526
 3764TIP3    H132707   6.099   2.742  16.196  1.1497 -0.2787  1.6855
 3764TIP3    H232708   6.197   2.634  16.156  0.3941 -0.2190 -0.4764
 3765TIP3   OH232709   3.740   0.798  14.768  0.2930 -0.1338  0.0795
 3765TIP3    H132710   3.670   0.790  14.832  1.2373  1.2839  1.3839
 3765TIP3    H232711   3.808   0.849  14.813  2.4988 -2.0387 -0.8406
 3766TIP3   OH232712   6.585   3.181   3.093  0.2631  0.2050  0.5706
 3766TIP3    H132713   6.675   3.158   3.117  0.5505 -0.7648 -1.2143
 3766TIP3    H232714   6.571   3.135   3.010 -2.3344 -0.6903  1.4226
 3767TIP3   OH232715   0.601   0.410   0.500  0.0634  0.0403 -0.1975
 3767TIP3    H132716   0.587   0.463   0.579 -0.4817 -0.9548  0.3960
 3767TIP3    H232717   0.558   0.326   0.520 -0.5485 -0.0403 -1.7614
 3768TIP3   OH232718   1.855   0.926   5.707  0.3125  0.1182  0.2508
 3768TIP3    H132719   1.865   0.990   5.636 -0.7731  1.2816  1.1156
 3768TIP3    H232720   1.766   0.894   5.698  0.5963 -0.7102  0.3109
 3769TIP3   OH232721   4.526   4.589   4.992  0.6851  0.3466 -0.0259
 3769TIP3    H132722   4.520   4.576   5.086  0.0708  3.3448  0.4665
 3769TIP3    H232723   4.615   4.563   4.969  0.4424 -1.6785  1.0717
 3770TIP3   OH232724   2.851   4.589  13.406 -0.3553  0.1405  0.1437
 3770TIP3    H132725   2.793   4.595  13.482 -1.3496  1.6486 -0.6883
 3770TIP3    H232726   2.793   4.578  13.332  0.3963  1.5546 -0.7067
 3771TIP3   OH232727   6.791   4.720  16.317  0.2515  0.2943  0.5822
 3771TIP3    H132728   6.733   4.794  16.334 -0.8681 -0.4662  0.1535
 3771TIP3    H232729   6.853   4.753  16.252 -0.4039  0.7808  0.1896
 3772TIP3   OH232730   0.113   3.191  13.116 -0.0436 -0.2941 -0.0873
 3772TIP3    H132731   0.165   3.243  13.055 -0.2495 -1.4245 -1.2791
 3772TIP3    H232732   0.177   3.157  13.179  0.4857 -0.6261 -0.7851
 3773TIP3   OH232733   6.107   3.356   5.001  0.3801  0.3099 -0.6543
 3773TIP3    H132734   6.152   3.376   4.918 -0.5346 -3.2415 -2.1701
 3773TIP3    H232735   6.018   3.334   4.976  0.1362 -1.0991  1.2395
 3774TIP3   OH232736   5.570   4.706   3.198 -0.1725 -0.4550 -0.6873
 3774TIP3    H132737   5.629   4.758   3.144  0.5639 -0.5262  0.0438
 3774TIP3    H232738   5.503   4.674   3.136 -1.4024  2.3701 -0.9585
 3775TIP3   OH232739   2.275   0.932   2.332 -0.2884 -0.3888 -0.0693
 3775TIP3    H132740   2.225   0.854   2.308  0.0316 -0.9320  0.9420
 3775TIP3    H232741   2.364   0.899   2.347  0.1356  0.3798 -0.8085
 3776TIP3   OH232742   2.218   2.127  11.708 -1.3639  0.8442  0.2144
 3776TIP3    H132743   2.226   2.205  11.654  4.7094  0.9265  0.5566
 3776TIP3    H232744   2.212   2.159  11.797  1.2019  1.1168  0.3608
 3777TIP3   OH232745   4.388   2.252  12.869  0.5906  0.3595  0.3361
 3777TIP3    H132746   4.368   2.321  12.807  2.5365  0.7290  0.0384
 3777TIP3    H232747   4.334   2.178  12.842  0.6226  0.8464 -1.1478
 3778TIP3   OH232748   5.739   1.191  17.052 -0.1913 -0.4612  0.1377
 3778TIP3    H132749   5.740   1.149  17.138  1.9009  0.9786  0.9113
 3778TIP3    H232750   5.826   1.174  17.016 -0.8495 -0.5719 -1.4842
 3779TIP3   OH232751   6.120   2.820  15.136 -0.4754 -0.8889  0.4278
 3779TIP3    H132752   6.109   2.818  15.231 -0.5768 -1.6915  0.4054
 3779TIP3    H232753   6.156   2.734  15.114  1.8143  0.0965 -0.0114
 3780TIP3   OH232754   2.499   3.265   3.231  0.2215  0.3982 -0.5440
 3780TIP3    H132755   2.512   3.175   3.260 -0.8835  0.8489  1.4827
 3780TIP3    H232756   2.423   3.260   3.173 -1.5990  0.3496  1.7111
 3781TIP3   OH232757   1.719   2.225   3.563  0.0942  0.0855 -0.1368
 3781TIP3    H132758   1.772   2.303   3.579  0.2440 -0.0473  0.0182
 3781TIP3    H232759   1.645   2.233   3.623  0.9793 -0.7261  1.1226
 3782TIP3   OH232760   4.292   5.663   1.412 -0.4625  0.0829  0.0468
 3782TIP3    H132761   4.271   5.593   1.474 -1.0314  0.7481  0.6171
 3782TIP3    H232762   4.259   5.632   1.328 -1.3168 -0.0452  0.4253
 3783TIP3   OH232763   6.795   0.741   2.646 -0.1030  0.5040  0.3313
 3783TIP3    H132764   6.726   0.796   2.608 -0.6061 -0.3193  0.0239
 3783TIP3    H232765   6.863   0.802   2.673  0.7627  1.1086 -2.8225
 3784TIP3   OH232766   1.771   5.279  13.588  0.6235 -0.1499  0.6230
 3784TIP3    H132767   1.765   5.321  13.502  1.9731  1.6961  1.3748
 3784TIP3    H232768   1.697   5.313  13.637  0.4748 -0.3534  0.5394
 3785TIP3   OH232769   3.638   0.689  11.575 -0.7434  0.3962  0.6111
 3785TIP3    H132770   3.617   0.645  11.657 -0.9958  0.9359  0.8419
 3785TIP3    H232771   3.718   0.647  11.545 -2.6565 -2.5221 -0.8807
 3786TIP3   OH232772   2.501   0.123  11.854  0.0930  0.5479 -0.2821
 3786TIP3    H132773   2.425   0.173  11.826 -0.1724  0.1088 -0.3516
 3786TIP3    H232774   2.519   0.063  11.781  0.2408  0.3568 -0.0913
 3787TIP3   OH232775   3.227   5.555   1.363 -0.3911  0.5060 -0.1501
 3787TIP3    H132776   3.178   5.519   1.289  0.2679  1.0128 -0.8472
 3787TIP3    H232777   3.299   5.494   1.376  0.7679  1.5478 -1.3776
 3788TIP3   OH232778   2.823   5.697  14.764  0.2705 -0.3969 -0.5119
 3788TIP3    H132779   2.818   5.604  14.740  0.1226 -0.5933  0.2640
 3788TIP3    H232780   2.734   5.721  14.788  0.6983 -0.6435  1.4140
 3789TIP3   OH232781   3.346   6.799   1.961 -0.0763 -0.0650  0.9080
 3789TIP3    H132782   3.424   6.848   1.934 -0.5683  1.0409  1.4360
 3789TIP3    H232783   3.302   6.777   1.879  0.4323 -0.1070  0.6388
 3790TIP3   OH232784   0.347   1.149  13.113  0.1985  0.0894  0.2346
 3790TIP3    H132785   0.349   1.232  13.066  1.4713 -0.7966 -1.4053
 3790TIP3    H232786   0.274   1.157  13.174 -0.1303  2.1315 -0.3605
 3791TIP3   OH232787   0.123   3.372  16.237  0.5004 -0.0303 -0.2691
 3791TIP3    H132788   0.053   3.379  16.302  2.3474 -1.3541  2.0523
 3791TIP3    H232789   0.095   3.302  16.179 -0.4176 -0.0528  0.1831
 3792TIP3   OH232790   2.076   0.460   5.471  0.0867  0.6344 -0.2670
 3792TIP3    H132791   2.122   0.411   5.403 -0.3229  0.2174 -0.2521
 3792TIP3    H232792   2.125   0.443   5.551  0.6734  1.2689 -0.4816
 3793TIP3   OH232793   6.707   4.589  11.214  0.5221 -0.1042  0.6545
 3793TIP3    H132794   6.666   4.516  11.167  2.4851  0.5579 -2.3837
 3793TIP3    H232795   6.686   4.666  11.162  1.4290  0.9700  1.8272
 3794TIP3   OH232796   4.810   5.197  15.186  0.4130 -0.1122  0.1407
 3794TIP3    H132797   4.869   5.269  15.161  2.4856 -1.4606  0.9023
 3794TIP3    H232798   4.848   5.119  15.145 -2.4501 -0.7138 -1.6601
 3795TIP3   OH232799   3.806   6.396   5.135 -0.7208 -0.1148  0.0957
 3795TIP3    H132800   3.781   6.465   5.073 -2.2162 -1.0379 -0.3843
 3795TIP3    H232801   3.862   6.337   5.083  0.3438  0.5797  0.4335
 3796TIP3   OH232802   3.405   0.966  14.412 -0.0228 -0.3238 -0.3187
 3796TIP3    H132803   3.363   1.037  14.363 -1.4745 -1.6506 -1.0719
 3796TIP3    H232804   3.358   0.887  14.386  0.5017 -1.3739  1.6959
 3797TIP3   OH232805   6.519   0.101  13.442  0.0161 -0.0256 -0.4978
 3797TIP3    H132806   6.517   0.195  13.461 -0.2343  0.1010 -1.1226
 3797TIP3    H232807   6.600   0.088  13.393 -0.5702  0.1046 -1.5472
 3798TIP3   OH232808   5.938   5.561  11.512 -0.1388  0.0065 -0.2998
 3798TIP3    H132809   5.970   5.625  11.576  1.9080 -0.7043 -0.5320
 3798TIP3    H232810   5.859   5.600  11.476 -0.4803  1.1338  1.5362
 3799TIP3   OH232811   6.159   0.881  17.085  0.6331  0.1937 -0.1184
 3799TIP3    H132812   6.191   0.791  17.095  0.0156  0.0511  0.7342
 3799TIP3    H232813   6.064   0.872  17.085  0.4691  1.0361  2.4969
 3800TIP3   OH232814   3.193   0.354  10.960 -0.0141  0.3972  0.0109
 3800TIP3    H132815   3.123   0.419  10.961  1.5781  2.3011 -1.4365
 3800TIP3    H232816   3.189   0.316  10.872  1.4078  1.3877 -0.5248
 3801TIP3   OH232817   1.916   0.127  17.046 -0.3929 -0.4916  0.7557
 3801TIP3    H132818   1.848   0.060  17.040 -0.1906 -0.5997 -1.6155
 3801TIP3    H232819   1.869   0.208  17.064 -1.1935 -0.5877 -0.7307
 3802TIP3   OH232820   6.622   1.688  15.541  0.0627 -0.3849 -0.4994
 3802TIP3    H132821   6.546   1.671  15.598 -0.6528  1.9559 -0.6486
 3802TIP3    H232822   6.683   1.736  15.596  0.7164 -0.7908 -0.8615
 3803TIP3   OH232823   0.427   3.947  12.724  0.0655  0.2595  0.0703
 3803TIP3    H132824   0.501   3.888  12.729 -2.0902 -2.7360 -0.5927
 3803TIP3    H232825   0.454   4.014  12.661  1.7902 -1.4508 -1.1225
 3804TIP3   OH232826   3.384   6.574   1.768 -0.2637  0.2736  0.4515
 3804TIP3    H132827   3.409   6.607   1.682  1.5870  0.7180  1.1172
 3804TIP3    H232828   3.289   6.585   1.771 -0.6755 -1.5546 -2.2461
 3805TIP3   OH232829   1.102   4.351  13.955 -0.5782  0.6796  0.3857
 3805TIP3    H132830   1.194   4.336  13.977 -0.5373  0.1757 -0.1014
 3805TIP3    H232831   1.071   4.414  14.020  0.1626  0.9943  0.4350
 3806TIP3   OH232832   3.434   1.671  11.183  0.0093 -0.1317  0.0245
 3806TIP3    H132833   3.462   1.605  11.247  0.8298  1.2651  1.1850
 3806TIP3    H232834   3.357   1.712  11.222 -1.0857 -0.9947 -1.1350
 3807TIP3   OH232835   4.614   6.561   2.142  0.0934  0.3565  0.4066
 3807TIP3    H132836   4.690   6.529   2.094 -0.1720 -0.7763  0.7180
 3807TIP3    H232837   4.624   6.525   2.231 -1.3959 -0.8344  0.1433
 3808TIP3   OH232838   4.896   6.780   2.628 -0.2180 -0.1757 -0.1859
 3808TIP3    H132839   4.844   6.702   2.647 -0.8586  0.4947  0.9782
 3808TIP3    H232840   4.958   6.785   2.701 -1.8475  1.7403  1.2012
 3809TIP3   OH232841   1.450   2.245   5.344 -0.1074 -0.1709  0.1414
 3809TIP3    H132842   1.482   2.164   5.383  0.4707  0.8809  1.9647
 3809TIP3    H232843   1.385   2.278   5.407 -1.1058  0.2817 -1.0779
 3810TIP3   OH232844   4.521   4.979  12.831 -0.4856 -0.1143 -0.2249
 3810TIP3    H132845   4.531   4.934  12.915 -0.8904  0.6937  0.2687
 3810TIP3    H232846   4.563   5.064  12.844  0.9460 -0.5969 -1.3857
 3811TIP3   OH232847   2.128   4.132  13.272 -0.0881 -0.3034  0.6098
 3811TIP3    H132848   2.167   4.217  13.293  2.0543 -1.2205  0.5861
 3811TIP3    H232849   2.201   4.079  13.241 -1.5654 -1.8463 -0.4035
 3812TIP3   OH232850   5.037   1.519  16.474  0.1251  0.3257  0.6457
 3812TIP3    H132851   5.025   1.440  16.421 -0.6460 -0.1255  1.4843
 3812TIP3    H232852   5.131   1.537  16.469  0.7265 -1.9984  2.3269
 3813TIP3   OH232853   4.271   6.703   1.516 -0.4031 -0.6011  0.3134
 3813TIP3    H132854   4.186   6.680   1.553 -0.4644  0.7881  1.1190
 3813TIP3    H232855   4.284   6.795   1.541  0.3471 -0.1140 -1.6500
 3814TIP3   OH232856   4.206   2.660   1.300 -0.6525  0.1654 -0.1678
 3814TIP3    H132857   4.275   2.721   1.272 -0.5807  0.5150  0.7550
 3814TIP3    H232858   4.242   2.574   1.281 -0.0954  0.3573  0.0036
 3815TIP3   OH232859   4.014   0.904  14.834 -0.3656 -0.6655  0.0968
 3815TIP3    H132860   4.086   0.844  14.813 -0.9217 -1.4237  0.2908
 3815TIP3    H232861   4.052   0.991  14.825  0.6173 -1.0515  0.3540
 3816TIP3   OH232862   6.020   3.263   0.656 -0.0696  0.5307 -0.5988
 3816TIP3    H132863   5.990   3.172   0.666  1.0615  0.1842 -0.2017
 3816TIP3    H232864   5.940   3.312   0.637 -0.9575 -0.2935  0.8066
 3817TIP3   OH232865   2.169   1.460   1.303  0.4697  0.2188 -0.0511
 3817TIP3    H132866   2.261   1.448   1.324  0.8547  1.4307 -0.9421
 3817TIP3    H232867   2.123   1.397   1.359  1.6999  0.7874  1.6750
 3818TIP3   OH232868   4.497   4.499  15.982  0.2593  0.4863 -0.0550
 3818TIP3    H132869   4.575   4.555  15.981  0.0562  0.7658 -1.2031
 3818TIP3    H232870   4.449   4.524  15.904  0.3636 -1.6027 -0.8327
 3819TIP3   OH232871   1.615   4.982   5.569  0.0075  0.1693  0.2642
 3819TIP3    H132872   1.631   4.918   5.639  2.0492  0.4723  0.1564
 3819TIP3    H232873   1.569   4.933   5.501 -1.4476 -0.2870  1.5420
 3820TIP3   OH232874   1.286   5.325  15.935 -0.1862 -0.2518 -0.5567
 3820TIP3    H132875   1.285   5.265  16.009  2.2419 -0.4359 -0.5693
 3820TIP3    H232876   1.196   5.328  15.904 -0.7733 -2.1695  0.8024
 3821TIP3   OH232877   2.438   3.995  12.411 -0.2657 -0.4611  0.3652
 3821TIP3    H132878   2.495   3.940  12.465  1.5991  1.3304  0.3609
 3821TIP3    H232879   2.487   4.008  12.330 -0.9131  0.7030  0.1353
 3822TIP3   OH232880   6.166   2.088   0.076  0.1122  0.4425 -0.0541
 3822TIP3    H132881   6.239   2.124   0.126  0.6806 -1.3081  0.4684
 3822TIP3    H232882   6.207   2.046   0.001 -0.1703 -1.6571  0.8963
 3823TIP3   OH232883   4.812   5.681   4.802 -0.2087 -0.4737  0.3306
 3823TIP3    H132884   4.872   5.726   4.862 -0.2809  0.4096 -0.2378
 3823TIP3    H232885   4.852   5.596   4.786  0.4713 -0.2075  0.5978
 3824TIP3   OH232886   5.874   4.277  14.793  0.1842  0.5962  0.3562
 3824TIP3    H132887   5.859   4.300  14.885  0.2972 -0.8286  0.7605
 3824TIP3    H232888   5.787   4.251  14.761  0.0451  1.5845 -0.1092
 3825TIP3   OH232889   2.970   1.222   3.892  0.2760  0.1956  0.0678
 3825TIP3    H132890   3.001   1.281   3.823  1.2995  1.9150  1.8885
 3825TIP3    H232891   2.902   1.272   3.937 -1.6500 -1.5894 -0.7070
 3826TIP3   OH232892   3.785   3.568  14.185  0.0932 -0.1327  0.7435
 3826TIP3    H132893   3.818   3.533  14.102  0.4850  0.0955  0.8003
 3826TIP3    H232894   3.766   3.660  14.165  0.1776 -0.0814  0.9011
 3827TIP3   OH232895   1.783   5.260   3.145 -0.0979  0.0468 -0.1094
 3827TIP3    H132896   1.745   5.323   3.206 -0.6253 -0.9205  0.5872
 3827TIP3    H232897   1.711   5.234   3.088 -0.2052 -0.8390  0.4036
 3828TIP3   OH232898   4.688   3.422  13.198 -0.0542 -0.4265  0.6273
 3828TIP3    H132899   4.631   3.499  13.200 -0.1618 -0.3687 -1.7721
 3828TIP3    H232900   4.630   3.351  13.171  0.7752 -0.5643 -0.8913
 3829TIP3   OH232901   3.840   1.322  11.301  0.5715  0.0368 -0.1082
 3829TIP3    H132902   3.913   1.284  11.253  0.3161 -0.1620 -0.3482
 3829TIP3    H232903   3.766   1.264  11.280  0.5008 -0.1734  0.6892
 3830TIP3   OH232904   6.218   5.825  14.365  0.2592  0.8835  0.1525
 3830TIP3    H132905   6.308   5.797  14.345  0.5560  2.5180 -0.9656
 3830TIP3    H232906   6.164   5.748  14.347  1.2870  0.3053 -0.5503
 3831TIP3   OH232907   2.420   4.396  15.537 -0.0162  0.0458  0.6090
 3831TIP3    H132908   2.458   4.419  15.453 -1.4098 -0.1752 -0.1091
 3831TIP3    H232909   2.492   4.406  15.599  0.5564  2.1274 -0.2851
 3832TIP3   OH232910   2.789   4.521   4.817 -0.3734  0.1094 -0.1274
 3832TIP3    H132911   2.866   4.531   4.760  0.0463 -1.0428  0.1997
 3832TIP3    H232912   2.727   4.471   4.765 -0.4439  0.0523  0.0117
 3833TIP3   OH232913   4.960   5.933  12.076  0.1845 -0.5897 -0.2549
 3833TIP3    H132914   4.910   5.893  12.005  0.4819  0.8504 -1.3209
 3833TIP3    H232915   4.936   5.883  12.154 -0.2825 -2.1068 -1.3250
 3834TIP3   OH232916   3.742   6.090  11.984  0.3605  0.0848 -0.0519
 3834TIP3    H132917   3.785   6.137  11.913  0.8175 -2.1333 -1.3040
 3834TIP3    H232918   3.810   6.036  12.023 -0.2387  0.1197  1.1110
 3835TIP3   OH232919   3.741   2.269   6.416 -0.0445  0.4023  0.4880
 3835TIP3    H132920   3.681   2.324   6.467 -0.5550 -0.7328  1.1666
 3835TIP3    H232921   3.705   2.181   6.425  1.8841 -0.3725  1.1826
 3836TIP3   OH232922   5.242   1.677  14.400  0.3180  0.6849  0.3592
 3836TIP3    H132923   5.236   1.771  14.386  2.1903  0.6476 -0.9566
 3836TIP3    H232924   5.170   1.640  14.349  1.7061  1.2009 -2.0906
 3837TIP3   OH232925   6.070   5.337   1.994 -0.2688  0.4855 -0.4676
 3837TIP3    H132926   6.143   5.391   2.025 -0.6171  1.4022 -1.2085
 3837TIP3    H232927   5.992   5.381   2.028 -0.5131 -0.1561 -0.1810
 3838TIP3   OH232928   3.216   3.149  13.569  0.3961  0.6363 -0.3586
 3838TIP3    H132929   3.202   3.119  13.480 -0.5772 -1.4139  0.4265
 3838TIP3    H232930   3.305   3.120  13.590  0.9242  1.8124 -0.8883
 3839TIP3   OH232931   1.870   1.130   4.321  0.0007  0.1446  0.0765
 3839TIP3    H132932   1.862   1.040   4.287  1.2836 -0.0607  0.2914
 3839TIP3    H232933   1.792   1.141   4.376 -0.4791 -0.6218 -0.4293
 3840TIP3   OH232934   0.652   5.388   2.803 -0.7938 -0.2856 -0.0134
 3840TIP3    H132935   0.602   5.442   2.742 -0.2096 -0.1500 -0.3789
 3840TIP3    H232936   0.639   5.429   2.889  0.2829  0.9341 -0.3980
 3841TIP3   OH232937   5.864   4.722   3.757 -0.0180  0.3644 -0.2757
 3841TIP3    H132938   5.957   4.702   3.747 -0.4321 -1.4707 -0.9242
 3841TIP3    H232939   5.841   4.687   3.843  0.1519  2.1083  0.5331
 3842TIP3   OH232940   5.127   0.213  14.313 -0.1796 -0.2673 -0.0620
 3842TIP3    H132941   5.214   0.172  14.314  0.3094  0.7137  0.6110
 3842TIP3    H232942   5.145   0.304  14.290 -1.0111 -0.0227  0.2346
 3843TIP3   OH232943   4.941   6.200   2.624  0.3161 -0.6633  0.1599
 3843TIP3    H132944   4.877   6.257   2.582 -0.4434 -0.9784  0.8606
 3843TIP3    H232945   4.934   6.222   2.717  0.0431 -1.8749  0.4334
 3844TIP3   OH232946   6.076   6.037  14.236 -0.3507 -0.7239  0.1243
 3844TIP3    H132947   5.987   6.002  14.246 -0.0114 -1.1544  2.0813
 3844TIP3    H232948   6.133   5.971  14.275  1.0060 -0.9922 -2.1252
 3845TIP3   OH232949   1.382   3.282   2.249  0.3881 -0.4423 -0.4595
 3845TIP3    H132950   1.456   3.232   2.214  0.7312 -0.5182  0.3559
 3845TIP3    H232951   1.342   3.323   2.172  1.3479 -0.2984 -0.8956
 3846TIP3   OH232952   2.555   0.741   4.535 -0.0362  0.2178  0.3607
 3846TIP3    H132953   2.519   0.792   4.462 -0.0968 -0.3452 -0.0094
 3846TIP3    H232954   2.515   0.654   4.526  0.8012 -0.1845  0.4073
 3847TIP3   OH232955   1.528   2.225   2.754  0.1849 -0.1383 -0.1267
 3847TIP3    H132956   1.455   2.199   2.699 -0.1177 -0.5974  0.4842
 3847TIP3    H232957   1.605   2.187   2.712  0.1622  0.8440 -1.1020
 3848TIP3   OH232958   4.835   1.324  12.373 -0.0311 -0.3925 -0.1794
 3848TIP3    H132959   4.800   1.413  12.371 -0.1853 -0.4605 -0.6429
 3848TIP3    H232960   4.920   1.333  12.416  0.0614  0.0196 -0.4382
 3849TIP3   OH232961   2.309   0.002   4.172 -0.1189  0.0732  0.1815
 3849TIP3    H132962   2.240   0.016   4.237  0.4687 -0.0003  0.8264
 3849TIP3    H232963   2.390   0.000   4.222  0.7073  3.0387 -0.8364
 3850TIP3   OH232964   4.648   1.721  12.028  0.1131 -0.6974 -0.0240
 3850TIP3    H132965   4.714   1.789  12.042 -0.2005  0.2219 -2.5384
 3850TIP3    H232966   4.641   1.714  11.933 -2.4796 -1.6849  0.1765
 3851TIP3   OH232967   1.713   0.998  15.173  0.5891  0.4860 -0.3698
 3851TIP3    H132968   1.793   0.987  15.224 -0.4291 -0.4046  1.1504
 3851TIP3    H232969   1.713   0.925  15.112  0.4211 -0.1955  0.4150
 3852TIP3   OH232970   2.369   2.482  11.976  0.1793  0.2268  0.1014
 3852TIP3    H132971   2.276   2.459  11.975  0.2548 -0.0833  0.0392
 3852TIP3    H232972   2.399   2.455  12.063  0.4769 -0.7685 -0.2956
 3853TIP3   OH232973   5.111   2.945   3.926  0.0120 -0.2017  0.5686
 3853TIP3    H132974   5.148   2.875   3.871  0.1282 -0.6594  1.2131
 3853TIP3    H232975   5.052   2.992   3.868 -0.2741 -1.0046  0.1881
 3854TIP3   OH232976   3.912   6.223  13.248 -0.1986  0.1361 -0.2279
 3854TIP3    H132977   3.893   6.163  13.319  1.2034 -0.0312  0.0512
 3854TIP3    H232978   3.940   6.167  13.176 -1.8905  0.2838 -1.0455
 3855TIP3   OH232979   2.278   3.411  12.656 -0.3769 -0.5676  0.4940
 3855TIP3    H132980   2.256   3.407  12.563  0.3115 -0.4074  0.3170
 3855TIP3    H232981   2.194   3.424  12.701 -0.6885 -0.4491 -0.1195
 3856TIP3   OH232982   6.354   1.738   4.769  0.5108 -0.2601  0.6525
 3856TIP3    H132983   6.365   1.735   4.674 -0.9492 -1.2582  0.4763
 3856TIP3    H232984   6.346   1.647   4.796 -1.4683  0.0678  1.3773
 3857TIP3   OH232985   4.090   1.137   3.464 -0.0620 -0.4980 -0.4130
 3857TIP3    H132986   3.996   1.132   3.482  0.6554 -1.8398  4.3964
 3857TIP3    H232987   4.116   1.224   3.494  0.6106 -1.3088  1.5229
 3858TIP3   OH232988   6.180   3.050   5.043 -0.0740 -0.4518 -0.2030
 3858TIP3    H132989   6.195   2.956   5.054  0.6789 -0.1256  2.1708
 3858TIP3    H232990   6.266   3.089   5.057 -0.4972  0.6371 -0.5485
 3859TIP3   OH232991   1.565   3.530   2.838  0.0043 -0.1410  0.7627
 3859TIP3    H132992   1.510   3.467   2.792  0.8865  2.2083 -4.1502
 3859TIP3    H232993   1.639   3.479   2.870  0.1890 -1.9040 -2.0984
 3860TIP3   OH232994   6.026   0.521  11.180  0.3361 -0.7576  0.1544
 3860TIP3    H132995   6.087   0.552  11.246  0.5926  2.3548 -1.3353
 3860TIP3    H232996   6.072   0.535  11.097 -0.5034 -3.2058 -0.8171
 3861TIP3   OH232997   2.447   1.190  17.058 -0.4435 -0.4261  0.1856
 3861TIP3    H132998   2.399   1.203  17.140  1.1424 -0.0681  1.1015
 3861TIP3    H232999   2.445   1.096  17.044  0.9844 -0.7457  1.7733
 3862TIP3   OH233000   2.560   3.909   1.853  0.4616  0.1714 -0.0099
 3862TIP3    H133001   2.483   3.955   1.885  0.3526  0.0174 -0.0480
 3862TIP3    H233002   2.634   3.963   1.879  0.2432  1.5248 -1.9589
 3863TIP3   OH233003   6.517   6.357   5.198 -0.5529  0.2014  0.4538
 3863TIP3    H133004   6.542   6.449   5.195 -0.9125  0.2889 -0.0298
 3863TIP3    H233005   6.478   6.344   5.284 -2.9224  1.1510 -0.4064
 3864TIP3   OH233006   4.421   4.742  15.799 -0.0170  0.3267 -0.4062
 3864TIP3    H133007   4.456   4.826  15.771 -0.4778  0.5257 -0.3965
 3864TIP3    H233008   4.475   4.677  15.755  0.7066  0.6232  0.0308
 3865TIP3   OH233009   0.383   2.021   4.047 -0.1400 -0.3937 -0.3849
 3865TIP3    H133010   0.344   1.936   4.067 -1.5150  0.1432 -0.7371
 3865TIP3    H233011   0.320   2.064   3.990  1.3531  0.1670 -1.6689
 3866TIP3   OH233012   6.698   0.885  13.267  0.0070  0.1748 -0.5160
 3866TIP3    H133013   6.654   0.934  13.197  0.5831  0.2769 -0.8127
 3866TIP3    H233014   6.777   0.850  13.225  0.3198  0.1744  0.0665
 3867TIP3   OH233015   0.762   4.431  17.001  0.3329 -0.0263 -0.3856
 3867TIP3    H133016   0.722   4.357  17.048 -0.1230  0.0321 -0.6729
 3867TIP3    H233017   0.699   4.452  16.932  1.5362 -0.9074 -1.8295
 3868TIP3   OH233018   3.367   5.856   2.438 -0.0567  0.1262  0.3350
 3868TIP3    H133019   3.435   5.858   2.506  2.1750 -1.3088 -1.6848
 3868TIP3    H233020   3.337   5.766   2.436  0.6218 -0.0931 -1.1832
 3869TIP3   OH233021   1.819   5.865  15.157  0.4105  0.4327  0.2358
 3869TIP3    H133022   1.868   5.916  15.094 -0.2068  0.2347 -0.4220
 3869TIP3    H233023   1.806   5.780  15.114  1.0753 -0.1489  1.1439
 3870TIP3   OH233024   0.678   4.400  14.292  0.1802 -0.4890  0.2666
 3870TIP3    H133025   0.602   4.353  14.258  0.3818 -0.0515 -0.8010
 3870TIP3    H233026   0.676   4.383  14.387 -2.4049  1.1441  0.6051
 3871TIP3   OH233027   4.971   6.022   0.793 -0.3943 -0.2542  0.2805
 3871TIP3    H133028   5.045   6.073   0.827 -0.9774 -1.6669  4.2883
 3871TIP3    H233029   4.894   6.076   0.813 -0.7051 -0.7640  0.4943
 3872TIP3   OH233030   4.447   0.012  13.478  0.5970 -0.1174 -0.1126
 3872TIP3    H133031   4.450   0.026  13.573  0.5070 -1.1658  0.0574
 3872TIP3    H233032   4.538   0.002  13.452  0.5983 -0.2057 -0.0754
 3873TIP3   OH233033   3.760   4.216   4.622  0.3336  0.1820 -0.4207
 3873TIP3    H133034   3.788   4.124   4.621  1.3631  0.4826 -0.2364
 3873TIP3    H233035   3.841   4.266   4.618 -0.1503  1.0865  0.5836
 3874TIP3   OH233036   2.204   2.225   5.850  0.2469  0.7461  0.3792
 3874TIP3    H133037   2.204   2.314   5.815  2.0172  0.6649  0.1087
 3874TIP3    H233038   2.253   2.231   5.932 -1.4670  0.3890  1.5034
 3875TIP3   OH233039   2.204   3.180  15.872  0.0662  0.0165 -0.2388
 3875TIP3    H133040   2.184   3.217  15.958  0.2643 -0.6938  0.1130
 3875TIP3    H233041   2.268   3.111  15.889 -2.2585 -2.3619 -0.5349
 3876TIP3   OH233042   2.374   3.462  10.907 -0.5085  0.2799 -0.3514
 3876TIP3    H133043   2.310   3.431  10.844  1.1251 -0.8209 -1.5588
 3876TIP3    H233044   2.449   3.404  10.896  0.5114  1.1797  1.3658
 3877TIP3   OH233045   4.429   0.685   0.660  0.2993  0.0880 -0.1076
 3877TIP3    H133046   4.347   0.659   0.620 -0.7826  1.2685  1.2504
 3877TIP3    H233047   4.441   0.625   0.733  1.4990 -1.0814 -1.1867
 3878TIP3   OH233048   1.532   4.367   1.761 -0.0372  0.3064  0.3814
 3878TIP3    H133049   1.594   4.432   1.726  0.8345 -0.9036 -0.3931
 3878TIP3    H233050   1.513   4.310   1.687 -2.3078  0.7869  0.5412
 3879TIP3   OH233051   2.403   1.425   0.602 -0.1403  0.3300  0.5294
 3879TIP3    H133052   2.400   1.358   0.671  0.2160 -0.0351  0.1973
 3879TIP3    H233053   2.327   1.405   0.547  1.2628 -1.2976 -0.9189
 3880TIP3   OH233054   0.790   2.208  14.162  0.4199  0.3163  0.1015
 3880TIP3    H133055   0.792   2.296  14.124  0.4449  0.2522 -0.0484
 3880TIP3    H233056   0.873   2.169  14.134 -0.9479 -0.9038 -2.6308
 3881TIP3   OH233057   6.183   5.891   3.354  0.9222 -0.1474  0.1519
 3881TIP3    H133058   6.193   5.843   3.272  0.7510 -2.4597  1.3999
 3881TIP3    H233059   6.093   5.873   3.382  1.1832  0.0364  1.1671
 3882TIP3   OH233060   2.147   6.004   5.545  0.3503  0.0638 -0.5582
 3882TIP3    H133061   2.180   6.077   5.492 -0.2316 -0.5802 -1.8332
 3882TIP3    H233062   2.059   6.030   5.570  1.2557  1.2088  1.7664
 3883TIP3   OH233063   2.880   4.838  15.665  0.8517  0.3041 -0.2863
 3883TIP3    H133064   2.825   4.916  15.658 -1.4345 -0.9347  2.0834
 3883TIP3    H233065   2.927   4.849  15.747 -0.4064 -1.2833  0.6949
 3884TIP3   OH233066   0.969   6.353  12.209 -0.0629  0.0455 -0.0890
 3884TIP3    H133067   0.888   6.332  12.256  1.2455 -1.7980  1.4964
 3884TIP3    H233068   0.969   6.293  12.134 -0.3708  0.3619 -0.3446
 3885TIP3   OH233069   0.897   4.573  11.269 -0.1948 -0.2608  0.0260
 3885TIP3    H133070   0.985   4.544  11.290  0.3426  0.5634 -0.9971
 3885TIP3    H233071   0.863   4.608  11.352  1.1778  1.2319  0.0061
 3886TIP3   OH233072   6.330   0.706   4.220  0.9393 -0.1870 -0.2317
 3886TIP3    H133073   6.284   0.635   4.266  0.4951  0.0566 -0.2924
 3886TIP3    H233074   6.348   0.770   4.288 -1.6218  1.1724 -0.6947
 3887TIP3   OH233075   0.943   3.930   2.589  0.2682 -0.1780 -0.2370
 3887TIP3    H133076   0.933   3.962   2.499 -0.3045 -0.3980 -0.2567
 3887TIP3    H233077   1.024   3.879   2.586  0.3978  0.0391 -0.5633
 3888TIP3   OH233078   1.680   3.195   0.155 -0.0342 -0.1682  0.2241
 3888TIP3    H133079   1.697   3.132   0.084  2.2774  0.0587  0.5286
 3888TIP3    H233080   1.641   3.142   0.224 -0.3949 -0.7844 -0.4283
 3889TIP3   OH233081   0.060   5.496  15.388  0.0419 -0.1512  0.6544
 3889TIP3    H133082  -0.014   5.513  15.445  0.5169 -0.0705  1.2558
 3889TIP3    H233083   0.021   5.465  15.306 -0.6203 -4.2022  2.2646
 3890TIP3   OH233084   3.902   4.313  12.372  0.5118 -0.7854 -0.4444
 3890TIP3    H133085   3.984   4.343  12.412 -0.6845  1.5906  0.4590
 3890TIP3    H233086   3.925   4.232  12.326  3.3852 -0.0895 -0.4007
 3891TIP3   OH233087   0.920   0.597  11.963  0.0777  0.1799 -0.2242
 3891TIP3    H133088   0.899   0.508  11.935 -1.9322  0.6768 -0.4407
 3891TIP3    H233089   1.005   0.615  11.923 -0.6388 -0.7255 -2.3170
 3892TIP3   OH233090   5.903   4.283  12.273 -0.3076 -0.2437 -0.6967
 3892TIP3    H133091   5.868   4.305  12.187  0.7416 -1.3480 -1.4368
 3892TIP3    H233092   5.971   4.349  12.289 -1.1985  0.5882 -0.2236
 3893TIP3   OH233093   6.702   0.749   4.750  0.9422 -0.1875 -0.1047
 3893TIP3    H133094   6.664   0.830   4.717  1.0829 -0.2389 -0.3993
 3893TIP3    H233095   6.762   0.776   4.818  0.8832 -0.0541 -0.1046
 3894TIP3   OH233096   2.431   4.266   1.055  0.7137  0.1010 -0.2754
 3894TIP3    H133097   2.406   4.196   0.995  0.9774 -0.6351  0.4561
 3894TIP3    H233098   2.424   4.346   1.003 -1.7516 -0.1997 -0.5017
 3895TIP3   OH233099   5.243   1.107   2.461  0.8006  0.0616 -0.2471
 3895TIP3    H133100   5.215   1.186   2.417  3.4216  0.3242 -1.6575
 3895TIP3    H233101   5.244   1.130   2.554 -0.7911  0.8606 -0.4072
 3896TIP3   OH233102   5.644   1.223   2.529  0.0483 -0.0895  0.0240
 3896TIP3    H133103   5.705   1.156   2.496 -1.0467 -1.2527  0.2535
 3896TIP3    H233104   5.572   1.222   2.466 -1.4970 -1.4771  1.6993
 3897TIP3   OH233105   4.480   5.801   2.273  0.0321  0.3785 -0.4757
 3897TIP3    H133106   4.545   5.802   2.202  0.6995  0.7849  0.1254
 3897TIP3    H233107   4.482   5.891   2.308 -0.7961  0.3690 -0.3936
 3898TIP3   OH233108   0.783   6.334   2.380  0.1578 -0.2157  0.5150
 3898TIP3    H133109   0.846   6.405   2.378  0.7906 -0.7657  0.5103
 3898TIP3    H233110   0.701   6.373   2.351  0.4010  0.6020  0.9181
 3899TIP3   OH233111   4.720   5.111   5.981 -0.0116 -0.5316 -0.3733
 3899TIP3    H133112   4.692   5.116   6.072 -0.9106 -2.1003 -0.5195
 3899TIP3    H233113   4.807   5.152   5.980  0.4057 -1.2787  1.3587
 3900TIP3   OH233114   6.140   6.268  14.973 -0.1748  0.0515 -0.2073
 3900TIP3    H133115   6.202   6.270  14.901  0.1447 -0.5720  0.0386
 3900TIP3    H233116   6.131   6.359  15.001  2.4466 -0.0720  1.2996
 3901TIP3   OH233117   2.826   5.538  12.429  0.1916 -0.2807  0.1531
 3901TIP3    H133118   2.735   5.509  12.422  0.6543 -2.1082  1.0596
 3901TIP3    H233119   2.853   5.554  12.339 -1.0784  0.5333 -0.1105
 3902TIP3   OH233120   1.835   0.813  16.181 -0.4085  0.0836 -0.2204
 3902TIP3    H133121   1.765   0.830  16.244 -0.7640 -1.7667 -0.0457
 3902TIP3    H233122   1.790   0.774  16.106  0.2819  0.1776 -0.6920
 3903TIP3   OH233123   0.676   4.049   1.967  0.0608  0.0245  0.4633
 3903TIP3    H133124   0.704   4.109   2.036  2.2438  1.0259 -1.1883
 3903TIP3    H233125   0.590   4.018   1.996  0.8899  0.3378  3.6221
 3904TIP3   OH233126   0.809   2.904   2.860 -0.4041 -0.3922 -0.0429
 3904TIP3    H133127   0.827   2.848   2.935  0.7092 -0.4373 -0.3371
 3904TIP3    H233128   0.865   2.980   2.873 -0.4022 -0.2808 -0.6919
 3905TIP3   OH233129   6.736   3.332  11.010 -0.1595 -0.8584  0.4166
 3905TIP3    H133130   6.765   3.284  10.932  3.2713 -1.6002  1.9299
 3905TIP3    H233131   6.677   3.272  11.055 -0.9401 -1.0453 -0.8283
 3906TIP3   OH233132   4.227   2.145   1.392 -0.2050 -0.3731 -0.3709
 3906TIP3    H133133   4.242   2.237   1.412 -1.9198  0.6686 -3.3241
 3906TIP3    H233134   4.166   2.115   1.459 -0.3741  0.9333  0.0782
 3907TIP3   OH233135   3.787   4.230  10.965  0.6759  0.0680 -0.3271
 3907TIP3    H133136   3.866   4.177  10.975  1.1097  0.9119  1.1984
 3907TIP3    H233137   3.820   4.318  10.944  0.2336  0.6215  1.1472
 3908TIP3   OH233138   3.434   6.286   5.299  0.0735  0.5174 -0.3790
 3908TIP3    H133139   3.435   6.192   5.278  0.1229 -0.3047  2.8574
 3908TIP3    H233140   3.376   6.294   5.374  0.1088  3.1232 -0.5287
 3909TIP3   OH233141   5.487   6.343  10.653 -0.2538  0.1179 -0.0184
 3909TIP3    H133142   5.468   6.284  10.580 -1.3036 -0.7806  0.9464
 3909TIP3    H233143   5.553   6.297  10.705  0.2193  0.5941 -0.1763
 3910TIP3   OH233144   2.895   3.935  11.596 -0.3458 -0.1101  0.7315
 3910TIP3    H133145   2.942   4.019  11.603 -0.4594 -0.0637  0.9354
 3910TIP3    H233146   2.805   3.959  11.575 -0.3790 -0.1808  0.7914
 3911TIP3   OH233147   2.346   6.231  12.728 -0.3666  0.0270  0.3698
 3911TIP3    H133148   2.295   6.228  12.647 -0.3644  0.7219  0.3348
 3911TIP3    H233149   2.281   6.229  12.797 -0.4819  1.3448  0.3201
 3912TIP3   OH233150   1.500   1.229  16.023 -0.0836 -0.1460 -0.0617
 3912TIP3    H133151   1.571   1.166  16.035  0.6584  0.0636 -2.5775
 3912TIP3    H233152   1.528   1.281  15.947 -2.5155  0.5454 -0.5641
 3913TIP3   OH233153   2.788   6.037   5.523  0.4769 -0.1954  0.0389
 3913TIP3    H133154   2.884   6.031   5.514  0.7796 -0.0652  2.4534
 3913TIP3    H233155   2.767   6.125   5.492  1.4126  0.4174  1.0613
 3914TIP3   OH233156   0.046   2.132   5.674  0.4434 -0.3146  0.3916
 3914TIP3    H133157   0.058   2.059   5.613 -1.5409  0.0013 -0.4689
 3914TIP3    H233158   0.130   2.140   5.719  0.9160 -2.7083  0.0680
 3915TIP3   OH233159   5.834   0.608  10.888 -0.4419  0.2663 -0.2570
 3915TIP3    H133160   5.927   0.588  10.897 -0.8353 -0.9428  1.7129
 3915TIP3    H233161   5.821   0.685  10.944 -0.4538  1.0829 -1.3590
 3916TIP3   OH233162   4.046   3.915  15.399  0.1956  0.4627 -0.2289
 3916TIP3    H133163   4.139   3.924  15.421  0.7799 -0.7648 -2.0021
 3916TIP3    H233164   4.031   3.820  15.396 -1.6346  0.5826  1.8840
 3917TIP3   OH233165   5.433   4.164   1.164 -0.1793 -0.4001 -0.1976
 3917TIP3    H133166   5.460   4.227   1.231  0.2057 -2.6373  1.9174
 3917TIP3    H233167   5.344   4.190   1.140 -0.5867  0.0961  1.7173
 3918TIP3   OH233168   0.428   0.922  14.422 -0.4014 -0.6219 -0.1693
 3918TIP3    H133169   0.367   0.850  14.441  0.2385 -1.7985 -2.2530
 3918TIP3    H233170   0.422   0.979  14.498 -3.0669 -1.4106  0.3162
 3919TIP3   OH233171   2.216   2.171   0.495 -0.1781 -0.2684  0.5820
 3919TIP3    H133172   2.297   2.120   0.492  0.3759  0.6285 -0.7071
 3919TIP3    H233173   2.209   2.201   0.585  2.1319  1.4845  0.2626
 3920TIP3   OH233174   4.972   3.235   4.687  0.3321 -0.0787 -0.0470
 3920TIP3    H133175   4.902   3.300   4.692  0.4187 -0.0373  0.6717
 3920TIP3    H233176   4.932   3.160   4.643  0.4102  0.6822 -1.4732
 3921TIP3   OH233177   3.169   2.816   0.441 -0.4670 -0.0264 -0.0371
 3921TIP3    H133178   3.163   2.827   0.536 -1.9232  0.0365 -0.1237
 3921TIP3    H233179   3.263   2.823   0.422 -0.2365  0.7366  1.2928
 3922TIP3   OH233180   4.360   3.242  11.900 -0.0831  0.2442 -0.5458
 3922TIP3    H133181   4.355   3.234  11.995 -1.0574  0.7354 -0.5389
 3922TIP3    H233182   4.453   3.255  11.882  0.0541  0.7120  0.3947
 3923TIP3   OH233183   0.884   1.604  15.165 -0.1155  0.4021 -0.4782
 3923TIP3    H133184   0.917   1.546  15.234 -0.8625  0.3063 -0.1988
 3923TIP3    H233185   0.791   1.613  15.183 -0.4540 -0.1296 -1.8467
 3924TIP3   OH233186   2.258   6.391  14.011  0.3945 -0.0982 -0.0390
 3924TIP3    H133187   2.304   6.470  13.983 -0.3446  0.0008 -1.0298
 3924TIP3    H233188   2.311   6.319  13.980  1.9012 -0.0527  2.2203
 3925TIP3   OH233189   3.526   3.418  13.530  0.1183  0.3579  0.0446
 3925TIP3    H133190   3.604   3.364  13.541 -0.9018 -1.2660 -0.3139
 3925TIP3    H233191   3.548   3.479  13.460  0.5794 -1.0811 -1.1122
 3926TIP3   OH233192   6.167   2.027   4.704 -0.1408 -0.5735 -0.0650
 3926TIP3    H133193   6.260   2.046   4.716  0.5724 -2.2668 -2.2773
 3926TIP3    H233194   6.147   1.964   4.774  0.1288  0.3498  0.8817
 3927TIP3   OH233195   4.029   4.183  11.118  0.2490 -0.1305  0.3175
 3927TIP3    H133196   4.065   4.229  11.042  0.9756 -0.7070  0.3110
 3927TIP3    H233197   4.067   4.229  11.193 -0.2430  0.2538  0.3416
 3928TIP3   OH233198   3.963   2.575  13.371 -0.3052  0.4389  0.8778
 3928TIP3    H133199   4.031   2.511  13.393 -0.5460 -1.0139 -2.1222
 3928TIP3    H233200   3.891   2.523  13.337 -0.9418  2.2430 -0.6933
 3929TIP3   OH233201   1.604   1.331   3.392  0.0173  0.0077  0.0888
 3929TIP3    H133202   1.660   1.405   3.370  1.4595 -1.2888 -0.7645
 3929TIP3    H233203   1.664   1.259   3.408 -1.3659 -1.9699 -2.8258
 3930TIP3   OH233204   2.000   0.025   2.892  0.0282  0.2066  0.0057
 3930TIP3    H133205   1.968  -0.062   2.869  1.2343 -0.2345 -0.0440
 3930TIP3    H233206   2.090   0.011   2.921  0.7156  1.6107 -1.2982
 3931TIP3   OH233207   2.807   3.538  12.452 -0.6373  0.4278 -0.4084
 3931TIP3    H133208   2.815   3.452  12.410 -0.4830  0.3084 -0.1376
 3931TIP3    H233209   2.715   3.545  12.475 -1.0352  1.1135 -2.0666
 3932TIP3   OH233210   5.350   2.798   3.354 -0.0208  0.1127  0.8888
 3932TIP3    H133211   5.328   2.772   3.265 -1.2067 -0.1383  1.2284
 3932TIP3    H233212   5.362   2.893   3.350  0.3415  0.0429  0.3809
 3933TIP3   OH233213   5.860   0.637  14.275 -0.0493 -0.3184 -0.3127
 3933TIP3    H133214   5.837   0.725  14.304  1.6375  0.3535 -0.9036
 3933TIP3    H233215   5.840   0.637  14.181 -0.6903 -0.8005 -0.1804
 3934TIP3   OH233216   0.535   5.852  16.824  0.5500 -0.0851  0.3602
 3934TIP3    H133217   0.464   5.794  16.798  0.5986  0.3757 -0.8892
 3934TIP3    H233218   0.495   5.939  16.827  1.1591  0.2662 -0.9375
 3935TIP3   OH233219   3.244   2.665  11.176 -0.4777  0.3814 -0.3234
 3935TIP3    H133220   3.183   2.596  11.149  0.5467 -1.6338  2.0941
 3935TIP3    H233221   3.229   2.674  11.270  1.2093  1.6338 -0.1381
 3936TIP3   OH233222   0.298   3.195  15.133 -0.4169  0.3058  0.7153
 3936TIP3    H133223   0.365   3.133  15.161 -0.7242  0.3266  1.5261
 3936TIP3    H233224   0.230   3.141  15.092  0.7121  0.4118 -1.4167
 3937TIP3   OH233225   3.911   3.036  13.765  0.6558 -0.0881  0.1035
 3937TIP3    H133226   3.912   3.132  13.770 -0.6263 -0.1065  1.4302
 3937TIP3    H233227   3.837   3.010  13.819 -0.0043 -1.7873 -1.5166
 3938TIP3   OH233228   5.194   1.276   4.168 -0.4331  0.9871  0.0388
 3938TIP3    H133229   5.156   1.194   4.199 -1.2801  1.4546  0.2928
 3938TIP3    H233230   5.287   1.257   4.158 -0.8171 -0.3944 -1.2482
 3939TIP3   OH233231   5.515   1.573   1.832 -0.3053  0.2600  0.5060
 3939TIP3    H133232   5.560   1.550   1.751  0.2276  0.7894  0.6405
 3939TIP3    H233233   5.454   1.643   1.807 -1.3650 -0.7278  0.2469
 3940TIP3   OH233234   4.291   6.391  15.471  0.2002 -0.4681  0.2275
 3940TIP3    H133235   4.313   6.374  15.563  1.7595 -2.4768 -0.4468
 3940TIP3    H233236   4.226   6.325  15.449 -0.6430  0.4076  0.0229
 3941TIP3   OH233237   0.976   1.907  15.872 -0.1673 -0.2338  0.5238
 3941TIP3    H133238   1.007   1.908  15.781  0.9210  1.4793  0.8723
 3941TIP3    H233239   0.921   1.985  15.879 -1.4341 -1.1406  0.9715
 3942TIP3   OH233240   3.017   4.688   5.750  0.1235 -0.3218 -0.6766
 3942TIP3    H133241   2.934   4.719   5.714  0.6741  1.7458 -0.3174
 3942TIP3    H233242   3.069   4.768   5.761  1.9758 -1.5103 -0.4162
 3943TIP3   OH233243   1.055   6.633  15.226  0.3038 -0.0645 -0.0184
 3943TIP3    H133244   1.007   6.552  15.206  0.8515  0.2931 -3.2514
 3943TIP3    H233245   0.994   6.703  15.203  0.6473  0.4603  0.6310
 3944TIP3   OH233246   1.924   1.641   1.852  0.0317  0.2718 -0.3517
 3944TIP3    H133247   1.917   1.614   1.943 -1.8191 -1.1076 -0.8411
 3944TIP3    H233248   1.976   1.573   1.810 -0.0342  0.3345 -0.5379
 3945TIP3   OH233249   3.969   2.659  11.627 -0.1313 -0.1355 -0.3233
 3945TIP3    H133250   3.936   2.674  11.539 -1.7846  0.5553  0.3516
 3945TIP3    H233251   3.997   2.567  11.628 -1.7671 -0.6789 -1.0842
 3946TIP3   OH233252   0.167   0.440  13.117 -0.7053  0.2054 -0.1867
 3946TIP3    H133253   0.077   0.440  13.150 -0.1683 -1.4152  1.4515
 3946TIP3    H233254   0.206   0.519  13.154 -0.7715 -0.4083  1.2716
 3947TIP3   OH233255   6.099   5.172   1.405 -0.0044 -0.2627  0.0957
 3947TIP3    H133256   6.051   5.208   1.481 -0.6346  1.1417 -0.9143
 3947TIP3    H233257   6.187   5.155   1.438 -0.2837  0.2742  1.1678
 3948TIP3   OH233258   2.840   2.399   6.524 -0.1632 -0.1782  0.3815
 3948TIP3    H133259   2.819   2.415   6.617  0.0924  0.1251  0.3876
 3948TIP3    H233260   2.894   2.320   6.526 -0.1477 -0.1659  0.4893
 3949TIP3   OH233261   6.745   0.291   0.456 -0.0732 -0.1841 -0.1845
 3949TIP3    H133262   6.754   0.215   0.514 -3.0754 -0.3852  0.2096
 3949TIP3    H233263   6.745   0.366   0.515 -0.2125 -0.1570 -0.2174
 3950TIP3   OH233264   2.109   6.545   4.406  0.4404 -0.6434 -0.3745
 3950TIP3    H133265   2.067   6.628   4.383 -1.0100 -1.3010 -0.2405
 3950TIP3    H233266   2.183   6.569   4.461 -0.2957  0.5253  0.1354
 3951TIP3   OH233267   0.539   1.431   5.813 -0.4669  0.3383  0.7090
 3951TIP3    H133268   0.496   1.432   5.899 -0.7405 -1.2509  0.6237
 3951TIP3    H233269   0.581   1.345   5.809 -0.9463  0.1690 -0.9928
 3952TIP3   OH233270   2.472   0.579  13.604  0.1943 -0.4563 -0.1683
 3952TIP3    H133271   2.536   0.581  13.675 -0.1587  1.5489  0.1405
 3952TIP3    H233272   2.435   0.490  13.608  0.8802 -0.7101  1.5130
 3953TIP3   OH233273   5.343   2.759   3.077  0.1789  0.6119 -0.0667
 3953TIP3    H133274   5.414   2.789   3.021  0.1026  0.5910 -0.1740
 3953TIP3    H233275   5.264   2.773   3.026  0.2929 -1.8940 -1.0798
 3954TIP3   OH233276   5.364   1.340   3.576  0.4595 -0.2508 -0.0011
 3954TIP3    H133277   5.395   1.393   3.649 -1.1215  0.1378  0.4208
 3954TIP3    H233278   5.314   1.400   3.521  1.9392 -0.4481 -1.6615
 3955TIP3   OH233279   0.599   6.425   6.156  1.0686 -0.1052 -0.5420
 3955TIP3    H133280   0.679   6.409   6.206  1.2840 -0.0196 -0.8564
 3955TIP3    H233281   0.549   6.486   6.211  0.6484 -1.1261  0.2365
 3956TIP3   OH233282   3.334   6.471   6.460  0.2450 -0.0140  0.0472
 3956TIP3    H133283   3.391   6.407   6.503  2.3092  1.5765 -0.1394
 3956TIP3    H233284   3.372   6.482   6.373 -1.8366 -0.6603 -1.0042
 3957TIP3   OH233285   2.110   0.086  15.375  0.0160  0.0712  0.4493
 3957TIP3    H133286   2.183   0.030  15.401  1.1825  1.6433  0.7143
 3957TIP3    H233287   2.145   0.138  15.303  1.1089  4.5856  3.7754
 3958TIP3   OH233288   2.966   4.406   2.656 -0.0815 -0.5003  0.4044
 3958TIP3    H133289   2.952   4.501   2.649 -1.2068 -0.5576  1.5379
 3958TIP3    H233290   2.904   4.367   2.595  0.9205 -0.5112 -0.6462
 3959TIP3   OH233291   0.546   4.720  16.475 -0.4714 -0.2619  0.3741
 3959TIP3    H133292   0.542   4.658  16.402 -0.4287  0.1451  0.0254
 3959TIP3    H233293   0.543   4.664  16.553 -2.9026 -0.6208  0.1230
 3960TIP3   OH233294   1.625   4.451   2.233  0.4386 -0.2818  0.4346
 3960TIP3    H133295   1.569   4.528   2.248  0.4693 -0.4033  1.2570
 3960TIP3    H233296   1.681   4.475   2.160 -0.2083  0.1142  0.0585
 3961TIP3   OH233297   3.114   0.774  13.972 -0.2474 -0.2034 -0.9061
 3961TIP3    H133298   3.081   0.735  13.891 -1.3875 -0.4072 -0.3583
 3961TIP3    H233299   3.072   0.724  14.042 -0.2800  0.7857 -0.1891
 3962TIP3   OH233300   5.757   0.178   5.096  0.1176  0.3136  0.0429
 3962TIP3    H133301   5.680   0.185   5.151 -0.3557  0.1136 -0.5827
 3962TIP3    H233302   5.815   0.117   5.143  0.2617  1.1073  0.9133
 3963TIP3   OH233303   3.658   3.361  12.580  0.3179 -0.8305 -0.2926
 3963TIP3    H133304   3.688   3.433  12.524 -0.7751 -0.9389 -1.0539
 3963TIP3    H233305   3.611   3.303  12.520 -1.5655 -0.5587  0.8617
 3964TIP3   OH233306   0.350   3.781  14.657 -0.7422 -0.1235 -0.2504
 3964TIP3    H133307   0.291   3.759  14.729 -0.2272  0.9024  0.4943
 3964TIP3    H233308   0.318   3.866  14.625 -0.2669 -0.0281 -0.4843
 3965TIP3   OH233309   6.653   5.559  16.440 -0.2398  0.3854  0.4720
 3965TIP3    H133310   6.705   5.625  16.393  1.1591 -0.0680  1.3033
 3965TIP3    H233311   6.659   5.481  16.385  0.7160  0.0879  0.9730
 3966TIP3   OH233312   3.183   2.124   3.214  0.0720 -0.4146 -0.1657
 3966TIP3    H133313   3.262   2.176   3.230 -0.4013  0.3531 -0.3114
 3966TIP3    H233314   3.216   2.040   3.182  0.8749 -0.4754  0.7628
 3967TIP3   OH233315   5.377   0.699  16.950  0.1027  0.4764 -0.1112
 3967TIP3    H133316   5.333   0.782  16.970 -0.2301  0.4184 -0.5932
 3967TIP3    H233317   5.378   0.695  16.854 -0.5409 -0.4240 -0.0898
 3968TIP3   OH233318   5.099   5.108  14.153 -0.0891  0.0934 -0.3461
 3968TIP3    H133319   5.151   5.076  14.227  1.3795 -0.1558 -1.4515
 3968TIP3    H233320   5.028   5.044  14.145 -1.5000  1.2041  2.0742
 3969TIP3   OH233321   5.061   0.886   3.441  0.4468 -0.3330 -0.1241
 3969TIP3    H133322   5.139   0.836   3.464  0.3594 -0.2470  0.3730
 3969TIP3    H233323   4.990   0.842   3.487  0.3139  0.0281  0.0154
 3970TIP3   OH233324   2.268   1.684  14.457  0.3605 -0.1841 -0.3958
 3970TIP3    H133325   2.325   1.754  14.487  0.3979 -0.6926  0.7932
 3970TIP3    H233326   2.304   1.605  14.499 -0.1832 -0.7792 -1.0260
 3971TIP3   OH233327   1.914   4.391   3.629 -0.6133 -0.2930 -0.6687
 3971TIP3    H133328   1.877   4.472   3.662 -0.1015 -0.1157 -0.5280
 3971TIP3    H233329   2.009   4.403   3.634 -0.5303 -0.8578 -0.7389
 3972TIP3   OH233330   4.408   3.034   0.276  0.5478  0.0866  0.1544
 3972TIP3    H133331   4.462   3.101   0.233  1.9307 -1.1949 -0.1823
 3972TIP3    H233332   4.425   2.954   0.227 -1.2405 -0.5041  0.4136
 3973TIP3   OH233333   4.779   5.443   4.115  0.2443 -0.3500 -0.2574
 3973TIP3    H133334   4.834   5.382   4.164  0.6588 -1.3007 -1.8399
 3973TIP3    H233335   4.831   5.465   4.037 -0.2047  1.4622 -0.0956
 3974TIP3   OH233336   5.478   6.289  14.709  0.5878  0.5591  0.2878
 3974TIP3    H133337   5.470   6.349  14.783 -0.6809  0.1482  0.4970
 3974TIP3    H233338   5.389   6.278  14.677  1.0458  0.2927 -0.9651
 3975TIP3   OH233339   1.939   1.491  11.272 -0.2182  0.2982  0.4824
 3975TIP3    H133340   1.843   1.495  11.276 -0.2771  0.3373 -0.6398
 3975TIP3    H233341   1.957   1.441  11.192  0.6977  1.3502  0.0078
 3976TIP3   OH233342   1.662   4.793  11.017  0.6661  0.2073 -0.1939
 3976TIP3    H133343   1.649   4.865  11.078 -0.5302  1.9248 -2.3403
 3976TIP3    H233344   1.599   4.726  11.045 -1.7126  1.9886 -0.9366
 3977TIP3   OH233345   2.723   0.455   1.725 -0.0618 -0.3673  0.3111
 3977TIP3    H133346   2.742   0.424   1.636 -0.8065  0.2137 -0.0612
 3977TIP3    H233347   2.630   0.435   1.737 -0.5995  1.7673  0.0190
 3978TIP3   OH233348   2.640   4.594   1.809  0.2652  0.8610 -0.1144
 3978TIP3    H133349   2.688   4.512   1.807 -0.3691  0.4936 -0.4835
 3978TIP3    H233350   2.688   4.651   1.749  0.5954  0.7085 -0.0020
 3979TIP3   OH233351   6.182   5.883  14.897 -0.0100 -0.5374  0.1866
 3979TIP3    H133352   6.235   5.889  14.817 -0.9467  0.6924 -0.3602
 3979TIP3    H233353   6.128   5.805  14.884  0.5142 -0.8885  0.0599
 3980TIP3   OH233354   1.420   6.608   2.914  0.5270  0.1032  0.0114
 3980TIP3    H133355   1.355   6.659   2.866 -1.8130 -1.3510  1.4650
 3980TIP3    H233356   1.426   6.526   2.866  3.0795  0.9850 -1.3890
 3981TIP3   OH233357   0.773   3.498  17.095 -0.2111 -0.1059 -0.2308
 3981TIP3    H133358   0.692   3.549  17.103 -0.5417 -0.7709  0.9000
 3981TIP3    H233359   0.743   3.410  17.073 -0.1261 -1.2012  3.3896
 3982TIP3   OH233360   4.650   3.356   0.669  0.3823  0.4330 -0.0641
 3982TIP3    H133361   4.620   3.274   0.707 -0.9854  0.1418 -1.6934
 3982TIP3    H233362   4.743   3.342   0.653 -0.1683 -1.5104 -1.9850
 3983TIP3   OH233363   5.794   6.423  10.676  0.3113  0.2724 -0.7308
 3983TIP3    H133364   5.804   6.328  10.664  3.1978  0.2927  0.7149
 3983TIP3    H233365   5.731   6.449  10.609  0.7955 -2.3950 -2.3794
 3984TIP3   OH233366   2.255   5.148  12.592 -0.1141  0.3436  0.3712
 3984TIP3    H133367   2.263   5.122  12.500 -0.4559  0.1175  0.3996
 3984TIP3    H233368   2.171   5.193  12.596  0.6759  1.8859  0.2348
 3985TIP3   OH233369   5.287   2.882   3.721 -0.1095  1.2620  0.4906
 3985TIP3    H133370   5.330   2.966   3.740  1.0075  2.0427 -4.1899
 3985TIP3    H233371   5.359   2.821   3.705 -0.7698  0.7868 -0.9009
 3986TIP3   OH233372   6.344   0.996  11.078 -0.0314  0.0793 -0.3418
 3986TIP3    H133373   6.253   1.023  11.082  0.0820  0.3656  2.1959
 3986TIP3    H233374   6.352   0.950  10.995 -2.1553  1.1049 -1.1962
 3987TIP3   OH233375   3.631   6.721  12.461 -0.3030  0.4046  0.2896
 3987TIP3    H133376   3.708   6.766  12.495  1.4037 -1.5745 -0.6595
 3987TIP3    H233377   3.563   6.735  12.526  0.5433  3.0154  0.7138
 3988TIP3   OH233378   5.095   6.468   2.811  0.0101 -0.8974  0.3986
 3988TIP3    H133379   5.060   6.512   2.889 -0.4561 -0.7321  0.0953
 3988TIP3    H233380   5.141   6.391   2.846 -0.3769 -0.9410  0.8217
 3989TIP3   OH233381   1.003   0.017  10.772 -0.1887  0.0696 -0.0631
 3989TIP3    H133382   0.926   0.021  10.828  1.5299  0.2799  2.4534
 3989TIP3    H233383   1.034  -0.073  10.779 -0.1471 -0.0026 -1.0126
 3990TIP3   OH233384   3.838   6.563  12.291 -0.1493  0.1146  0.2065
 3990TIP3    H133385   3.807   6.578  12.381 -1.2145 -1.1397  0.0790
 3990TIP3    H233386   3.900   6.634  12.275  0.5952 -0.0216  2.1834
 3991TIP3   OH233387   2.931   5.232   1.304 -0.2306 -0.1707 -0.0197
 3991TIP3    H133388   2.842   5.226   1.337  0.1749  0.1691  1.1790
 3991TIP3    H233389   2.965   5.143   1.309 -0.9200 -0.5754 -1.7768
 3992TIP3   OH233390   3.282   1.438  12.004  0.0971  0.2260 -0.0953
 3992TIP3    H133391   3.348   1.374  12.032  0.2103  0.5319  0.3465
 3992TIP3    H233392   3.243   1.468  12.086  0.4066  1.1187 -0.2688
 3993TIP3   OH233393   0.201   0.433  17.040  0.2461  0.4212  0.0051
 3993TIP3    H133394   0.266   0.408  17.106  1.2023  1.7090 -0.4139
 3993TIP3    H233395   0.157   0.351  17.017  0.3534 -0.1665  1.7359
 3994TIP3   OH233396   4.106   4.798  14.276  0.0281 -0.0848 -0.5385
 3994TIP3    H133397   4.082   4.764  14.362  2.8140 -0.1992  0.2896
 3994TIP3    H233398   4.051   4.751  14.214 -0.5382 -1.5618  1.0408
 3995TIP3   OH233399   5.161   3.784  15.947  0.2877 -0.1445  0.1757
 3995TIP3    H133400   5.106   3.761  15.873 -1.2473 -1.3290  1.5912
 3995TIP3    H233401   5.111   3.755  16.024  3.1123 -1.8379  1.5489
 3996TIP3   OH233402   2.320   1.909   0.006  0.1822  0.3560  0.1502
 3996TIP3    H133403   2.299   1.877   0.093 -0.7528 -1.2467 -0.6213
 3996TIP3    H233404   2.246   1.883  -0.048  0.3208  2.1128 -0.9730
 3997TIP3   OH233405   2.429   1.094  15.592  0.0379 -0.2425 -0.4192
 3997TIP3    H133406   2.340   1.058  15.593 -0.5589  0.9886  2.9222
 3997TIP3    H233407   2.416   1.188  15.601  1.6879 -0.0379  0.0534
 3998TIP3   OH233408   2.007   1.957  15.479 -0.2699  0.4376 -0.3601
 3998TIP3    H133409   2.060   1.882  15.506  0.5519  1.4272  0.8696
 3998TIP3    H233410   1.976   1.995  15.561 -0.7422  1.4057 -0.9742
 3999TIP3   OH233411   6.684   2.370  15.992  0.6200  0.4667  0.1853
 3999TIP3    H133412   6.775   2.384  16.017  1.1086 -0.5840 -0.8747
 3999TIP3    H233413   6.686   2.360  15.896 -0.8894  2.4398 -0.1249
 4000TIP3   OH233414   2.760   4.743   1.122  0.0522  0.1892 -0.3666
 4000TIP3    H133415   2.669   4.736   1.095  0.3094 -0.2770 -1.1378
 4000TIP3    H233416   2.779   4.661   1.167 -0.2562  0.7969  0.9109
 4001TIP3   OH233417   0.989   0.853   2.705  0.0184 -0.5252 -0.0019
 4001TIP3    H133418   1.017   0.796   2.633  1.2567  2.2583 -1.8783
 4001TIP3    H233419   0.899   0.878   2.682  0.1910 -0.1367 -0.2621
 4002TIP3   OH233420   5.235   2.017  12.133 -0.3827  0.4309  0.2043
 4002TIP3    H133421   5.207   2.101  12.169 -1.2582  0.6944 -0.9854
 4002TIP3    H233422   5.228   1.956  12.206 -1.3038  1.0823  0.6836
 4003TIP3   OH233423   5.954   3.119  13.577 -0.4080 -0.4484 -0.5225
 4003TIP3    H133424   6.029   3.174  13.599 -1.3061  1.3173 -1.6212
 4003TIP3    H233425   5.984   3.029  13.592  1.0010  0.3202  1.6684
 4004TIP3   OH233426   5.534   3.909  13.493  0.0844  0.1371  0.0747
 4004TIP3    H133427   5.543   3.992  13.445 -2.6143  0.0845 -0.7380
 4004TIP3    H233428   5.580   3.845  13.439 -0.2208  0.6491 -0.8250
 4005TIP3   OH233429   3.409   6.569   2.776  0.1350 -0.1923 -0.2913
 4005TIP3    H133430   3.383   6.660   2.791 -2.4078 -0.8984  0.1005
 4005TIP3    H233431   3.408   6.530   2.863 -0.0633 -0.8991 -0.6070
 4006TIP3   OH233432   6.603   0.788  11.192 -0.0686 -0.1769  0.1687
 4006TIP3    H133433   6.558   0.864  11.228 -0.0643 -0.4169  0.7115
 4006TIP3    H233434   6.599   0.799  11.097 -2.1091 -0.6484  0.1426
 4007TIP3   OH233435   3.422   0.859   5.121  0.6641  0.2490  0.5324
 4007TIP3    H133436   3.400   0.901   5.038 -0.7186 -1.1493  0.1292
 4007TIP3    H233437   3.482   0.788   5.096 -0.4468 -0.7260  0.5830
 4008TIP3   OH233438   4.420   3.057   4.587 -0.2689 -0.5617 -0.0740
 4008TIP3    H133439   4.411   3.029   4.678  0.0784 -0.0906  0.1061
 4008TIP3    H233440   4.371   3.140   4.582 -1.5736 -1.3345 -0.6817
 4009TIP3   OH233441   3.810   4.084   5.055 -0.1738 -0.7341 -0.3970
 4009TIP3    H133442   3.876   4.096   5.123  0.9561 -0.4035 -1.5126
 4009TIP3    H233443   3.731   4.125   5.091  0.9679  1.3568 -0.1303
 4010TIP3   OH233444   2.465   0.769  15.382 -0.3271 -0.4647 -0.4840
 4010TIP3    H133445   2.420   0.720  15.451  0.0878  0.5043  0.4900
 4010TIP3    H233446   2.557   0.747  15.393 -0.1647  0.3482 -0.1837
 4011TIP3   OH233447   1.127   1.639  10.505 -0.1369 -0.2380  0.4276
 4011TIP3    H133448   1.208   1.671  10.543  0.0876 -0.5181  0.1909
 4011TIP3    H233449   1.058   1.691  10.547  0.2957  1.4859 -0.8848
 4012TIP3   OH233450   3.638   6.744  16.819 -0.6372  0.6108 -0.1576
 4012TIP3    H133451   3.699   6.682  16.780 -2.1609 -1.7414  0.9898
 4012TIP3    H233452   3.691   6.793  16.882  0.2058 -1.1372  0.5721
 4013TIP3   OH233453   3.435   3.653  16.270  0.1853  0.3751 -0.0206
 4013TIP3    H133454   3.379   3.610  16.335 -0.6983 -0.5542 -1.3471
 4013TIP3    H233455   3.423   3.747  16.286  2.6610  0.3152  3.3778
 4014TIP3   OH233456   3.071   1.666  13.398 -0.5880 -0.6300 -0.3134
 4014TIP3    H133457   3.053   1.755  13.367  0.2813 -0.4188 -0.2137
 4014TIP3    H233458   2.998   1.614  13.363 -1.6160  0.2764  0.4070
 4015TIP3   OH233459   0.570   0.387  16.709 -0.0044  0.3424  0.9889
 4015TIP3    H133460   0.569   0.415  16.618 -0.7914  0.5455  1.0469
 4015TIP3    H233461   0.501   0.440  16.750  0.0958 -0.0090  1.6184
 4016TIP3   OH233462   4.901   1.240   1.856 -0.3812 -0.0766 -0.1561
 4016TIP3    H133463   4.905   1.169   1.793  1.1364  0.4335 -0.6826
 4016TIP3    H233464   4.808   1.248   1.878 -0.8308 -0.8420 -1.6618
 4017TIP3   OH233465   4.575   3.307  16.716  0.2254  0.3367  0.5963
 4017TIP3    H133466   4.589   3.239  16.782 -2.1146 -0.2410  0.5729
 4017TIP3    H233467   4.601   3.388  16.760 -0.0067 -0.2037  1.7647
 4018TIP3   OH233468   5.878   3.117   1.577  0.5116  0.0559  0.3813
 4018TIP3    H133469   5.865   3.172   1.501  1.0322 -0.7210 -0.2917
 4018TIP3    H233470   5.965   3.141   1.610  0.7610 -0.3764  0.0572
 4019TIP3   OH233471   3.308   0.397  16.483  0.4184  0.0572  0.5143
 4019TIP3    H133472   3.337   0.435  16.400  0.6844 -0.0308  0.5664
 4019TIP3    H233473   3.366   0.322  16.497 -0.8535 -1.0931 -0.1601
 4020TIP3   OH233474   5.712   0.046   0.814 -0.3496  0.4057 -0.6334
 4020TIP3    H133475   5.630   0.015   0.775 -2.6040  3.6360  1.0865
 4020TIP3    H233476   5.744   0.114   0.755 -0.1832  0.7798 -0.1190
 4021TIP3   OH233477   2.822   2.321   2.070 -0.5313 -0.3415 -0.7227
 4021TIP3    H133478   2.899   2.310   2.126  0.9032  2.5367 -1.9178
 4021TIP3    H233479   2.834   2.258   2.000  0.5765 -0.1870 -0.6958
 4022TIP3   OH233480   2.401   4.008   3.795 -0.0925  0.5411  0.3492
 4022TIP3    H133481   2.381   4.037   3.884 -0.7144  0.5902  0.2022
 4022TIP3    H233482   2.421   4.088   3.748  2.9579  0.3110  1.0641
 4023TIP3   OH233483   3.559   2.702  14.461 -0.5309 -0.3634  0.1044
 4023TIP3    H133484   3.610   2.724  14.538 -3.1703  3.7896  0.9687
 4023TIP3    H233485   3.578   2.771  14.398 -3.1675  0.0085 -0.4134
 4024TIP3   OH233486   5.625   4.819  10.539  0.3812 -0.7689  0.3301
 4024TIP3    H133487   5.540   4.829  10.581  0.5919 -0.0919  0.6141
 4024TIP3    H233488   5.678   4.772  10.603  0.2423 -1.1381  0.1770
 4025TIP3   OH233489   3.074   0.830  11.926  0.3014  0.1454  0.3952
 4025TIP3    H133490   3.090   0.900  11.990 -1.5341  1.0920 -0.1209
 4025TIP3    H233491   3.066   0.876  11.842  2.7184 -1.0807 -0.6000
 4026TIP3   OH233492   0.868   3.384  11.066  0.1004 -0.3506 -0.4656
 4026TIP3    H133493   0.828   3.301  11.090  0.5458 -0.5240 -0.3253
 4026TIP3    H233494   0.799   3.430  11.018 -0.2108 -0.7184 -0.3769
 4027TIP3   OH233495   2.226   1.545   4.705 -0.4933  0.3921  0.1155
 4027TIP3    H133496   2.286   1.543   4.778 -1.9073 -0.1692  1.3146
 4027TIP3    H233497   2.259   1.479   4.644 -0.1988 -0.3126  1.0146
 4028TIP3   OH233498   4.762   5.271   1.688 -0.2599 -0.1174  0.1835
 4028TIP3    H133499   4.823   5.268   1.761  0.9692  1.9686 -0.6656
 4028TIP3    H233500   4.715   5.354   1.699 -1.2412 -0.5612 -0.5042
 4029TIP3   OH233501   3.527   2.544  15.285 -0.2356 -0.2327 -0.4477
 4029TIP3    H133502   3.601   2.520  15.230 -0.5218 -1.9869 -0.1300
 4029TIP3    H233503   3.561   2.614  15.342  1.2805 -1.2135 -0.0957
 4030TIP3   OH233504   0.004   1.480   5.254  0.8368  0.3008 -0.3396
 4030TIP3    H133505  -0.081   1.456   5.289  1.0508  0.4088  0.2638
 4030TIP3    H233506  -0.016   1.538   5.180  0.3649 -0.5970 -0.9290
 4031TIP3   OH233507   5.973   3.998  15.328  0.0439 -0.6242 -0.5960
 4031TIP3    H133508   5.937   4.050  15.257  2.0838 -1.4445 -2.3397
 4031TIP3    H233509   5.917   3.921  15.333 -0.4989 -0.2500 -0.8728
 4032TIP3   OH233510   0.670   6.250  16.889 -0.0567  0.5033 -0.0014
 4032TIP3    H133511   0.726   6.296  16.952  1.4949 -1.4712  0.1621
 4032TIP3    H233512   0.699   6.283  16.804  0.9536 -0.0094  0.1208
 4033TIP3   OH233513   6.232   0.469   2.610  0.4885 -0.0599 -0.0215
 4033TIP3    H133514   6.175   0.528   2.660 -0.3373  0.5555 -1.5990
 4033TIP3    H233515   6.319   0.509   2.614 -0.0741  1.3858 -1.1367
 4034TIP3   OH233516   1.245   6.330  12.183 -0.1711 -0.1427  0.8427
 4034TIP3    H133517   1.159   6.370  12.198  0.5122  1.1430  1.4704
 4034TIP3    H233518   1.257   6.335  12.088 -0.1300  1.1271  0.9010
 4035TIP3   OH233519   5.770   2.493  15.603  0.5027  0.0515 -0.0124
 4035TIP3    H133520   5.828   2.567  15.621 -0.9530  1.0405  0.9481
 4035TIP3    H233521   5.747   2.459  15.690 -0.1515 -0.4506 -0.3726
 4036TIP3   OH233522   6.666   4.758  12.514  0.1403  0.0572 -0.4510
 4036TIP3    H133523   6.717   4.691  12.468 -0.6607 -1.2300  0.4367
 4036TIP3    H233524   6.606   4.708  12.569  0.9295  1.4843  1.8688
 4037TIP3   OH233525   5.584   2.623  15.095 -0.2852  0.2521 -0.4879
 4037TIP3    H133526   5.647   2.683  15.136 -1.0695 -0.0824  1.3150
 4037TIP3    H233527   5.518   2.681  15.057 -0.6192  0.5748  0.5449
 4038TIP3   OH233528   4.284   0.185  14.567 -0.4058 -0.1059 -0.0544
 4038TIP3    H133529   4.213   0.242  14.596 -0.0959  1.2456 -1.7651
 4038TIP3    H233530   4.355   0.200  14.630 -0.4810  1.1118 -0.2451
 4039TIP3   OH233531   2.033   5.676   1.377 -0.2700  0.1103 -0.1710
 4039TIP3    H133532   1.943   5.645   1.362  0.2083 -1.3233 -0.2132
 4039TIP3    H233533   2.075   5.670   1.291 -0.3165  1.4658 -0.3030
 4040TIP3   OH233534   5.632   0.827   3.942  0.2288 -0.2164  0.8696
 4040TIP3    H133535   5.639   0.740   3.904 -0.0010 -0.4146  1.2899
 4040TIP3    H233536   5.611   0.884   3.867 -1.1700 -0.7397  0.8442
 4041TIP3   OH233537   1.729   1.690   4.977  0.4195 -0.0800 -0.3914
 4041TIP3    H133538   1.791   1.728   4.914 -1.1080 -1.5642 -2.9644
 4041TIP3    H233539   1.676   1.764   5.005  0.2095  0.4329 -2.0202
 4042TIP3   OH233540   6.303   3.000   0.205 -0.3711 -0.1911  0.1315
 4042TIP3    H133541   6.302   2.928   0.268  0.3545 -0.6383 -0.3437
 4042TIP3    H233542   6.372   3.059   0.236 -0.6522  0.0732  0.2652
 4043TIP3   OH233543   4.599   2.974  16.021  0.0027  0.0726 -0.2479
 4043TIP3    H133544   4.616   2.952  16.112  0.0015  0.3956 -0.1684
 4043TIP3    H233545   4.656   3.049  16.003 -0.1674  0.1587 -0.4411
 4044TIP3   OH233546   3.229   5.446   2.691  0.2425  0.2190  0.2691
 4044TIP3    H133547   3.293   5.376   2.705 -1.2991 -1.0301  1.4790
 4044TIP3    H233548   3.145   5.400   2.683 -1.2118  1.9559  3.6059
 4045TIP3   OH233549   4.861   4.517  16.782  0.1873 -0.2867 -0.6334
 4045TIP3    H133550   4.899   4.430  16.773 -1.7594 -1.1237 -1.2465
 4045TIP3    H233551   4.830   4.539  16.693  0.0146  0.7113 -0.3404
 4046TIP3   OH233552   2.680   2.118   4.921 -0.1252  0.2667  0.5672
 4046TIP3    H133553   2.609   2.179   4.901  1.1488  1.3356 -0.9921
 4046TIP3    H233554   2.664   2.043   4.864  0.1899  0.6907 -0.0976
 4047TIP3   OH233555   1.365   1.529   0.874  0.3834 -0.2474 -0.3466
 4047TIP3    H133556   1.308   1.603   0.893  0.0031 -0.8638  1.0231
 4047TIP3    H233557   1.361   1.474   0.952  2.9124 -0.2824 -0.1345
 4048TIP3   OH233558   0.626   2.728  13.085 -0.2133 -0.3319 -0.0868
 4048TIP3    H133559   0.566   2.653  13.089  0.4383 -0.8154  0.7411
 4048TIP3    H233560   0.638   2.754  13.176  0.7781 -0.2029 -0.2446
 4049TIP3   OH233561   6.346   2.389   2.842  0.1762  0.1444 -0.1536
 4049TIP3    H133562   6.344   2.476   2.801  0.1466  0.5309  0.6398
 4049TIP3    H233563   6.305   2.402   2.927  1.8101 -0.2217  0.7386
 4050TIP3   OH233564   2.289   4.778   3.735 -0.2991  0.2749 -0.2103
 4050TIP3    H133565   2.303   4.739   3.649  0.4640  0.5292 -0.2057
 4050TIP3    H233566   2.219   4.843   3.721 -1.2801 -0.7627 -0.3028
 4051TIP3   OH233567   6.330   1.543   4.587 -0.5037 -0.4429  0.0474
 4051TIP3    H133568   6.373   1.461   4.610 -1.1391 -1.2595 -1.5129
 4051TIP3    H233569   6.260   1.518   4.526 -1.1160  1.1912  0.0139
 4052TIP3   OH233570   6.072   4.029  16.693 -0.4759  0.1434  0.6744
 4052TIP3    H133571   5.982   4.002  16.706 -0.5775  0.2869  0.2957
 4052TIP3    H233572   6.067   4.124  16.678 -0.2533  0.1716  0.7667
 4053TIP3   OH233573   2.503   5.014  12.638  0.0629 -0.0898 -0.3807
 4053TIP3    H133574   2.489   4.937  12.693 -0.2030  0.3762  0.2266
 4053TIP3    H233575   2.416   5.055  12.632  0.7478  2.0786  2.2482
 4054TIP3   OH233576   5.043   0.873  16.621 -0.1400 -0.0946 -0.4420
 4054TIP3    H133577   5.120   0.893  16.567  0.3438  0.9471  0.5728
 4054TIP3    H233578   5.059   0.785  16.654 -0.1178 -0.4766 -1.4395
 4055TIP3   OH233579   4.350   4.847  14.430  0.1943 -0.1016 -0.2479
 4055TIP3    H133580   4.353   4.857  14.335  2.9037 -0.2947 -0.2445
 4055TIP3    H233581   4.368   4.754  14.444  0.5109  0.0666  0.4745
 4056TIP3   OH233582   4.903   6.468  16.042  0.1591  0.4268 -0.9814
 4056TIP3    H133583   4.889   6.375  16.026  0.3971 -0.0678  1.3387
 4056TIP3    H233584   4.851   6.512  15.974 -2.9690 -1.3832  0.0368
 4057TIP3   OH233585   2.205   5.204  17.073  0.1326  0.8500 -0.0017
 4057TIP3    H133586   2.257   5.268  17.122  1.2362  1.1863 -1.5342
 4057TIP3    H233587   2.219   5.227  16.981 -1.2200 -0.2528 -0.5172
 4058TIP3   OH233588   2.473   5.111   1.850  0.0530 -0.1730  0.1211
 4058TIP3    H133589   2.477   5.098   1.755 -3.8130 -0.5805 -0.1307
 4058TIP3    H233590   2.469   5.023   1.887 -0.1566  0.0081  0.5379
 4059TIP3   OH233591   0.868   6.612  12.119 -0.1990  0.5099  0.4472
 4059TIP3    H133592   0.896   6.529  12.156  0.5820  1.1725  1.4073
 4059TIP3    H233593   0.783   6.629  12.160 -1.9341 -1.2615 -2.0947
 4060TIP3   OH233594   6.179   3.684   5.131 -0.3337 -0.1109  0.2767
 4060TIP3    H133595   6.128   3.645   5.202 -1.0560  1.3146  0.5799
 4060TIP3    H233596   6.134   3.766   5.111  1.6752  1.0856  0.3786
 4061TIP3   OH233597   6.747   2.961   1.143 -0.0692  0.7590  0.1060
 4061TIP3    H133598   6.663   2.928   1.111  1.5727 -1.1477 -2.6610
 4061TIP3    H233599   6.773   2.899   1.212 -0.9100  1.4237  1.0549
 4062TIP3   OH233600   4.831   1.746  14.282 -0.1369 -0.7364  0.0330
 4062TIP3    H133601   4.795   1.658  14.271 -2.4798 -0.1405  1.9508
 4062TIP3    H233602   4.882   1.741  14.363  1.2276 -0.6996 -0.7922
 4063TIP3   OH233603   3.161   6.597  15.662 -0.4075 -0.4161 -0.2404
 4063TIP3    H133604   3.089   6.545  15.629 -0.3164 -0.2933 -0.6372
 4063TIP3    H233605   3.126   6.639  15.741 -1.0850  0.3928 -0.9424
 4064TIP3   OH233606   4.530   2.373   4.564 -0.3839  0.1598  0.2011
 4064TIP3    H133607   4.478   2.430   4.620 -2.1141 -0.0303 -1.1052
 4064TIP3    H233608   4.472   2.354   4.489  1.4579 -0.3593 -1.1688
 4065TIP3   OH233609   1.039   4.445  15.833 -0.4145  0.8224 -0.4514
 4065TIP3    H133610   1.050   4.354  15.806 -0.6935  1.2892 -2.2032
 4065TIP3    H233611   0.947   4.452  15.858 -0.2353  0.4828  0.3696
 4066TIP3   OH233612   2.950   3.755   2.312  0.1381  0.2987  0.0975
 4066TIP3    H133613   2.991   3.833   2.275  0.0079  0.5761  0.5276
 4066TIP3    H233614   2.869   3.744   2.264  0.4058  0.1202 -0.3223
 4067TIP3   OH233615   4.267   0.764   4.148  0.5769 -0.2513  0.3517
 4067TIP3    H133616   4.200   0.811   4.198  0.1717 -0.9097  0.4437
 4067TIP3    H233617   4.260   0.674   4.178  0.9833 -0.4722 -0.2018
 4068TIP3   OH233618   0.462   0.110  12.529  0.2897 -0.1169 -0.0717
 4068TIP3    H133619   0.516   0.054  12.473 -0.4053  0.3501 -1.2445
 4068TIP3    H233620   0.389   0.055  12.555  0.3660 -0.1914 -0.0146
 4069TIP3   OH233621   4.107   5.529   4.607  0.2901  0.3411 -0.4870
 4069TIP3    H133622   4.139   5.458   4.551  3.3868  1.1142  0.1327
 4069TIP3    H233623   4.125   5.609   4.557  0.5312  0.8869  0.4545
 4070TIP3   OH233624   6.164   2.541  15.175  0.6439 -0.3529 -0.2692
 4070TIP3    H133625   6.096   2.589  15.223  1.4900  0.7063 -0.0868
 4070TIP3    H233626   6.119   2.507  15.097  0.2129  1.6506 -0.9571
 4071TIP3   OH233627   2.501   0.917  13.730 -0.0832  0.8102  0.1770
 4071TIP3    H133628   2.454   0.847  13.775 -0.9358  0.7210 -0.8091
 4071TIP3    H233629   2.578   0.932  13.784 -0.6455  0.1473  1.2118
 4072TIP3   OH233630   4.778   4.284   2.170  0.4224 -0.4616 -0.4458
 4072TIP3    H133631   4.708   4.339   2.134  1.8604 -0.3948 -3.3768
 4072TIP3    H233632   4.735   4.202   2.192 -0.7442 -0.1485 -1.4424
 4073TIP3   OH233633   3.490   4.704  14.861  0.2752 -0.1899 -0.7663
 4073TIP3    H133634   3.522   4.626  14.906 -0.5369 -0.8161 -1.2465
 4073TIP3    H233635   3.396   4.706  14.880  0.3037  0.7343 -0.6718
 4074TIP3   OH233636   4.044   5.820  16.262  0.3675  0.3960  0.2581
 4074TIP3    H133637   4.007   5.876  16.330  0.9777  0.4652  0.5411
 4074TIP3    H233638   4.128   5.861  16.240  0.9893 -0.5966  0.7280
 4075TIP3   OH233639   6.474   1.329   2.167 -0.7606 -0.1485 -0.3978
 4075TIP3    H133640   6.554   1.291   2.204 -1.7607  0.4626  2.7056
 4075TIP3    H233641   6.464   1.286   2.083  2.2243 -1.0447 -0.4254
 4076TIP3   OH233642   5.467   1.350   1.206  0.3124  0.0491  0.5940
 4076TIP3    H133643   5.543   1.400   1.176  0.5313 -0.2571  0.6402
 4076TIP3    H233644   5.394   1.385   1.155  0.5467  0.0850  0.2804
 4077TIP3   OH233645   0.982   6.728  14.468  0.0818  0.1961  0.1313
 4077TIP3    H133646   0.917   6.683  14.521  0.9816 -1.0632  0.2261
 4077TIP3    H233647   0.972   6.690  14.380  1.1956 -0.6231  0.3295
 4078TIP3   OH233648   6.188   3.661  12.864 -0.4437  0.2025  0.8838
 4078TIP3    H133649   6.109   3.699  12.824 -1.0716 -1.8617  0.0068
 4078TIP3    H233650   6.154   3.595  12.924  0.5765 -1.5128 -0.3442
 4079TIP3   OH233651   1.914   3.842  13.744 -0.6374  0.5458 -0.4265
 4079TIP3    H133652   1.827   3.832  13.703  0.2529  0.7494 -2.4776
 4079TIP3    H233653   1.972   3.789  13.690  0.6966  1.1502  0.3671
 4080TIP3   OH233654   3.604   1.200  11.288 -0.1782 -0.0309 -0.5124
 4080TIP3    H133655   3.589   1.115  11.331  0.3653  0.2010  0.1548
 4080TIP3    H233656   3.518   1.225  11.255 -0.5852 -0.2938  0.3086
 4081TIP3   OH233657   4.120   6.119  11.661 -0.3030  0.5699  0.5810
 4081TIP3    H133658   4.163   6.144  11.580 -1.8978 -1.4240 -0.9949
 4081TIP3    H233659   4.147   6.186  11.724  4.0665  0.1306 -0.5075
 4082TIP3   OH233660   2.683   3.058   2.009 -0.1725 -0.5685 -0.0328
 4082TIP3    H133661   2.676   3.129   2.073  0.1221 -0.5212 -0.0525
 4082TIP3    H233662   2.704   2.981   2.061  0.9495 -0.3639 -0.1518
 4083TIP3   OH233663   4.718   1.876  16.879 -0.8893 -0.2523 -0.0408
 4083TIP3    H133664   4.759   1.928  16.949  0.5669 -0.9236 -0.3580
 4083TIP3    H233665   4.773   1.798  16.872 -1.6234 -0.6867 -1.2324
 4084TIP3   OH233666   4.396   1.250   0.100  0.3549  0.1555 -0.3379
 4084TIP3    H133667   4.331   1.317   0.081  0.5322 -0.1463 -2.2050
 4084TIP3    H233668   4.351   1.189   0.158 -1.5028 -0.6765 -2.4924
 4085TIP3   OH233669   2.810   6.151   3.020  0.5134 -0.7256 -0.5275
 4085TIP3    H133670   2.793   6.147   2.926 -1.4501 -0.8520 -0.2238
 4085TIP3    H233671   2.777   6.067   3.053  0.9729 -0.5868  0.2920
 4086TIP3   OH233672   0.551   0.530  14.333  0.4175  0.3119  0.0901
 4086TIP3    H133673   0.638   0.511  14.298 -0.0486 -0.1676 -0.8625
 4086TIP3    H233674   0.514   0.593  14.272  0.1964  0.7302  0.6487
 4087TIP3   OH233675   0.941   1.179  12.740  0.3387  0.1057  0.0197
 4087TIP3    H133676   1.032   1.155  12.759  0.6133  1.9285  1.2268
 4087TIP3    H233677   0.893   1.150  12.817 -0.2276 -1.2980 -0.8258
 4088TIP3   OH233678   6.261   5.280   5.267 -0.3850  0.3985  1.2485
 4088TIP3    H133679   6.267   5.376   5.261 -0.6116  0.3468 -0.3356
 4088TIP3    H233680   6.175   5.264   5.304 -0.1615  0.8003  1.9736
 4089TIP3   OH233681   4.449   1.797   2.909  0.6784  0.1588  0.1616
 4089TIP3    H133682   4.522   1.856   2.922  0.7585  0.7394 -2.2921
 4089TIP3    H233683   4.404   1.831   2.831  0.0655 -2.3403 -0.6953
 4090TIP3   OH233684   6.329   5.830  12.567  0.8931  0.1751  0.1666
 4090TIP3    H133685   6.292   5.800  12.483  0.6223  1.4962 -0.2243
 4090TIP3    H233686   6.404   5.884  12.542  1.9076 -0.8477  0.8808
 4091TIP3   OH233687   6.647   4.250  16.742 -0.0451  0.3194  0.0065
 4091TIP3    H133688   6.654   4.282  16.832  0.1295  1.3554 -0.3533
 4091TIP3    H233689   6.692   4.316  16.690 -0.2567 -0.1990 -0.8600
 4092TIP3   OH233690   5.283   2.680  14.737 -0.2249  0.2712 -0.3425
 4092TIP3    H133691   5.287   2.717  14.649 -0.4067  0.8586 -0.1127
 4092TIP3    H233692   5.325   2.595  14.730 -0.1326  0.3682 -0.9719
 4093TIP3   OH233693   4.331   0.277   4.303 -0.6079 -0.2440 -0.2572
 4093TIP3    H133694   4.264   0.303   4.366  0.2586 -0.4871  0.8040
 4093TIP3    H233695   4.290   0.289   4.217 -1.1407  2.1084  0.2401
 4094TIP3   OH233696   6.516   4.044  12.859 -0.0100  0.5730 -0.5898
 4094TIP3    H133697   6.493   4.131  12.893 -2.7052 -0.1428 -0.3442
 4094TIP3    H233698   6.455   3.984  12.902  0.6095 -1.2120 -2.0515
 4095TIP3   OH233699   1.815   4.067  11.063 -0.5327 -0.1206 -0.6081
 4095TIP3    H133700   1.826   3.974  11.084 -0.9003 -0.1404 -0.4920
 4095TIP3    H233701   1.767   4.103  11.138 -0.5432  0.1253 -0.7321
 4096TIP3   OH233702   5.773   3.055   0.401 -0.1116  0.5079 -0.3577
 4096TIP3    H133703   5.835   3.076   0.331 -0.8164 -0.3389 -1.2590
 4096TIP3    H233704   5.823   2.999   0.461 -0.6151 -2.2758 -2.3497
 4097TIP3   OH233705   4.393   2.021  16.885 -0.7299 -0.3033  0.0230
 4097TIP3    H133706   4.373   2.105  16.843 -1.0488 -0.1229  0.5360
 4097TIP3    H233707   4.479   2.035  16.925 -0.6858 -0.2934 -0.0727
 4098TIP3   OH233708   1.622   0.309   1.816 -0.0760  0.5472  0.2526
 4098TIP3    H133709   1.644   0.328   1.725  0.6582  1.0926  0.5368
 4098TIP3    H233710   1.700   0.266   1.851 -0.2240  0.6484  0.7203
 4099TIP3   OH233711   2.745   1.245   2.966 -0.5772  0.2755 -0.0411
 4099TIP3    H133712   2.780   1.267   3.052 -0.1148 -0.5842  0.0082
 4099TIP3    H233713   2.658   1.210   2.984 -0.6829  0.5788  0.0307
 4100TIP3   OH233714   1.607   1.979  14.902  0.0706  0.0471 -0.5719
 4100TIP3    H133715   1.637   2.007  14.815 -0.5664 -1.0957 -1.1858
 4100TIP3    H233716   1.663   1.904  14.922  1.9003  1.7560  1.1371
 4101TIP3   OH233717   3.766   4.913  15.344 -0.0803 -0.0855  0.7484
 4101TIP3    H133718   3.765   4.818  15.355  1.2182 -0.0565  1.3834
 4101TIP3    H233719   3.681   4.942  15.375 -0.2485 -0.9852  1.1648
 4102TIP3   OH233720   1.029   0.597   1.304  0.1057  0.0473 -0.1146
 4102TIP3    H133721   1.074   0.517   1.333  1.6348  1.1130  0.6314
 4102TIP3    H233722   1.005   0.641   1.385 -1.2110  0.1218 -0.5203
 4103TIP3   OH233723   2.849   2.674  12.815  0.1453 -0.1633 -0.2602
 4103TIP3    H133724   2.853   2.613  12.741  0.6912  0.3042 -0.6174
 4103TIP3    H233725   2.938   2.706  12.824 -0.3062  1.2631 -0.6419
 4104TIP3   OH233726   2.419   3.046   2.216  0.9071  0.9206  0.3577
 4104TIP3    H133727   2.424   3.101   2.139 -0.6430 -1.8585 -1.9308
 4104TIP3    H233728   2.477   2.972   2.197 -0.6491 -0.5693  1.1038
 4105TIP3   OH233729   3.014   0.211  14.369 -0.9004  0.2767 -0.6207
 4105TIP3    H133730   3.042   0.158  14.444 -2.3468  0.1922 -0.0906
 4105TIP3    H233731   2.948   0.271  14.406  0.0312  1.8398 -1.3842
 4106TIP3   OH233732   1.581   1.574   4.557 -0.0786 -0.1134  0.2812
 4106TIP3    H133733   1.588   1.557   4.651 -1.4228 -1.5078  0.1687
 4106TIP3    H233734   1.593   1.669   4.548 -2.0128  0.3740  2.1176
 4107TIP3   OH233735   6.215   5.339  11.727  0.3610 -0.4146  0.1386
 4107TIP3    H133736   6.272   5.363  11.655  0.5945  1.9515  1.0148
 4107TIP3    H233737   6.127   5.363  11.698  0.3849  0.0350  0.4332
 4108TIP3   OH233738   5.379   1.943  17.121 -0.5811  0.2949  0.0790
 4108TIP3    H133739   5.348   1.907  17.038 -0.8842  0.9470 -0.1038
 4108TIP3    H233740   5.467   1.908  17.132 -0.8299 -0.4069 -0.1336
 4109TIP3   OH233741   2.310   1.958   5.275  0.3692  0.1575  0.6227
 4109TIP3    H133742   2.341   1.870   5.252  0.4101  0.2926  0.1360
 4109TIP3    H233743   2.350   1.976   5.359 -0.7050 -0.8277  1.3818
 4110TIP3   OH233744   3.033   3.654  13.847  0.0441  0.0063  0.1497
 4110TIP3    H133745   3.097   3.629  13.913 -0.6654 -0.1026  0.8207
 4110TIP3    H233746   3.014   3.574  13.799 -1.5028 -0.6041  1.6593
 4111TIP3   OH233747   1.532   0.150   0.683 -0.0903  0.7256  0.3609
 4111TIP3    H133748   1.597   0.107   0.627 -0.8153  0.1567 -0.0454
 4111TIP3    H233749   1.581   0.221   0.725  0.4679  1.1569 -0.9801
 4112TIP3   OH233750   1.904   6.488   5.431 -0.3940 -0.4083  0.0102
 4112TIP3    H133751   1.980   6.455   5.479  1.6646  1.3705 -1.8069
 4112TIP3    H233752   1.868   6.557   5.486  1.9479  1.6159 -0.8176
 4113TIP3   OH233753   3.744   5.312   2.252  0.5945 -0.4768  0.3164
 4113TIP3    H133754   3.811   5.358   2.304  0.6221  0.0560 -0.1901
 4113TIP3    H233755   3.740   5.361   2.170  0.9115 -1.6102 -0.3938
 4114TIP3   OH233756   5.318   2.486   2.836  0.5595 -0.2833 -0.3561
 4114TIP3    H133757   5.303   2.577   2.810  1.3556  0.3303  1.1823
 4114TIP3    H233758   5.413   2.475   2.835  0.6693 -0.2130  2.0414
 4115TIP3   OH233759   0.890   2.244  12.664 -0.0393 -0.6987 -0.3939
 4115TIP3    H133760   0.811   2.193  12.646 -0.4461 -0.3884  0.4607
 4115TIP3    H233761   0.935   2.250  12.579 -0.0558 -2.3189 -0.5376
 4116TIP3   OH233762   0.939   2.435   2.666 -0.0503  0.1851 -0.0882
 4116TIP3    H133763   0.866   2.413   2.608 -1.1327  0.3485  1.1737
 4116TIP3    H233764   0.941   2.530   2.667 -0.2430  0.1879  0.3787
 4117TIP3   OH233765   1.271   1.301  13.617 -0.8624  0.2147 -0.7222
 4117TIP3    H133766   1.327   1.321  13.542 -1.3920  0.8147 -0.9680
 4117TIP3    H233767   1.305   1.218  13.650 -0.2721  0.2153 -1.2879
 4118TIP3   OH233768   4.732   5.085   4.526 -0.6032  0.4894 -0.1555
 4118TIP3    H133769   4.790   5.091   4.449 -0.2244 -1.8719 -0.1295
 4118TIP3    H233770   4.791   5.094   4.601 -0.5944  0.2765 -0.1367
 4119TIP3   OH233771   6.442   6.557   2.613  0.0594 -0.2488 -0.2524
 4119TIP3    H133772   6.356   6.535   2.577 -0.1328 -0.1132  0.1186
 4119TIP3    H233773   6.427   6.568   2.707  0.3579  0.3916 -0.2733
 4120TIP3   OH233774   4.360   6.097  16.876 -0.7629  0.6879 -0.2173
 4120TIP3    H133775   4.345   6.090  16.781 -0.3483 -0.2824 -0.2222
 4120TIP3    H233776   4.359   6.007  16.907  0.9443  0.8442  0.4045
 4121TIP3   OH233777   4.972   5.139  15.875  0.0461 -0.2407  0.0167
 4121TIP3    H133778   5.050   5.175  15.833 -1.0936  0.6889 -1.4129
 4121TIP3    H233779   4.941   5.210  15.932 -0.2206 -0.2886 -0.0687
 4122TIP3   OH233780   3.903   1.642  12.490 -0.6153  0.9228  0.0476
 4122TIP3    H133781   3.922   1.586  12.414  0.3590 -0.2435  1.1049
 4122TIP3    H233782   3.961   1.717  12.480  0.6168  0.0449  0.3921
 4123TIP3   OH233783   3.046   5.962  12.130 -0.4824  0.9991  0.3843
 4123TIP3    H133784   3.126   5.937  12.177 -0.3481 -0.5489 -0.5742
 4123TIP3    H233785   2.978   5.906  12.168 -0.4453  0.0039 -0.9354
 4124TIP3   OH233786   4.805   1.920  14.074 -0.0688  0.2347  0.5127
 4124TIP3    H133787   4.795   1.855  14.144 -0.5147 -0.2272  0.0314
 4124TIP3    H233788   4.899   1.924  14.057  0.3285  1.9177  2.5839
 4125TIP3   OH233789   5.953   6.332  11.557  0.0007 -0.6201 -0.8565
 4125TIP3    H133790   5.905   6.393  11.613  2.5577 -0.5911  1.4855
 4125TIP3    H233791   5.988   6.386  11.487  0.9867  0.3691  0.3624
 4126TIP3   OH233792   6.676   6.606   0.760 -0.1220 -0.1518  1.0396
 4126TIP3    H133793   6.641   6.590   0.672 -1.3016 -1.0590  1.6437
 4126TIP3    H233794   6.633   6.540   0.815  0.8479  0.1878  2.2384
 4127TIP3   OH233795   6.807   0.030   4.182 -0.1050 -0.5414  0.7631
 4127TIP3    H133796   6.728  -0.019   4.160 -0.0750  0.2257 -1.3074
 4127TIP3    H233797   6.783   0.082   4.259 -1.1287 -1.4315  1.0671
 4128TIP3   OH233798   5.638   6.793   1.874 -0.3646 -0.5967  0.2087
 4128TIP3    H133799   5.558   6.833   1.909 -0.7990 -1.3486  0.1148
 4128TIP3    H233800   5.705   6.810   1.940 -0.6862 -0.2615  0.4555
 4129TIP3   OH233801   4.332   5.189   0.058 -0.1490 -0.1645 -0.8063
 4129TIP3    H133802   4.266   5.226  -0.001  0.5149  2.3541 -0.0948
 4129TIP3    H233803   4.335   5.096   0.035 -4.1252 -0.5093 -0.6568
 4130TIP3   OH233804   1.127   1.001  13.368 -0.1882  0.4015  0.1344
 4130TIP3    H133805   1.036   1.022  13.347  0.0412 -1.5484 -3.6431
 4130TIP3    H233806   1.178   1.068  13.322  0.3197  0.5988  0.9726
 4131TIP3   OH233807   4.198   6.484  16.548  0.8362 -0.8610  0.3303
 4131TIP3    H133808   4.238   6.403  16.577  2.3225  0.3388  1.8359
 4131TIP3    H233809   4.213   6.546  16.620  0.3556  0.9311 -1.0215
 4132TIP3   OH233810   2.163   5.189  13.895  0.5531 -0.3107  0.1764
 4132TIP3    H133811   2.114   5.198  13.814  2.6812  3.1441 -0.9627
 4132TIP3    H233812   2.250   5.160  13.867  1.5367  1.6188  1.0292
 4133TIP3   OH233813   0.596   1.944   5.204 -0.2042  0.5095 -0.1218
 4133TIP3    H133814   0.515   1.990   5.226 -0.1462  0.6660 -0.2425
 4133TIP3    H233815   0.606   1.954   5.110 -0.4782 -0.2120 -0.2396
 4134TIP3   OH233816   6.470   1.248  11.487  0.2379 -0.0977 -0.1975
 4134TIP3    H133817   6.459   1.176  11.425 -1.2129 -0.0491 -0.0453
 4134TIP3    H233818   6.508   1.207  11.565 -0.0567 -0.6045 -0.3137
 4135TIP3   OH233819   1.485   3.714  12.843  0.4966 -0.3599  0.3855
 4135TIP3    H133820   1.492   3.639  12.784 -2.1349 -0.4262  0.0565
 4135TIP3    H233821   1.431   3.683  12.915 -1.2652  1.3869 -0.1141
 4136TIP3   OH233822   4.776   4.117  13.162 -0.0735  0.0824 -0.0659
 4136TIP3    H133823   4.731   4.181  13.217 -0.0869 -0.3550  0.4346
 4136TIP3    H233824   4.833   4.169  13.105  0.3618  0.4940  0.7413
 4137TIP3   OH233825   3.551   4.553   1.111 -0.2355  0.0500  0.0913
 4137TIP3    H133826   3.485   4.551   1.180  0.5230  2.1373  0.9824
 4137TIP3    H233827   3.592   4.639   1.120  1.7107 -0.6538 -1.2699
 4138TIP3   OH233828   1.281   3.119  13.591 -0.5444 -0.0002 -0.4074
 4138TIP3    H133829   1.258   3.090  13.679  1.6268 -0.9600 -0.0964
 4138TIP3    H233830   1.300   3.037  13.544  1.0785  0.6306 -0.9092
 4139TIP3   OH233831   3.539   4.411  14.599  0.5665 -0.1115  0.1829
 4139TIP3    H133832   3.469   4.474  14.583 -0.6661 -1.1380  1.2252
 4139TIP3    H233833   3.574   4.435  14.685  1.6599  0.5190 -0.4211
 4140TIP3   OH233834   1.023   3.390  13.716  0.3071  0.0037  0.2361
 4140TIP3    H133835   1.092   3.409  13.654 -0.4261  2.0488 -0.0430
 4140TIP3    H233836   1.066   3.342  13.787  1.5300 -0.6758 -0.9334
 4141TIP3   OH233837   5.140   6.229  16.303  0.1949 -0.2231  0.1237
 4141TIP3    H133838   5.057   6.191  16.330  0.1219 -0.9340 -1.0404
 4141TIP3    H233839   5.125   6.260  16.214  1.7872 -2.5270 -1.0538
 4142TIP3   OH233840   0.513   0.262  14.336 -0.4164  0.1632  0.5163
 4142TIP3    H133841   0.515   0.357  14.338  0.5867  0.1687  0.0410
 4142TIP3    H233842   0.460   0.237  14.411  1.8625  1.0221  2.5070
 4143TIP3   OH233843   5.176   5.795  11.737 -0.5037 -0.4948  0.0903
 4143TIP3    H133844   5.177   5.890  11.725 -0.0874 -0.6131 -0.8777
 4143TIP3    H233845   5.253   5.764  11.690 -0.3549 -1.2744  0.8131
 4144TIP3   OH233846   6.163   2.208   1.303  0.1800 -0.1162  0.2870
 4144TIP3    H133847   6.187   2.301   1.303  0.0983 -0.0888 -0.3571
 4144TIP3    H233848   6.244   2.162   1.326  0.2010  0.1139  0.6857
 4145TIP3   OH233849   0.620   0.399   3.093 -0.0349  0.0453 -0.0234
 4145TIP3    H133850   0.638   0.325   3.035  1.1560 -0.0486  0.4268
 4145TIP3    H233851   0.575   0.362   3.168 -2.1192  0.2512 -1.0946
 4146TIP3   OH233852   0.830   5.717   1.692  0.4010 -0.5577 -0.4916
 4146TIP3    H133853   0.905   5.748   1.742 -0.4191  1.6026 -0.5008
 4146TIP3    H233854   0.807   5.633   1.732  0.1639  0.7787  2.3660
 4147TIP3   OH233855   3.764   6.787  15.978  0.0211  0.2868  0.1117
 4147TIP3    H133856   3.755   6.756  15.888 -0.5441  0.4674  0.1074
 4147TIP3    H233857   3.729   6.716  16.031  2.9526 -1.1230  0.3991
 4148TIP3   OH233858   2.567   6.621   4.318  0.5395  0.1026  0.3765
 4148TIP3    H133859   2.529   6.584   4.239 -0.0037 -2.3828  1.6973
 4148TIP3    H233860   2.652   6.578   4.326  0.0581 -0.6631  1.7669
 4149TIP3   OH233861   6.738   1.750  14.004  0.0284 -0.3409 -0.0661
 4149TIP3    H133862   6.657   1.790  13.971  0.8093  1.1352 -0.2551
 4149TIP3    H233863   6.808   1.798  13.962  1.0622  0.3723  2.2852
 4150TIP3   OH233864   6.793   0.565   5.231 -0.3047  0.1751  0.3795
 4150TIP3    H133865   6.700   0.548   5.246 -0.2057 -0.8489 -0.0737
 4150TIP3    H233866   6.800   0.660   5.224 -1.7056  0.1907 -1.8456
 4151TIP3   OH233867   3.859   0.620   3.242 -0.2659  0.9009 -0.1642
 4151TIP3    H133868   3.869   0.610   3.147 -0.4261 -0.5251 -0.0514
 4151TIP3    H233869   3.949   0.627   3.275 -0.2034  1.2549 -0.4038
 4152TIP3   OH233870   6.511   5.515   4.487  0.1073 -0.1801 -0.4296
 4152TIP3    H133871   6.527   5.456   4.560  1.6149  1.0621  0.2986
 4152TIP3    H233872   6.520   5.459   4.409 -0.2725 -1.2609  0.2799
 4153TIP3   OH233873   4.758   3.778   3.665 -0.0887 -0.6315  0.2333
 4153TIP3    H133874   4.667   3.796   3.639 -0.1462  0.3986  1.1021
 4153TIP3    H233875   4.809   3.793   3.585 -0.7566 -2.1369 -0.5258
 4154TIP3   OH233876   0.452   6.764   3.505 -0.0534  0.2832 -0.1953
 4154TIP3    H133877   0.402   6.839   3.475 -2.0607 -0.7521  0.3960
 4154TIP3    H233878   0.388   6.706   3.545  1.4800 -1.5806 -0.2572
 4155TIP3   OH233879   6.494   0.379  13.572  0.1545 -0.5320 -0.1946
 4155TIP3    H133880   6.479   0.324  13.649 -0.3458 -0.5966 -0.3359
 4155TIP3    H233881   6.447   0.460  13.591 -0.6394 -0.8549 -0.7790
 4156TIP3   OH233882   4.133   2.867  13.816  0.1006  0.3799  0.0279
 4156TIP3    H133883   4.072   2.941  13.824 -1.1673 -0.5799 -0.5095
 4156TIP3    H233884   4.132   2.845  13.723  0.2833 -0.4671  0.2238
 4157TIP3   OH233885   0.931   6.447   0.401  0.2973  0.1871 -0.5268
 4157TIP3    H133886   1.020   6.479   0.409 -0.0102  1.3687 -1.5383
 4157TIP3    H233887   0.893   6.459   0.488  1.1979 -0.6264  0.0001
 4158TIP3   OH233888   0.665   3.748   2.503  0.0428  0.5928  0.5776
 4158TIP3    H133889   0.693   3.819   2.561 -0.7347  0.4537  1.1428
 4158TIP3    H233890   0.580   3.776   2.470 -0.5498 -0.3281  1.2725
 4159TIP3   OH233891   3.020   1.784   0.800  0.3135  0.1623  0.7844
 4159TIP3    H133892   2.958   1.774   0.871 -0.3338 -1.7696  0.0138
 4159TIP3    H233893   2.970   1.762   0.721  1.2565  1.3196 -0.1770
 4160TIP3   OH233894   1.010   2.517   5.462 -0.1478  0.2430  0.0198
 4160TIP3    H133895   1.009   2.609   5.485 -0.0361  0.6452 -1.4874
 4160TIP3    H233896   0.955   2.511   5.384 -0.2096 -0.9786  0.1300
 4161TIP3   OH233897   0.656   1.376  11.291 -0.5688 -0.3645 -0.2716
 4161TIP3    H133898   0.652   1.284  11.264 -0.3036 -0.3633 -0.3190
 4161TIP3    H233899   0.743   1.405  11.263 -0.7176 -0.0507 -0.4129
 4162TIP3   OH233900   3.667   3.189   3.615 -0.0644 -0.4566  0.0718
 4162TIP3    H133901   3.620   3.264   3.578 -2.2866 -1.6193  0.3484
 4162TIP3    H233902   3.738   3.228   3.666 -0.2523  1.3795 -0.9968
 4163TIP3   OH233903   1.538   4.418  14.965 -0.0642  0.4960 -0.5357
 4163TIP3    H133904   1.515   4.375  14.883  0.7217  0.4948 -0.7641
 4163TIP3    H233905   1.490   4.501  14.963  0.7641  0.9713 -1.4859
 4164TIP3   OH233906   1.435   4.226   0.167 -0.3757  0.3803  0.2517
 4164TIP3    H133907   1.386   4.222   0.085 -1.8593 -0.7101  1.1486
 4164TIP3    H233908   1.480   4.142   0.173 -1.4412 -0.1343  1.2350
 4165TIP3   OH233909   5.522   3.259  12.129  0.3482 -0.2136 -0.0141
 4165TIP3    H133910   5.523   3.289  12.219 -2.1836  0.9647 -0.3136
 4165TIP3    H233911   5.599   3.202  12.122  2.8537  2.6454  1.7976
 4166TIP3   OH233912   0.921   0.817  10.972 -0.0290  0.4486 -0.4048
 4166TIP3    H133913   0.928   0.769  10.890 -1.9774  1.3593 -1.1928
 4166TIP3    H233914   0.872   0.896  10.948  0.5945  1.4250  1.3793
 4167TIP3   OH233915   5.192   6.366  10.762 -0.3841 -0.1396  0.2357
 4167TIP3    H133916   5.141   6.287  10.779 -1.0018 -0.0284 -1.0236
 4167TIP3    H233917   5.281   6.335  10.747 -0.6217 -0.5965 -0.2267
 4168TIP3   OH233918   4.331   1.179  14.314  0.2991 -0.0535 -0.5312
 4168TIP3    H133919   4.235   1.180  14.315  0.2885  1.3526  0.4101
 4168TIP3    H233920   4.355   1.258  14.264  0.9681 -0.3536 -0.6951
 4169TIP3   OH233921   6.176   2.720   5.568  0.5514  0.2393  0.2502
 4169TIP3    H133922   6.107   2.713   5.503  0.8482 -1.2386  0.0513
 4169TIP3    H233923   6.210   2.809   5.559 -1.2316  0.9592  0.2810
 4170TIP3   OH233924   5.319   6.030  14.311 -0.7700  0.2484  0.7424
 4170TIP3    H133925   5.241   5.989  14.274  0.6569 -2.5019  0.4781
 4170TIP3    H233926   5.366   6.064  14.235 -0.3320 -0.7440  0.5544
 4171TIP3   OH233927   5.519   0.796  10.726  0.8958 -0.6908  0.0437
 4171TIP3    H133928   5.515   0.766  10.635 -0.1444 -0.7981  0.1107
 4171TIP3    H233929   5.527   0.716  10.778  2.4393 -0.5837  0.0223
 4172TIP3   OH233930   2.629   5.425   1.224  0.1441  0.3752  0.3181
 4172TIP3    H133931   2.577   5.497   1.187  1.2659  1.4249  0.7290
 4172TIP3    H233932   2.664   5.379   1.148 -1.6118 -0.5604  0.0206
 4173TIP3   OH233933   5.939   2.077   0.477  0.6349  0.4341 -0.1378
 4173TIP3    H133934   6.017   2.024   0.489 -0.1511 -0.9694 -0.9197
 4173TIP3    H233935   5.868   2.023   0.511 -0.3586  0.4074 -2.0885
 4174TIP3   OH233936   0.008   0.446  15.200  1.0652 -0.6344  0.9948
 4174TIP3    H133937  -0.085   0.459  15.184  1.3723 -0.2020 -0.5952
 4174TIP3    H233938   0.018   0.352  15.213  0.4970 -0.7767  0.4366
 4175TIP3   OH233939   1.646   6.708  14.453 -0.4530 -0.0193  0.1286
 4175TIP3    H133940   1.732   6.747  14.465  0.0336 -1.4044  1.5459
 4175TIP3    H233941   1.585   6.781  14.460  0.4969  0.7143  1.0968
 4176TIP3   OH233942   1.612   0.002   2.953  0.3152  0.1325 -0.0096
 4176TIP3    H133943   1.605   0.042   2.867  2.0199 -1.0381 -0.7623
 4176TIP3    H233944   1.550  -0.071   2.951 -0.2663  0.6210  0.0779
 4177TIP3   OH233945   6.307   3.153   2.715  0.2836 -0.3896 -0.1566
 4177TIP3    H133946   6.321   3.075   2.661  2.8373  0.6225 -1.0595
 4177TIP3    H233947   6.291   3.118   2.803 -2.6673 -2.0089 -1.1841
 4178TIP3   OH233948   5.006   4.497   0.863  0.0802 -0.0058  0.7824
 4178TIP3    H133949   4.986   4.408   0.833  0.5745  0.1350 -0.0016
 4178TIP3    H233950   5.102   4.500   0.863  0.0622  0.6254  0.4912
 4179TIP3   OH233951   5.250   6.475  16.455  0.1560 -0.5269  0.2175
 4179TIP3    H133952   5.217   6.393  16.418  1.2677 -2.4402  3.1134
 4179TIP3    H233953   5.260   6.457  16.548  0.4274  2.9753  1.0109
 4180TIP3   OH233954   6.067   1.173  15.734  0.5203 -0.1520 -0.4611
 4180TIP3    H133955   6.112   1.245  15.777 -0.6363  0.2733  0.0701
 4180TIP3    H233956   6.137   1.113  15.707  1.5344  1.3561 -1.2953
 4181TIP3   OH233957   1.288   5.135  14.480  0.7812  0.4467  0.3458
 4181TIP3    H133958   1.324   5.187  14.552  1.5467 -0.3918  0.5776
 4181TIP3    H233959   1.247   5.060  14.523 -0.2827  0.8199  0.0112
 4182TIP3   OH233960   6.740   3.238   4.506  0.3924  0.7528  0.3507
 4182TIP3    H133961   6.817   3.222   4.450 -0.3903 -0.4466 -0.4274
 4182TIP3    H233962   6.752   3.327   4.538  2.0397  0.6439  0.1325
 4183TIP3   OH233963   2.618   2.794   3.844  0.5305 -0.3410 -0.3606
 4183TIP3    H133964   2.587   2.874   3.803  0.1901 -0.1035  0.3396
 4183TIP3    H233965   2.543   2.734   3.838 -0.0657  0.1869  1.2071
 4184TIP3   OH233966   5.775   0.818   2.997 -0.0444  0.9402 -0.9784
 4184TIP3    H133967   5.683   0.794   2.999  0.3390 -0.7095  0.2509
 4184TIP3    H233968   5.789   0.867   3.078  0.7927 -1.8977  0.7463
 4185TIP3   OH233969   0.208   0.170  16.645 -0.0363 -0.2258 -0.2764
 4185TIP3    H133970   0.198   0.075  16.635 -0.7308 -0.0484 -1.4349
 4185TIP3    H233971   0.210   0.203  16.555 -0.3769  0.9214  0.1271
 4186TIP3   OH233972   4.732   4.848   5.759 -0.1029  0.1607 -0.4843
 4186TIP3    H133973   4.717   4.759   5.728  0.9009  0.1464 -0.9467
 4186TIP3    H233974   4.791   4.838   5.834 -0.3614  0.4103 -0.2416
 4187TIP3   OH233975   5.014   1.594   5.637  0.3186 -0.1047  0.8383
 4187TIP3    H133976   5.003   1.501   5.657  0.4057 -0.0737  1.0373
 4187TIP3    H233977   5.107   1.611   5.651  0.5783 -0.3005 -0.5490
 4188TIP3   OH233978   0.052   1.558   4.164  0.0953 -0.5738  0.1511
 4188TIP3    H133979   0.036   1.487   4.102 -1.2825  0.2816 -0.5159
 4188TIP3    H233980   0.109   1.519   4.230  0.3118 -1.9635 -0.8018
 4189TIP3   OH233981   1.658   1.451  15.738 -0.4388  0.7196 -0.5194
 4189TIP3    H133982   1.597   1.499  15.682 -0.8767  0.0680 -0.6113
 4189TIP3    H233983   1.663   1.364  15.698 -0.9441  0.1643  0.5892
 4190TIP3   OH233984   6.760   2.749  15.068 -0.5753  0.2803 -0.8644
 4190TIP3    H133985   6.689   2.731  15.129 -0.7593 -1.2197 -1.4709
 4190TIP3    H233986   6.840   2.728  15.116 -0.5713  1.2364 -0.4334
 4191TIP3   OH233987   5.603   2.114   1.616  0.6905  0.1927  0.4937
 4191TIP3    H133988   5.658   2.083   1.688  1.8267  1.6816  0.3147
 4191TIP3    H233989   5.555   2.188   1.652  3.5662  3.0154 -0.9667
 4192TIP3   OH233990   2.323   0.599  15.549 -0.1576 -0.3520 -0.5776
 4192TIP3    H133991   2.385   0.538  15.509  3.1515  0.7064  2.3999
 4192TIP3    H233992   2.277   0.546  15.614  1.8879 -0.0985  1.1985
 4193TIP3   OH233993   5.147   2.199   0.558  0.4567 -0.1791 -0.4379
 4193TIP3    H133994   5.168   2.118   0.511 -1.7057 -0.6742 -0.6786
 4193TIP3    H233995   5.084   2.243   0.501 -0.2258  0.4750  0.7944
 4194TIP3   OH233996   4.651   2.729  17.108  0.2757  0.1790 -0.6898
 4194TIP3    H133997   4.577   2.709  17.051 -0.3932 -2.5028  0.9230
 4194TIP3    H233998   4.718   2.763  17.049 -1.3480  0.2767 -2.5876
 4195TIP3   OH233999   3.423   3.011  11.880 -0.5886 -0.1084 -0.2165
 4195TIP3    H134000   3.401   2.993  11.971  1.4782 -0.8860  0.1933
 4195TIP3    H234001   3.465   3.097  11.883 -1.7032  0.4682 -0.6675
 4196TIP3   OH234002   4.510   6.575  16.710  0.0503 -0.3230  0.1274
 4196TIP3    H134003   4.460   6.499  16.681 -2.1177  0.8666  0.5808
 4196TIP3    H234004   4.575   6.588  16.641 -3.2209  0.8192 -3.0835
 4197TIP3   OH234005   4.004   3.762  17.123 -0.0983  0.1927 -0.4092
 4197TIP3    H134006   4.048   3.678  17.128  0.6166  0.4445 -1.8693
 4197TIP3    H234007   3.924   3.751  17.174 -0.0370 -1.3797 -0.6122
 4198TIP3   OH234008   5.307   3.456   5.991  0.0337  0.0269  0.2733
 4198TIP3    H134009   5.276   3.422   5.907  2.0579 -2.1059  0.2776
 4198TIP3    H234010   5.356   3.535   5.969 -0.3091  0.0430 -0.4461
 4199TIP3   OH234011   3.212   0.254  12.444  0.6024 -0.2133  0.2424
 4199TIP3    H134012   3.292   0.223  12.403 -0.0970 -3.1200  0.8771
 4199TIP3    H234013   3.151   0.268  12.372  0.6340 -1.3884 -0.0293
 4200TIP3   OH234014   1.005   0.360  11.290 -0.2570  0.1836  0.3411
 4200TIP3    H134015   0.919   0.319  11.283  0.1856 -0.5238 -1.6190
 4200TIP3    H234016   1.052   0.331  11.212  1.8119  0.4773  1.3950
 4201TIP3   OH234017   3.509   5.929   1.215 -0.4305 -0.0132 -0.9320
 4201TIP3    H134018   3.445   5.920   1.286 -0.2587  2.0417 -0.4378
 4201TIP3    H234019   3.557   5.846   1.215 -1.0080 -0.3918  0.7841
 4202TIP3   OH234020   2.362   3.669   2.832  0.1970  0.0163  0.5694
 4202TIP3    H134021   2.413   3.596   2.797  2.3090  1.1482  1.1395
 4202TIP3    H234022   2.325   3.636   2.914  0.4076 -0.6845  0.3869
 4203TIP3   OH234023   3.831   4.246  11.598 -0.1232 -0.0885  0.4021
 4203TIP3    H134024   3.829   4.219  11.506 -0.0633 -0.9141  0.6357
 4203TIP3    H234025   3.923   4.267  11.614  0.1730 -1.5027  0.6943
 4204TIP3   OH234026   5.809   5.740  12.979  0.0410 -0.4562  0.2039
 4204TIP3    H134027   5.735   5.799  12.994 -0.1882 -0.2583 -1.5375
 4204TIP3    H234028   5.771   5.661  12.941  0.7743  0.0515 -1.7129
 4205TIP3   OH234029   4.659   0.957  14.717  0.2202 -0.0337 -0.4813
 4205TIP3    H134030   4.725   0.930  14.780  0.7494 -1.4943 -1.5903
 4205TIP3    H234031   4.608   1.024  14.762  1.9958  0.6124  0.6541
 4206TIP3   OH234032   4.374   6.026  15.115  0.6107  0.2231  0.8448
 4206TIP3    H134033   4.297   6.000  15.165  0.4061  0.8012  0.8489
 4206TIP3    H234034   4.339   6.085  15.048  0.6430 -1.6871 -0.9544
 4207TIP3   OH234035   5.581   0.195  14.824 -0.2506 -0.3157 -0.5811
 4207TIP3    H134036   5.518   0.222  14.757 -0.3353  0.7344 -0.0887
 4207TIP3    H234037   5.667   0.214  14.786 -0.3138  0.8912 -0.1508
 4208TIP3   OH234038   6.707   3.148  12.040 -0.2395 -0.3746  0.0730
 4208TIP3    H134039   6.738   3.090  12.109 -0.6941  0.4075  0.9571
 4208TIP3    H234040   6.765   3.130  11.966  0.7936 -0.6287  0.9153
 4209TIP3   OH234041   0.870   5.255  11.541 -0.3816 -0.0377  1.0345
 4209TIP3    H134042   0.831   5.309  11.472  1.1271 -1.1197 -0.7478
 4209TIP3    H234043   0.843   5.298  11.623 -1.9648  1.4706 -0.2056
 4210TIP3   OH234044   4.967   4.702  13.264 -0.0368  0.0279  0.5949
 4210TIP3    H134045   4.979   4.790  13.227 -0.3147 -0.1162  0.1625
 4210TIP3    H234046   5.056   4.674  13.287  0.0727  0.3530  0.5806
 4211TIP3   OH234047   0.087   3.588  17.175  0.0600  0.8151 -0.5481
 4211TIP3    H134048   0.104   3.678  17.202 -0.0249  0.3427  1.1942
 4211TIP3    H234049   0.011   3.561  17.226  2.6425 -1.6164  2.4555
 4212TIP3   OH234050   4.035   2.934  12.535  0.4445 -0.0945 -0.3397
 4212TIP3    H134051   4.047   2.969  12.447  0.0961  3.4773  0.8813
 4212TIP3    H234052   3.941   2.925  12.545  0.2673  2.1197  0.4779
 4213TIP3   OH234053   4.153   2.622   5.077 -0.1374 -0.1371 -0.0615
 4213TIP3    H134054   4.104   2.640   5.158 -1.0087  0.6691 -0.7377
 4213TIP3    H234055   4.108   2.546   5.039  1.3921 -1.7011  1.0627
 4214TIP3   OH234056   3.174   4.026   4.091  0.3775 -0.0452 -0.2352
 4214TIP3    H134057   3.177   3.966   4.016  2.3960 -0.4297  0.1016
 4214TIP3    H234058   3.166   4.113   4.052 -0.3572 -0.3679 -0.8208
 4215TIP3   OH234059   6.561   1.390  11.724 -0.1256 -0.0109  0.1004
 4215TIP3    H134060   6.506   1.361  11.651 -0.7571  0.1442  0.5085
 4215TIP3    H234061   6.508   1.455  11.770  0.1383 -0.3418  0.8945
 4216TIP3   OH234062   2.704   5.519  13.423 -0.3651 -0.1028  0.0250
 4216TIP3    H134063   2.778   5.486  13.371 -1.9924 -0.8140 -2.0012
 4216TIP3    H234064   2.731   5.509  13.514  1.6564 -1.2163 -0.6455
 4217TIP3   OH234065   1.023   6.706  13.245  0.4503  0.5368  0.2249
 4217TIP3    H134066   1.002   6.730  13.336  0.7750  1.4422  0.0740
 4217TIP3    H234067   1.073   6.781  13.212 -0.9003  0.8695 -1.1580
 4218TIP3   OH234068   4.946   1.090  15.640  0.1957 -0.2163 -0.2749
 4218TIP3    H134069   4.935   1.081  15.735  1.3379  0.6213 -0.0370
 4218TIP3    H234070   4.973   1.182  15.628 -1.1916  0.0498 -1.5432
 4219TIP3   OH234071   0.485   2.228  13.140 -0.0125 -0.0653 -0.0839
 4219TIP3    H134072   0.564   2.175  13.152  1.4707  2.2727  1.1981
 4219TIP3    H234073   0.504   2.311  13.184 -3.2960  0.5327  0.4733
 4220TIP3   OH234074   2.345   5.272   4.461 -0.5083  0.5994 -0.2536
 4220TIP3    H134075   2.316   5.279   4.552 -0.5035  1.1826 -0.2949
 4220TIP3    H234076   2.374   5.360   4.438  1.7469 -0.0464 -0.0790
 4221TIP3   OH234077   6.536   1.863  12.848 -0.1431  1.1545  0.2723
 4221TIP3    H134078   6.500   1.815  12.774  1.1087 -0.1619  0.4745
 4221TIP3    H234079   6.464   1.867  12.911 -0.8305  1.1910 -0.4923
 4222TIP3   OH234080   3.803   3.781  11.822  0.1110 -0.4183 -0.1946
 4222TIP3    H134081   3.735   3.826  11.772 -1.2103 -1.8243  0.2367
 4222TIP3    H234082   3.878   3.840  11.819 -0.9732  0.9994 -1.0739
 4223TIP3   OH234083   0.299   2.839   5.569  0.1297 -0.3155  0.4837
 4223TIP3    H134084   0.319   2.932   5.582 -0.5565 -0.2159  0.8672
 4223TIP3    H234085   0.229   2.837   5.504 -1.7315 -0.3785  2.3663
 4224TIP3   OH234086   1.615   1.908   3.321 -0.2109 -0.5147  0.0302
 4224TIP3    H134087   1.636   1.860   3.400  0.2649 -0.8284 -0.2826
 4224TIP3    H234088   1.553   1.976   3.349  1.2922  0.5065  0.9930
 4225TIP3   OH234089   4.002   3.912  11.649  0.1894  0.3841 -0.2595
 4225TIP3    H134090   4.036   3.999  11.630  0.2879  0.5124  0.4739
 4225TIP3    H234091   4.066   3.873  11.709 -0.5852  0.3686  0.5880
 4226TIP3   OH234092   1.298   5.508   5.639 -0.1798 -0.3043  0.0042
 4226TIP3    H134093   1.392   5.519   5.651  0.1005 -0.9274 -1.4654
 4226TIP3    H234094   1.276   5.432   5.693 -0.0050  0.3172  0.9749
 4227TIP3   OH234095   1.670   6.433   5.173 -0.0163 -0.0608 -0.7613
 4227TIP3    H134096   1.710   6.420   5.087  1.8696 -1.3865  0.2444
 4227TIP3    H234097   1.600   6.368   5.177  2.2478 -2.6399  0.0014
 4228TIP3   OH234098   1.444   2.769   1.220 -0.1827  0.2811 -0.1967
 4228TIP3    H134099   1.459   2.674   1.215 -0.4825  0.2469 -0.5269
 4228TIP3    H234100   1.429   2.795   1.129  0.5266  0.7564 -0.1803
 4229TIP3   OH234101   5.666   5.137   5.049 -0.7236 -0.5083 -0.3662
 4229TIP3    H134102   5.738   5.147   5.111 -1.3299  2.1994  0.0495
 4229TIP3    H234103   5.674   5.048   5.016  2.6035 -0.4107 -0.1226
 4230TIP3   OH234104   1.455   1.585  12.594  0.4541  0.3435  0.0177
 4230TIP3    H134105   1.467   1.503  12.547  0.7795  0.3690  0.0544
 4230TIP3    H234106   1.480   1.652  12.531  1.6333  0.3442  0.4652
 4231TIP3   OH234107   4.575   4.139  13.927 -0.2641  0.2948  0.0304
 4231TIP3    H134108   4.640   4.209  13.929 -0.8105  0.8462 -0.5286
 4231TIP3    H234109   4.573   4.104  14.016  0.3676  0.6720  0.1952
 4232TIP3   OH234110   4.672   0.377  16.225 -0.0611  0.0258  0.0216
 4232TIP3    H134111   4.748   0.396  16.169  1.1187 -1.5721  0.9847
 4232TIP3    H234112   4.691   0.424  16.307 -0.5220  0.2651 -0.0047
 4233TIP3   OH234113   3.875   4.023  16.863  0.4286  0.2765  0.2190
 4233TIP3    H134114   3.970   4.023  16.867  0.4170 -0.7651  0.9189
 4233TIP3    H234115   3.855   4.009  16.770  0.9736 -1.1791  0.3053
 4234TIP3   OH234116   1.029   1.051   1.215  0.2841  0.7706  0.1747
 4234TIP3    H134117   0.996   0.982   1.272  0.5463 -2.4723 -3.2110
 4234TIP3    H234118   0.952   1.083   1.168  0.6206 -0.2458 -1.1517
 4235TIP3   OH234119   0.545   6.781  11.837  0.4561  0.3238  0.1335
 4235TIP3    H134120   0.496   6.803  11.758 -0.4107 -1.8374  0.0135
 4235TIP3    H234121   0.610   6.716  11.808  0.4986 -0.0705  1.0888
 4236TIP3   OH234122   2.439   6.055   4.304 -0.1836  0.0515  0.2935
 4236TIP3    H134123   2.383   6.045   4.227  0.5397 -1.1379 -0.0988
 4236TIP3    H234124   2.408   5.988   4.365 -0.0722  0.3005  0.6236
 4237TIP3   OH234125   5.498   0.252   4.991  0.1315  0.1666  0.0834
 4237TIP3    H134126   5.507   0.262   5.086  1.9636  0.5163 -0.0977
 4237TIP3    H234127   5.511   0.341   4.957  1.4522 -0.2742 -0.6090
 4238TIP3   OH234128   3.689   1.984  10.909  0.3931  0.3695 -0.8631
 4238TIP3    H134129   3.630   2.024  10.974  0.9132 -1.1124  0.6036
 4238TIP3    H234130   3.666   1.891  10.911  1.3814  0.0907 -1.7985
 4239TIP3   OH234131   3.942   4.595  13.734 -0.2088 -0.1458  0.2228
 4239TIP3    H134132   4.001   4.602  13.660  0.0557 -0.2147  0.4244
 4239TIP3    H234133   3.856   4.581  13.696 -0.0452 -0.3640 -0.0620
 4240TIP3   OH234134   4.359   5.172   3.374  0.2890  0.5357 -0.0638
 4240TIP3    H134135   4.388   5.121   3.450  0.3516 -0.0302 -0.4606
 4240TIP3    H234136   4.385   5.119   3.298  0.4870  1.2275 -0.4894
 4241TIP3   OH234137   5.735   6.800  12.772  0.0060 -0.2288  0.5108
 4241TIP3    H134138   5.654   6.749  12.774  0.3063 -0.7285  2.2726
 4241TIP3    H234139   5.760   6.807  12.865 -0.3771  3.7099  0.4679
 4242TIP3   OH234140   4.945   0.144  12.444  0.4398  0.3280  0.0067
 4242TIP3    H134141   4.893   0.216  12.408 -0.2776 -1.4198 -2.8111
 4242TIP3    H234142   5.020   0.137  12.385  0.4287 -1.2478  0.1297
 4243TIP3   OH234143   3.039   2.276  13.455  0.7346 -0.7325  0.0654
 4243TIP3    H134144   3.050   2.183  13.473  0.3745 -0.8323 -0.2103
 4243TIP3    H234145   3.082   2.290  13.371 -1.2832 -1.1627 -1.1036
 4244TIP3   OH234146   0.187   3.739   5.624  0.0167 -0.5078  0.4968
 4244TIP3    H134147   0.258   3.696   5.671  1.1945  1.1952  0.3690
 4244TIP3    H234148   0.230   3.785   5.552 -1.3238 -0.0906 -0.0714
 4245TIP3   OH234149   1.464   2.931  11.625  0.4094 -0.3869 -0.4316
 4245TIP3    H134150   1.456   2.987  11.548 -0.4409  0.6275  0.3659
 4245TIP3    H234151   1.509   2.985  11.690  0.6673 -1.0492 -0.0474
 4246TIP3   OH234152   1.071   5.404   2.561 -0.2124  0.2238  0.1953
 4246TIP3    H134153   1.139   5.389   2.626  0.3501  0.9131 -0.2229
 4246TIP3    H234154   1.001   5.342   2.584  0.4316 -0.2925  0.7945
 4247TIP3   OH234155   5.392   5.377   1.001  0.2050 -0.2981  0.2432
 4247TIP3    H134156   5.420   5.285   0.996 -1.0913 -0.6475 -1.8076
 4247TIP3    H234157   5.329   5.380   1.072  2.5827 -0.2621  2.4781
 4248TIP3   OH234158   5.235   0.421  13.983 -0.0021  0.3285  0.3195
 4248TIP3    H134159   5.262   0.424  13.891 -0.5026 -1.4239  0.0877
 4248TIP3    H234160   5.146   0.385  13.981  0.5513 -1.2143  1.5669
 4249TIP3   OH234161   6.107   5.751  16.841 -0.1375  0.5615  0.5825
 4249TIP3    H134162   6.084   5.809  16.768  0.8050  1.0167  0.6324
 4249TIP3    H234163   6.122   5.810  16.915  1.1829  0.2986  0.5430
 4250TIP3   OH234164   5.374   6.653  13.094  0.6944 -0.1428 -0.4340
 4250TIP3    H134165   5.328   6.706  13.029 -0.8049  0.6255  1.1665
 4250TIP3    H234166   5.349   6.563  13.073 -0.5734  0.1707 -0.3913
 4251TIP3   OH234167   3.485   4.158  16.845  0.2396 -0.1419  0.5854
 4251TIP3    H134168   3.543   4.104  16.898  0.7912  0.6487  0.8065
 4251TIP3    H234169   3.407   4.170  16.899  0.5783  0.2150  0.9970
 4252TIP3   OH234170   3.058   3.386   5.743 -0.1077 -0.4152 -0.1723
 4252TIP3    H134171   3.046   3.392   5.838  0.1580  0.1693 -0.1676
 4252TIP3    H234172   3.134   3.329   5.732  0.0260 -0.2703 -0.0188
 4253TIP3   OH234173   4.027   5.094   2.562  0.1834  0.4248  0.0617
 4253TIP3    H134174   3.945   5.110   2.609 -0.1725  1.3950 -0.8646
 4253TIP3    H234175   4.078   5.038   2.621 -1.8846 -1.8014 -0.0967
 4254TIP3   OH234176   2.731   5.318  12.928 -0.0245 -0.0727  0.0043
 4254TIP3    H134177   2.807   5.376  12.941  0.1128  0.1461 -1.5427
 4254TIP3    H234178   2.743   5.248  12.992  0.0706  1.3246  1.5776
 4255TIP3   OH234179   3.741   0.804  13.615 -0.3630 -1.1131  0.2751
 4255TIP3    H134180   3.650   0.782  13.631 -0.4423 -0.9524  0.0436
 4255TIP3    H234181   3.756   0.782  13.523 -0.0151 -1.6608  0.4509
 4256TIP3   OH234182   1.087   3.047  13.814  0.8020 -0.2818  0.9300
 4256TIP3    H134183   1.135   3.118  13.857  3.4320 -0.6794 -1.0744
 4256TIP3    H234184   1.094   2.973  13.874 -0.2365  0.5476  2.1333
 4257TIP3   OH234185   3.577   1.411  14.259  0.2333  0.2903  0.1407
 4257TIP3    H134186   3.627   1.453  14.189  1.2264  2.3844  1.9784
 4257TIP3    H234187   3.488   1.405  14.225  0.5730  1.7721 -1.0997
 4258TIP3   OH234188   2.837   4.451  12.393 -0.4033 -0.1019  0.0914
 4258TIP3    H134189   2.808   4.389  12.459 -1.4219 -2.1433 -2.1294
 4258TIP3    H234190   2.759   4.503  12.373  0.2789  1.5432  1.4665
 4259TIP3   OH234191   3.620   5.251   5.757 -0.0717 -0.1575 -0.3776
 4259TIP3    H134192   3.687   5.295   5.705 -1.6805  0.9345 -1.6288
 4259TIP3    H234193   3.611   5.164   5.718  1.2241 -0.6707  0.3971
 4260TIP3   OH234194   5.225   3.389   3.650  0.2015 -0.3023  0.0165
 4260TIP3    H134195   5.237   3.416   3.559 -1.6876  3.6184  0.7420
 4260TIP3    H234196   5.130   3.381   3.660  0.3524 -0.2707  1.7407
 4261TIP3   OH234197   0.710   4.815  12.589  0.1994  0.6403 -0.2962
 4261TIP3    H134198   0.796   4.840  12.623  0.8759 -0.1527 -1.3526
 4261TIP3    H234199   0.676   4.896  12.551  1.0669  0.6787 -1.0435
 4262TIP3   OH234200   1.917   4.811   4.376  0.1980  0.0658  0.0338
 4262TIP3    H134201   1.840   4.839   4.326 -1.4608  0.7371  2.7810
 4262TIP3    H234202   1.904   4.718   4.392 -0.8982  0.4808  1.7844
 4263TIP3   OH234203   1.373   6.477  12.371  0.4521 -0.2663  0.0309
 4263TIP3    H134204   1.332   6.417  12.308  0.3500 -0.8843  0.6801
 4263TIP3    H234205   1.344   6.447  12.456 -0.4345  1.3367  0.3337
 4264TIP3   OH234206   1.527   1.924   1.649 -0.0522  0.6944  0.2321
 4264TIP3    H134207   1.472   1.989   1.693 -2.1338 -1.1319  0.4866
 4264TIP3    H234208   1.480   1.902   1.569  0.8239 -0.1684 -0.0693
 4265TIP3   OH234209   3.956   0.538   1.400  0.0794 -0.7928  0.0357
 4265TIP3    H134210   4.033   0.589   1.427 -1.4390  3.3463 -2.4983
 4265TIP3    H234211   3.991   0.472   1.340  1.7397  1.5678 -1.8206
 4266TIP3   OH234212   6.323   3.043  10.182 -0.2320 -0.0817  0.2202
 4266TIP3    H134213   6.354   3.074  10.267 -1.5818  0.5472  0.5194
 4266TIP3    H234214   6.237   3.085  10.172 -0.5103 -0.9089 -1.0219
 4267TIP3   OH234215   0.901   2.219   2.855 -0.4884  0.3863  0.3985
 4267TIP3    H134216   0.850   2.241   2.933  1.3137  0.7445  1.5278
 4267TIP3    H234217   0.914   2.302   2.809 -1.3944  0.2021 -0.2351
 4268TIP3   OH234218   2.177   4.457   2.540  0.3566  0.0818  0.0558
 4268TIP3    H134219   2.142   4.370   2.522 -2.1347  0.8300  0.8623
 4268TIP3    H234220   2.199   4.492   2.454  1.4544 -1.3324 -0.2750
 4269TIP3   OH234221   4.142   2.346  12.403  0.2057 -0.4367  0.6333
 4269TIP3    H134222   4.200   2.409  12.446 -0.2790 -1.1516  2.4360
 4269TIP3    H234223   4.200   2.282  12.362  0.6930  0.8024 -0.6891
 4270TIP3   OH234224   6.303   3.049  14.823 -0.1531 -0.2759 -0.1904
 4270TIP3    H134225   6.278   3.011  14.738 -1.0869  0.2896 -0.1850
 4270TIP3    H234226   6.394   3.023  14.835 -0.1923 -0.8775 -1.0849
 4271TIP3   OH234227   6.766   3.415   0.181 -0.1074 -0.1028  0.1039
 4271TIP3    H134228   6.698   3.360   0.141 -0.3537  0.4591 -0.2703
 4271TIP3    H234229   6.828   3.353   0.219  0.8800 -0.7255 -2.3368
 4272TIP3   OH234230   1.156   4.954  16.653  0.7845 -0.4030  0.3324
 4272TIP3    H134231   1.230   4.897  16.635 -0.3713 -1.3820 -1.7884
 4272TIP3    H234232   1.080   4.903  16.625 -0.5670  1.0542  1.1991
 4273TIP3   OH234233   3.992   5.383  13.685  0.2308 -0.0193  0.3461
 4273TIP3    H134234   3.976   5.458  13.628 -1.1548 -0.6108 -0.0866
 4273TIP3    H234235   3.950   5.309  13.640 -0.0458 -0.6842  1.6498
 4274TIP3   OH234236   1.381   6.380   3.429  0.0985 -0.2257  0.3791
 4274TIP3    H134237   1.345   6.407   3.344 -1.0975 -1.9669  0.2811
 4274TIP3    H234238   1.346   6.444   3.491 -1.4196 -0.6068 -0.0456
 4275TIP3   OH234239   2.878   2.527  15.214 -0.2439 -0.4320 -0.0264
 4275TIP3    H134240   2.922   2.537  15.298  0.5970 -0.4997 -0.4491
 4275TIP3    H234241   2.948   2.507  15.152 -0.4623  2.0460 -1.2325
 4276TIP3   OH234242   6.661   2.268  14.924 -0.1336  0.2673  0.0239
 4276TIP3    H134243   6.691   2.254  15.014  0.3450 -0.5732 -0.2530
 4276TIP3    H234244   6.733   2.312  14.881 -1.0168  2.2533  0.4666
 4277TIP3   OH234245   3.911   5.288   5.932 -0.6218  0.0355  0.2044
 4277TIP3    H134246   3.942   5.333   6.011 -1.6787 -0.9110  1.2023
 4277TIP3    H234247   3.816   5.284   5.944 -0.7832 -0.2269 -1.0755
 4278TIP3   OH234248   6.030   1.759  14.362 -0.2935  0.3517 -0.8097
 4278TIP3    H134249   6.118   1.765  14.400 -1.1693  0.9846  1.2119
 4278TIP3    H234250   5.987   1.691  14.413 -1.8335  1.9290  0.0968
 4279TIP3   OH234251   5.360   4.904   1.082 -0.0174 -0.2205 -0.2252
 4279TIP3    H134252   5.266   4.906   1.103  0.0203 -0.3029 -0.0464
 4279TIP3    H234253   5.394   4.832   1.134  0.4507  0.8483  0.9848
 4280TIP3   OH234254   1.792   5.820   2.699 -0.2570  0.3038 -0.1619
 4280TIP3    H134255   1.830   5.750   2.752  0.7865  1.4968  0.7188
 4280TIP3    H234256   1.807   5.792   2.608 -1.9749 -1.7049  0.0966
 4281TIP3   OH234257   0.028   5.648  11.671  0.7403  0.4021  0.5071
 4281TIP3    H134258   0.032   5.601  11.587 -0.2046  1.3699 -0.0936
 4281TIP3    H234259   0.045   5.580  11.736  2.8050 -0.1537 -0.4936
 4282TIP3   OH234260   1.574   2.897   4.656  0.3603  0.5983 -0.2226
 4282TIP3    H134261   1.579   2.823   4.596 -0.4053  0.0777  0.3437
 4282TIP3    H234262   1.609   2.863   4.738 -0.7656  0.6067  0.2747
 4283TIP3   OH234263   1.510   0.141  14.433 -0.4595  0.2987 -0.4145
 4283TIP3    H134264   1.454   0.173  14.361 -0.7994  0.9798  0.1399
 4283TIP3    H234265   1.461   0.163  14.512  0.3252  0.3632  0.0571
 4284TIP3   OH234266   5.028   0.526   3.239  0.0402  0.0382  0.0727
 4284TIP3    H134267   4.963   0.595   3.226 -0.6403 -0.5408  0.3494
 4284TIP3    H234268   5.008   0.461   3.172 -0.0852 -0.4439  0.5658
 4285TIP3   OH234269   5.543   6.011  16.239 -0.3939 -0.8978  0.4714
 4285TIP3    H134270   5.627   6.047  16.268 -1.8510  0.7793  3.0021
 4285TIP3    H234271   5.546   6.018  16.144  2.3096 -0.9206  0.4541
 4286TIP3   OH234272   0.288   5.303  13.649  0.4717 -0.2780 -0.3733
 4286TIP3    H134273   0.357   5.361  13.615  0.0629  0.1179 -0.5360
 4286TIP3    H234274   0.335   5.239  13.702  0.9009  0.4964  0.2119
 4287TIP3   OH234275   2.106   3.657  11.739 -0.6378 -0.6067  0.1515
 4287TIP3    H134276   2.013   3.657  11.761 -0.3400 -1.0631  1.5173
 4287TIP3    H234277   2.108   3.652  11.644 -2.0164  1.3765 -0.0282
 4288TIP3   OH234278   5.370   1.778   0.842  0.0539  0.0583 -0.1995
 4288TIP3    H134279   5.317   1.803   0.918  0.7192  0.3474  0.1805
 4288TIP3    H234280   5.319   1.807   0.766  0.3371  1.7071  0.1944
 4289TIP3   OH234281   4.991   6.393  11.098 -0.1376  0.0380 -0.0063
 4289TIP3    H134282   5.024   6.472  11.056 -0.8409 -0.2528 -1.1463
 4289TIP3    H234283   5.023   6.321  11.044 -3.1135 -0.2443 -1.6508
 4290TIP3   OH234284   3.947   2.607   3.900 -0.3791 -0.8365 -0.1231
 4290TIP3    H134285   3.924   2.631   3.810  0.1586  1.3906  0.2624
 4290TIP3    H234286   3.880   2.649   3.954  1.8263  1.9288  0.7331
 4291TIP3   OH234287   0.162   4.183  13.675  0.3352 -0.3988 -0.5542
 4291TIP3    H134288   0.074   4.212  13.648  0.6022 -0.0276 -1.0278
 4291TIP3    H234289   0.220   4.214  13.606  0.5796 -2.5655 -1.3734
 4292TIP3   OH234290   0.526   0.056   4.435 -0.0542 -0.0165  0.0139
 4292TIP3    H134291   0.456   0.015   4.486 -0.5088  0.7663  0.0402
 4292TIP3    H234292   0.481   0.115   4.376  0.5499 -0.0190 -0.4577
 4293TIP3   OH234293   2.908   5.644   4.061  0.2447  0.0592  0.5769
 4293TIP3    H134294   2.997   5.681   4.067  0.6536 -0.3821 -1.8599
 4293TIP3    H234295   2.851   5.720   4.059  0.6445  0.3828  1.0549
 4294TIP3   OH234296   4.581   5.026  16.045  0.2344  0.3448  0.2934
 4294TIP3    H134297   4.529   5.061  15.973 -1.2739 -1.1530  0.5762
 4294TIP3    H234298   4.586   5.098  16.108 -0.5750  0.8856 -0.2323
 4295TIP3   OH234299   5.393   3.981   6.047  0.2106  0.6586 -0.0495
 4295TIP3    H134300   5.309   4.022   6.069  0.9767  2.6936 -0.6439
 4295TIP3    H234301   5.459   4.048   6.069  1.4771  0.1502 -2.0290
 4296TIP3   OH234302   5.037   1.198   3.748 -0.4479  0.4045 -0.5861
 4296TIP3    H134303   5.070   1.257   3.816 -0.3142  0.1909 -0.4612
 4296TIP3    H234304   5.060   1.110   3.780  0.3017  0.3438 -1.2813
 4297TIP3   OH234305   1.532   1.089  14.874  0.0997  0.1150  0.3792
 4297TIP3    H134306   1.552   0.996  14.883  1.1434  0.2003 -0.8663
 4297TIP3    H234307   1.503   1.099  14.784  1.4243  1.2428  0.0550
 4298TIP3   OH234308   4.088   5.888  13.413  0.2322 -0.1597 -0.6283
 4298TIP3    H134309   4.174   5.850  13.393  0.4444 -0.5587  0.9041
 4298TIP3    H234310   4.038   5.877  13.332  0.2017 -3.9325 -0.3069
 4299TIP3   OH234311   1.425   5.033   2.394 -0.6125  0.4722  0.5061
 4299TIP3    H134312   1.472   5.021   2.476 -0.5375 -1.2389  0.2654
 4299TIP3    H234313   1.333   5.023   2.416 -0.5381 -1.0189  0.2717
 4300TIP3   OH234314   5.209   1.813  11.248  0.5860  0.3685 -0.2595
 4300TIP3    H134315   5.285   1.870  11.232  2.5580 -1.6527  1.1694
 4300TIP3    H234316   5.179   1.788  11.161  1.3652  1.4827 -0.8720
 4301TIP3   OH234317   0.781   4.529   2.982 -0.2380  0.7048 -0.0294
 4301TIP3    H134318   0.727   4.479   3.043 -1.0022  0.4557 -0.8783
 4301TIP3    H234319   0.718   4.569   2.921  0.4894  0.9686 -0.6270
 4302TIP3   OH234320   5.623   4.310  12.337 -0.4848  0.1115  0.2511
 4302TIP3    H134321   5.708   4.270  12.358  0.4881  2.0605  0.2763
 4302TIP3    H234322   5.563   4.276  12.403  1.2826  1.9049  2.9720
 4303TIP3   OH234323   0.462   3.758  16.238  0.0016  0.0318 -0.6297
 4303TIP3    H134324   0.464   3.665  16.216 -1.4331  0.1888 -1.5483
 4303TIP3    H234325   0.498   3.802  16.161  0.6258  0.2559 -0.2198
 4304TIP3   OH234326   4.188   5.194   6.029  0.0782 -1.1240 -0.0403
 4304TIP3    H134327   4.180   5.201   6.124  2.3636  0.0019  0.1272
 4304TIP3    H234328   4.255   5.126   6.016 -0.5379 -1.5890 -0.8729
 4305TIP3   OH234329   4.790   6.727  14.016 -0.4304  0.6806 -0.0061
 4305TIP3    H134330   4.750   6.807  13.982  0.2591  0.8527 -0.4404
 4305TIP3    H234331   4.716   6.674  14.045 -0.8952  1.4921  0.3277
 4306TIP3   OH234332   3.137   4.187   5.236 -1.0839  0.2947  0.3424
 4306TIP3    H134333   3.058   4.193   5.289 -0.9538 -0.1278  0.5923
 4306TIP3    H234334   3.198   4.136   5.290 -0.5775  0.7725  0.2330
 4307TIP3   OH234335   3.752   6.233   3.908 -0.2817 -0.7404 -0.3709
 4307TIP3    H134336   3.668   6.216   3.866 -2.1827 -0.0226  2.8136
 4307TIP3    H234337   3.760   6.328   3.911  0.7722 -0.7989 -0.8372
 4308TIP3   OH234338   3.894   5.832   1.503 -0.0998 -0.1573 -0.3355
 4308TIP3    H134339   3.885   5.926   1.491  2.2841  0.2138  0.3304
 4308TIP3    H234340   3.808   5.803   1.532 -0.4966  2.0648  0.8962
 4309TIP3   OH234341   4.891   3.491  16.696  0.1707 -0.0492 -0.0345
 4309TIP3    H134342   4.833   3.483  16.621 -1.5646  0.7743  1.1554
 4309TIP3    H234343   4.951   3.562  16.673 -0.2234  0.0730 -0.7009
 4310TIP3   OH234344   2.249   3.024   1.852 -0.4230 -0.3663  0.3714
 4310TIP3    H134345   2.289   2.937   1.860  1.4358  0.4406  0.2380
 4310TIP3    H234346   2.251   3.042   1.758 -1.6156 -0.5190  0.3043
 4311TIP3   OH234347   1.313   5.184   4.440  0.3384  0.4151 -0.2505
 4311TIP3    H134348   1.259   5.249   4.396  0.0645 -0.1149 -0.7112
 4311TIP3    H234349   1.299   5.103   4.390  3.6424  0.8124 -2.1821
 4312TIP3   OH234350   5.836   1.315  15.040 -0.2104  0.2897 -1.0627
 4312TIP3    H134351   5.837   1.248  15.109 -1.7146  1.7008  0.4323
 4312TIP3    H234352   5.897   1.382  15.071 -1.6678  1.4196 -0.5244
 4313TIP3   OH234353   3.339   4.654  15.232  0.1848 -0.7492 -0.3354
 4313TIP3    H134354   3.423   4.701  15.227  0.2216 -0.8979 -1.4663
 4313TIP3    H234355   3.357   4.570  15.190 -0.5663 -0.7353 -0.6860
 4314TIP3   OH234356   5.979   6.167  15.184  0.4037  0.2967 -0.3224
 4314TIP3    H134357   5.959   6.246  15.135  0.3712  0.3510 -0.2222
 4314TIP3    H234358   5.966   6.096  15.121  3.8125  0.5206 -1.4986
 4315TIP3   OH234359   5.082   4.328  16.716  0.0464  0.4935  0.2337
 4315TIP3    H134360   5.031   4.255  16.680  0.7951 -0.5630  1.2435
 4315TIP3    H234361   5.161   4.287  16.751  1.1218  1.9779 -0.3883
 4316TIP3   OH234362   1.153   2.218  14.932 -0.4358  0.0244 -0.2138
 4316TIP3    H134363   1.210   2.158  14.885  0.2586  0.3648  0.1766
 4316TIP3    H234364   1.211   2.287  14.963 -1.3987  1.6983 -1.8910
 4317TIP3   OH234365   3.184   0.509  16.029  0.1608 -0.3039 -0.1108
 4317TIP3    H134366   3.177   0.489  16.122  3.6550  1.5563  0.7084
 4317TIP3    H234367   3.136   0.591  16.019  0.3655 -0.1458  0.1980
 4318TIP3   OH234368   1.711   0.822  11.812  0.0184 -0.2725  0.3777
 4318TIP3    H134369   1.656   0.899  11.822  0.8595  0.4102 -0.1079
 4318TIP3    H234370   1.766   0.842  11.736 -0.2649 -1.6659 -0.2268
 4319TIP3   OH234371   0.067   2.533  14.649 -0.6912 -0.4309  0.0449
 4319TIP3    H134372   0.063   2.467  14.717  0.7804 -2.2320 -1.4849
 4319TIP3    H234373   0.144   2.586  14.671 -2.7163  1.9443  2.1158
 4320TIP3   OH234374   3.464   1.862  16.715 -0.5693 -0.2752  0.5798
 4320TIP3    H134375   3.474   1.811  16.795  2.6194 -0.5111  0.1584
 4320TIP3    H234376   3.492   1.803  16.645  0.3437  1.1141 -0.2595
 4321TIP3   OH234377   6.261   1.244   0.658 -0.2155  0.2137  0.6968
 4321TIP3    H134378   6.196   1.196   0.606  0.4943  1.3875 -1.4152
 4321TIP3    H234379   6.345   1.220   0.619  0.3526  1.0971  1.3347
 4322TIP3   OH234380   1.451   5.726  13.966 -0.0141  0.6032  0.0778
 4322TIP3    H134381   1.477   5.813  13.937 -1.1999  1.5035  1.5464
 4322TIP3    H234382   1.357   5.723  13.953 -0.0902 -0.1884  0.7059
 4323TIP3   OH234383   5.288   1.889  16.497 -0.1300 -0.5320 -0.2968
 4323TIP3    H134384   5.269   1.916  16.408 -1.9597 -1.3100 -0.1826
 4323TIP3    H234385   5.383   1.903  16.507 -0.2995  1.9657 -1.5008
 4324TIP3   OH234386   3.150   5.887  12.443  0.4879 -0.5741 -0.1894
 4324TIP3    H134387   3.117   5.956  12.501 -0.7697 -1.0357 -0.3133
 4324TIP3    H234388   3.232   5.922  12.409 -0.5239  1.2770 -0.9284
 4325TIP3   OH234389   6.265   0.982   0.131 -0.0100 -0.3883 -0.0317
 4325TIP3    H134390   6.253   0.933   0.212  1.3282 -1.2241 -0.2926
 4325TIP3    H234391   6.211   0.936   0.067 -0.2181 -0.3923  0.1473
 4326TIP3   OH234392   6.067   3.368  10.247 -0.4438 -0.0056 -0.2553
 4326TIP3    H134393   6.151   3.385  10.289  0.3238 -1.1987 -1.2466
 4326TIP3    H234394   6.056   3.274  10.253 -2.3015  0.2256  0.8854
 4327TIP3   OH234395   6.326   3.690   3.961  0.2301 -0.2998 -0.0418
 4327TIP3    H134396   6.249   3.642   3.990  0.1743  0.2129  0.6848
 4327TIP3    H234397   6.295   3.779   3.947  0.3099 -0.4819 -1.4814
 4328TIP3   OH234398   4.702   5.865  11.482  0.0450  0.3759  0.4896
 4328TIP3    H134399   4.762   5.801  11.522  0.2078 -0.9404 -1.7370
 4328TIP3    H234400   4.747   5.949  11.494  1.0659 -0.2371  1.1994
 4329TIP3   OH234401   4.778   2.037  11.875  0.2014  0.0468 -0.8058
 4329TIP3    H134402   4.686   2.017  11.859  0.2448 -1.7131  0.8028
 4329TIP3    H234403   4.817   2.041  11.787 -0.8734 -2.0794 -1.4480
 4330TIP3   OH234404   1.422   0.062   2.076 -0.4351 -0.0192 -0.5622
 4330TIP3    H134405   1.461   0.139   2.116  1.5127 -0.5235 -1.3820
 4330TIP3    H234406   1.424  -0.005   2.144 -0.6278  0.1833 -0.3549
 4331TIP3   OH234407   2.996   5.557   4.906  0.3737 -0.7577 -0.2162
 4331TIP3    H134408   2.984   5.544   5.000  0.1599 -0.4823 -0.2035
 4331TIP3    H234409   2.916   5.523   4.866 -0.4503  0.9649 -0.1391
 4332TIP3   OH234410   2.988   4.908  13.404  0.3824 -0.1353  0.1756
 4332TIP3    H134411   3.009   4.832  13.458 -2.3618 -2.5949 -1.8585
 4332TIP3    H234412   3.056   4.910  13.337  0.4622 -0.8821  0.2241
 4333TIP3   OH234413   2.953   5.207   4.730  0.2309  0.4400  0.0263
 4333TIP3    H134414   2.911   5.138   4.678 -0.1854  0.2809  0.5624
 4333TIP3    H234415   2.948   5.285   4.674  0.0422  0.2054 -0.2871
 4334TIP3   OH234416   0.767   5.715  14.580 -0.0988 -0.4429 -0.4846
 4334TIP3    H134417   0.762   5.809  14.565 -0.1503 -0.1941  0.9365
 4334TIP3    H234418   0.675   5.688  14.590 -0.0011 -0.3102  0.8942
 4335TIP3   OH234419   5.025   4.846   2.278  0.0540  0.3812 -0.0086
 4335TIP3    H134420   5.030   4.877   2.188  1.1871 -0.8298 -0.3951
 4335TIP3    H234421   4.974   4.913   2.324  0.8385  1.8451 -1.1778
 4336TIP3   OH234422   5.112   4.251   6.060  0.1301 -0.5200 -0.0968
 4336TIP3    H134423   5.049   4.260   6.131 -1.7674 -0.3382 -1.7273
 4336TIP3    H234424   5.113   4.157   6.041  0.4758 -0.5392 -0.0024
 4337TIP3   OH234425   1.718   1.995  14.625 -0.3177  0.2012 -0.0322
 4337TIP3    H134426   1.682   1.926  14.569 -1.6189 -0.4129  1.4574
 4337TIP3    H234427   1.682   2.076  14.589 -0.3597 -0.0882 -0.6482
 4338TIP3   OH234428   4.389   5.418  14.162 -0.4452 -0.1553 -0.4232
 4338TIP3    H134429   4.355   5.343  14.211  1.0334 -0.2732  0.5066
 4338TIP3    H234430   4.376   5.493  14.221 -0.0896 -0.0240 -0.5101
 4339TIP3   OH234431   1.431   0.641  15.247 -0.7317  0.2336  0.3532
 4339TIP3    H134432   1.338   0.658  15.232 -0.5897  0.5943 -0.1586
 4339TIP3    H234433   1.434   0.596  15.331 -1.2358  1.7714  1.2302
 4340TIP3   OH234434   5.358   2.113   6.367 -0.4547  0.0170 -0.4781
 4340TIP3    H134435   5.336   2.035   6.315  0.6393  0.8760 -2.3315
 4340TIP3    H234436   5.274   2.157   6.380 -0.8029 -0.3721 -1.3113
 4341TIP3   OH234437   3.970   5.805   0.128 -0.3249  0.0801  0.9927
 4341TIP3    H134438   4.006   5.859   0.199  1.0849  1.4179 -0.6606
 4341TIP3    H234439   4.036   5.736   0.116 -0.2354  0.2361  0.5736
 4342TIP3   OH234440   2.430   4.919  11.500  0.2409 -0.2139  0.1974
 4342TIP3    H134441   2.505   4.969  11.533  0.1993  0.1576 -0.2571
 4342TIP3    H234442   2.374   4.984  11.459 -0.1023 -0.5585  0.1103
 4343TIP3   OH234443   3.108   0.065   2.578 -0.2685  0.3741 -0.1969
 4343TIP3    H134444   3.177   0.126   2.602  0.1800 -0.1692 -0.0821
 4343TIP3    H234445   3.032   0.095   2.627  0.2450  0.1693  0.7408
 4344TIP3   OH234446   1.717   0.032  16.656  0.1277 -0.5994 -0.0806
 4344TIP3    H134447   1.686   0.044  16.745  0.9042  0.1760  0.1037
 4344TIP3    H234448   1.733   0.120  16.623  1.8236 -0.9188 -0.2456
 4345TIP3   OH234449   6.310   3.968   4.752 -0.5898 -0.0171  0.7463
 4345TIP3    H134450   6.332   4.034   4.817  2.9504 -0.6260  0.3635
 4345TIP3    H234451   6.392   3.922   4.735 -1.5367 -0.5847 -3.3881
 4346TIP3   OH234452   3.457   4.584   2.215 -0.4062 -0.5025  0.2224
 4346TIP3    H134453   3.511   4.662   2.227 -0.7820 -0.2787  0.4642
 4346TIP3    H234454   3.516   4.521   2.174 -0.0497 -0.1533  0.1879
 4347TIP3   OH234455   5.470   1.521  13.355  0.0158 -0.2726 -0.2805
 4347TIP3    H134456   5.465   1.540  13.262 -0.7810 -0.5348 -0.2944
 4347TIP3    H234457   5.381   1.498  13.380 -0.5651  3.0660  1.2498
 4348TIP3   OH234458   3.715   3.326  14.311 -0.6688 -0.1992  0.2072
 4348TIP3    H134459   3.718   3.413  14.271 -0.3499  1.3341  3.2934
 4348TIP3    H234460   3.648   3.280  14.261 -1.3266  2.0436 -1.1471
 4349TIP3   OH234461   2.580   5.659  16.988  0.3638  0.3257 -0.0290
 4349TIP3    H134462   2.626   5.651  16.904 -0.6626  1.4572 -0.7448
 4349TIP3    H234463   2.497   5.612  16.974 -1.0476  2.8184 -0.6816
 4350TIP3   OH234464   3.950   4.779   1.556  0.0799 -0.2126 -0.4514
 4350TIP3    H134465   3.918   4.735   1.478  1.1733 -0.3051 -0.8624
 4350TIP3    H234466   4.044   4.762   1.557  0.0558 -0.3948  1.0064
 4351TIP3   OH234467   6.363   1.633  15.634 -0.0665  0.3506 -0.0242
 4351TIP3    H134468   6.328   1.625  15.545 -1.1342  1.4501  0.2803
 4351TIP3    H234469   6.336   1.551  15.677 -0.0340  0.0608 -0.5425
 4352TIP3   OH234470   2.212   5.322   5.036  0.0815  0.5131  0.2159
 4352TIP3    H134471   2.153   5.247   5.038  0.0186  0.5496 -0.1488
 4352TIP3    H234472   2.266   5.312   5.114  1.6549 -1.2115 -0.9687
 4353TIP3   OH234473   3.927   0.190  15.167 -0.0266  0.4587  0.6164
 4353TIP3    H134474   3.907   0.181  15.260 -0.2036  0.7328  0.6090
 4353TIP3    H234475   3.904   0.281  15.147  0.1261  0.4357  0.3337
 4354TIP3   OH234476   1.047   6.066   1.219 -0.4410 -0.1024 -0.2924
 4354TIP3    H134477   0.965   6.039   1.262  0.4052 -1.9277  0.2768
 4354TIP3    H234478   1.043   6.162   1.218 -1.6205 -0.0683  1.6857
 4355TIP3   OH234479   4.139   3.708  15.677  0.3149  0.8859  0.5860
 4355TIP3    H134480   4.131   3.803  15.670 -0.6537  0.7507 -0.3722
 4355TIP3    H234481   4.125   3.676  15.588  1.3550 -0.1237  0.7465
 4356TIP3   OH234482   1.036   1.944   1.116 -0.3730 -0.7995 -0.2017
 4356TIP3    H134483   1.114   1.906   1.156 -1.2569 -2.0318  0.4358
 4356TIP3    H234484   0.969   1.936   1.183 -0.6216  2.0329 -0.0150
 4357TIP3   OH234485   5.612   1.258   2.028  0.5523  0.6644  0.4247
 4357TIP3    H134486   5.565   1.262   1.945  0.6086 -1.6107  0.2126
 4357TIP3    H234487   5.688   1.316   2.015  1.6880 -1.1541 -1.9363
 4358TIP3   OH234488   3.113   4.919   4.691  0.6256 -0.0097 -0.1543
 4358TIP3    H134489   3.095   4.914   4.785  0.5628  1.8254 -0.0378
 4358TIP3    H234490   3.028   4.934   4.651  0.8335  0.5904 -0.3753
 4359TIP3   OH234491   1.673   0.020   0.010 -0.0395  0.6261  0.4674
 4359TIP3    H134492   1.578   0.016   0.018 -0.1125  1.8774  0.4294
 4359TIP3    H234493   1.706  -0.039   0.078 -0.8361 -0.1802  0.1722
 4360TIP3   OH234494   4.694   4.162  10.845  0.1789  0.5189 -0.1250
 4360TIP3    H134495   4.693   4.088  10.784  2.7368  1.1162 -1.0473
 4360TIP3    H234496   4.764   4.142  10.907 -0.1135  1.4695  0.5402
 4361TIP3   OH234497   6.771   1.497  11.536  0.0258 -0.5034 -0.0195
 4361TIP3    H134498   6.698   1.477  11.478 -0.6279  0.8301  0.3144
 4361TIP3    H234499   6.782   1.418  11.589 -0.9577 -0.8343 -0.2861
 4362TIP3   OH234500   0.429   3.708   2.851 -0.4788  0.1167  0.3089
 4362TIP3    H134501   0.463   3.622   2.828  0.8609  0.7111 -0.0409
 4362TIP3    H234502   0.401   3.747   2.768 -1.6960 -0.2028  0.5429
 4363TIP3   OH234503   3.369   2.913  12.156  0.0786  0.0343  0.0619
 4363TIP3    H134504   3.274   2.903  12.158  0.1014 -0.1316  0.2877
 4363TIP3    H234505   3.397   2.897  12.246  0.1075  2.1344  0.4814
 4364TIP3   OH234506   1.498   2.806  14.400  0.6930  0.2848 -0.6302
 4364TIP3    H134507   1.582   2.773  14.369 -0.2149 -0.8303 -2.0134
 4364TIP3    H234508   1.482   2.884  14.347  0.8581  0.5011 -0.3623
 4365TIP3   OH234509   1.908   6.692  14.934  0.2430 -0.0385 -0.0626
 4365TIP3    H134510   1.863   6.717  15.014 -0.5617  1.7107 -0.9970
 4365TIP3    H234511   1.840   6.651  14.880 -0.2306  2.1927 -1.2959
 4366TIP3   OH234512   0.195   4.293  14.189  0.5941  0.0497  0.2584
 4366TIP3    H134513   0.180   4.262  14.279  0.3828  1.3022  0.6732
 4366TIP3    H234514   0.115   4.340  14.167  0.4349 -0.6812 -0.7967
 4367TIP3   OH234515   5.558   2.889  12.834 -0.2651  0.1794 -0.1552
 4367TIP3    H134516   5.645   2.884  12.795 -0.2477  0.8818 -0.2147
 4367TIP3    H234517   5.559   2.824  12.904 -0.4940 -1.5768 -1.6992
 4368TIP3   OH234518   0.500   4.700  10.586  0.5205  0.2036  0.0104
 4368TIP3    H134519   0.506   4.773  10.648  0.9917  1.1792 -1.1415
 4368TIP3    H234520   0.586   4.658  10.591  0.2255 -0.3184  0.7262
 4369TIP3   OH234521   4.794   4.535   4.081 -0.2828 -0.4960  0.7094
 4369TIP3    H134522   4.775   4.450   4.043  0.9831 -0.6611  0.4083
 4369TIP3    H234523   4.805   4.594   4.006 -0.2897 -0.2625  0.8896
 4370TIP3   OH234524   4.900   1.375   5.087  0.2283  0.2343 -0.1413
 4370TIP3    H134525   4.849   1.425   5.150 -0.1078 -0.3620  0.0726
 4370TIP3    H234526   4.899   1.428   5.008  0.8838  1.1172  0.4231
 4371TIP3   OH234527   2.143   6.071  16.273  0.0183 -0.7374 -0.3606
 4371TIP3    H134528   2.119   5.993  16.323 -1.4686 -0.2840 -0.3175
 4371TIP3    H234529   2.061   6.120  16.263  0.3723 -0.5010 -2.6999
 4372TIP3   OH234530   2.299   0.532  16.489 -0.1268  0.1359 -0.2877
 4372TIP3    H134531   2.328   0.594  16.556 -0.9825  1.2583 -0.9312
 4372TIP3    H234532   2.336   0.565  16.408 -1.6631  0.5805 -0.8418
 4373TIP3   OH234533   5.059   5.767  13.665 -0.2138  0.0828 -0.1794
 4373TIP3    H134534   4.989   5.766  13.599  0.0164 -0.0249 -0.4223
 4373TIP3    H234535   5.012   5.772  13.749 -0.4783  1.7283 -0.3955
 4374TIP3   OH234536   4.409   0.807   3.274 -0.2646  0.1478 -0.0387
 4374TIP3    H134537   4.358   0.844   3.346  0.1563 -1.9213  1.4338
 4374TIP3    H234538   4.500   0.814   3.302 -0.2129 -2.9823  0.9554
 4375TIP3   OH234539   2.226   1.180   6.157 -0.1314 -0.6370  0.0218
 4375TIP3    H134540   2.173   1.105   6.182 -0.2318 -0.3645  0.6542
 4375TIP3    H234541   2.262   1.157   6.072 -1.0801 -0.9141 -0.3118
 4376TIP3   OH234542   1.488   4.531   4.584 -0.1258  0.8089 -0.1695
 4376TIP3    H134543   1.490   4.437   4.603  2.6516  0.5168 -1.2976
 4376TIP3    H234544   1.522   4.572   4.664 -0.3567  0.7409 -0.0379
 4377TIP3   OH234545   3.369   0.746  16.060 -0.5114  0.2085  0.7266
 4377TIP3    H134546   3.377   0.680  15.991 -0.1328  1.2755 -0.2846
 4377TIP3    H234547   3.442   0.806  16.045 -0.8101  0.8265  1.6475
 4378TIP3   OH234548   2.335   3.404   5.378  0.2958 -0.1197  0.2319
 4378TIP3    H134549   2.378   3.351   5.445 -0.8823 -2.9172 -1.0551
 4378TIP3    H234550   2.259   3.442   5.421  0.2623 -0.8472  0.8345
 4379TIP3   OH234551   5.303   2.546   2.223  0.3520  0.6258 -0.7962
 4379TIP3    H134552   5.307   2.512   2.133 -0.4537  0.6726 -0.8535
 4379TIP3    H234553   5.210   2.558   2.240  0.3973 -0.5991  0.5175
 4380TIP3   OH234554   0.958   2.014   3.124  0.2853  0.3450 -0.4910
 4380TIP3    H134555   0.907   1.952   3.072 -0.6366 -1.2375  2.0819
 4380TIP3    H234556   1.032   1.963   3.156  1.5865  1.6584 -1.2943
 4381TIP3   OH234557   3.707   3.533   2.435  0.3373 -0.0642  0.1833
 4381TIP3    H134558   3.646   3.510   2.365  2.1213 -0.3556 -1.3523
 4381TIP3    H234559   3.726   3.449   2.478 -0.1371 -0.0095  0.5087
 4382TIP3   OH234560   4.914   0.380   1.143 -0.2754  0.5201 -0.2255
 4382TIP3    H134561   4.932   0.372   1.050  3.0708  0.8916  0.2917
 4382TIP3    H234562   4.939   0.296   1.181  1.6950  1.4789  0.7257
 4383TIP3   OH234563   0.457   5.844   2.320 -0.0843  0.7104  0.1805
 4383TIP3    H134564   0.418   5.931   2.307 -0.9672  0.3431  0.2602
 4383TIP3    H234565   0.549   5.855   2.300 -0.3346  1.4930 -0.5850
 4384TIP3   OH234566   0.668   4.556   2.002  0.3107 -0.1532  0.3986
 4384TIP3    H134567   0.612   4.481   1.981  0.5957 -0.0765 -0.7055
 4384TIP3    H234568   0.728   4.562   1.928  0.5321  0.9502  0.6580
 4385TIP3   OH234569   6.217   1.697   5.086  0.4708 -0.2220 -0.1123
 4385TIP3    H134570   6.154   1.696   5.014  0.4606  0.1908 -0.1116
 4385TIP3    H234571   6.283   1.632   5.061 -0.9624 -2.1155  0.7996
 4386TIP3   OH234572   4.526   5.336   4.346  0.4529  0.2867 -0.3809
 4386TIP3    H134573   4.600   5.389   4.378 -1.3034  1.8281  1.4049
 4386TIP3    H234574   4.452   5.396   4.346 -1.2941 -1.7539  0.0213
 4387TIP3   OH234575   0.473   2.424   2.145 -0.6759  0.6130  0.2430
 4387TIP3    H134576   0.511   2.337   2.132 -0.9710  0.1006  2.3455
 4387TIP3    H234577   0.493   2.472   2.065 -1.4083 -1.7026 -1.4330
 4388TIP3   OH234578   2.434   3.258   5.907 -0.2872  0.0207  0.2143
 4388TIP3    H134579   2.466   3.252   5.997 -0.6691 -0.0367  0.3457
 4388TIP3    H234580   2.379   3.336   5.906 -0.8824 -0.3950  0.2164
 4389TIP3   OH234581   1.927   4.904   2.118  0.1282 -0.3067 -0.2209
 4389TIP3    H134582   1.929   4.875   2.209  1.8417  0.7609  0.1161
 4389TIP3    H234583   1.869   4.980   2.119 -1.2989 -1.3491 -0.3975
 4390TIP3   OH234584   0.953   0.853   3.281 -0.0745 -0.6788  0.3079
 4390TIP3    H134585   1.033   0.904   3.270 -1.1401  1.0263  0.2240
 4390TIP3    H234586   0.966   0.804   3.362  0.1172  1.4084  1.5788
 4391TIP3   OH234587   3.570   0.876  15.919 -0.2621  0.3953 -0.0071
 4391TIP3    H134588   3.598   0.864  16.010 -1.8522 -2.1325  0.2586
 4391TIP3    H234589   3.621   0.811  15.871 -1.4237 -0.2064 -0.4459
 4392TIP3   OH234590   3.493   3.899  10.607  0.4441 -0.3824 -0.1807
 4392TIP3    H134591   3.435   3.824  10.614  0.4682 -0.5066 -1.1454
 4392TIP3    H234592   3.572   3.865  10.565  1.2446 -0.2226  1.1373
 4393TIP3   OH234593   3.111   2.065   2.944  0.1053  0.0153  0.3746
 4393TIP3    H134594   3.167   1.990   2.927  0.8712  0.5493  0.5335
 4393TIP3    H234595   3.154   2.114   3.014 -0.4030  0.5885  0.3049
 4394TIP3   OH234596   0.675   0.167  13.788 -0.0612  0.0846  0.2872
 4394TIP3    H134597   0.648   0.141  13.700  0.0062  1.3962 -0.1453
 4394TIP3    H234598   0.596   0.156  13.842 -0.0900 -0.7610  0.0780
 4395TIP3   OH234599   0.864   6.174  11.510  0.1849  0.1066 -0.1794
 4395TIP3    H134600   0.907   6.258  11.524 -1.0191  0.5111  1.3246
 4395TIP3    H234601   0.771   6.193  11.521 -0.2743 -1.0809 -1.6668
 4396TIP3   OH234602   3.484   0.837   4.099 -0.6056  0.3843 -0.6061
 4396TIP3    H134603   3.450   0.805   4.016 -0.0726 -0.5335 -0.4833
 4396TIP3    H234604   3.553   0.775   4.122  0.2662  1.4566 -0.2123
 4397TIP3   OH234605   0.980   2.527  15.235 -0.2481 -0.1196  0.6039
 4397TIP3    H134606   0.963   2.621  15.237  1.2684  0.1761  1.4315
 4397TIP3    H234607   0.955   2.500  15.147 -1.4179  0.9010  0.5942
 4398TIP3   OH234608   1.463   0.601  16.607  0.2988 -0.3224 -0.3903
 4398TIP3    H134609   1.423   0.652  16.536  0.3881 -0.0791 -0.2681
 4398TIP3    H234610   1.496   0.667  16.668 -0.7408 -0.5192  0.4136
 4399TIP3   OH234611   4.899   2.917   5.189  0.2557 -0.3886 -0.0678
 4399TIP3    H134612   4.947   2.947   5.111  0.2658  0.2932  0.1920
 4399TIP3    H234613   4.872   2.998   5.232  3.1223 -0.6132  2.4698
 4400TIP3   OH234614   6.712   2.685   0.388  0.0177 -0.4118  0.4372
 4400TIP3    H134615   6.628   2.672   0.432 -0.6342 -0.6370 -0.8112
 4400TIP3    H234616   6.743   2.596   0.370  0.0100 -0.3212 -0.0332
 4401TIP3   OH234617   3.723   3.406   3.357  0.0364  0.7615  0.9621
 4401TIP3    H134618   3.705   3.478   3.296  1.0035  0.7340  0.6196
 4401TIP3    H234619   3.655   3.413   3.423 -0.2414  1.6232  0.6047
 4402TIP3   OH234620   1.030   6.203   2.505  0.6856 -0.2537  0.4057
 4402TIP3    H134621   0.958   6.242   2.455 -0.1881 -2.7250 -0.3960
 4402TIP3    H234622   0.995   6.190   2.592  1.3182  1.5870  0.9709
 4403TIP3   OH234623   1.676   1.227  15.039  0.2128  0.3012  0.7123
 4403TIP3    H134624   1.613   1.194  14.975 -2.3980  1.9865  2.2183
 4403TIP3    H234625   1.678   1.161  15.107 -0.3901  0.4816  0.9131
 4404TIP3   OH234626   6.764   6.573  16.935 -0.1611  0.7282  0.8622
 4404TIP3    H134627   6.747   6.484  16.905  0.0069  1.1650 -0.5682
 4404TIP3    H234628   6.840   6.602  16.886  3.1671 -0.0768  4.9622
 4405TIP3   OH234629   2.953   1.152   0.681  0.7124  0.6330  0.6115
 4405TIP3    H134630   2.980   1.209   0.753 -0.5601 -0.2025  1.8153
 4405TIP3    H234631   2.970   1.064   0.713 -0.2258  0.2391  0.0650
 4406TIP3   OH234632   3.652   0.202  14.228  0.7577 -0.3638  0.0761
 4406TIP3    H134633   3.664   0.282  14.278  1.4613 -0.6224  0.3291
 4406TIP3    H234634   3.674   0.227  14.138 -3.5504  0.9661 -0.8755
 4407TIP3   OH234635   4.506   4.568   1.706 -0.0200 -0.2243 -0.4684
 4407TIP3    H134636   4.451   4.613   1.770  1.1908  1.5670 -0.6201
 4407TIP3    H234637   4.585   4.543   1.754 -0.1585 -1.1371 -0.6868
 4408TIP3   OH234638   6.377   3.148   0.825  0.7176  0.2594 -0.0861
 4408TIP3    H134639   6.366   3.123   0.917  2.1819 -0.1942 -0.0153
 4408TIP3    H234640   6.341   3.236   0.819 -0.7710 -0.2720  0.5798
 4409TIP3   OH234641   4.125   3.072   0.301 -0.3633 -0.3700  0.5883
 4409TIP3    H134642   4.212   3.087   0.266 -0.7584  1.0020  0.1142
 4409TIP3    H234643   4.067   3.079   0.225 -0.9019 -1.2299  0.9012
 4410TIP3   OH234644   5.524   3.554  13.998 -0.2823 -0.2172 -0.1018
 4410TIP3    H134645   5.574   3.600  14.066 -0.2072 -0.5021  0.0353
 4410TIP3    H234646   5.572   3.473  13.984 -0.0979 -0.0007 -0.7526
 4411TIP3   OH234647   0.662   6.756  15.681 -0.4535  0.4670  0.2147
 4411TIP3    H134648   0.710   6.838  15.671 -0.4993  0.5843  0.9021
 4411TIP3    H234649   0.689   6.703  15.605  0.0069  0.9015  0.0694
 4412TIP3   OH234650   2.405   2.191   2.154  0.4697 -0.3799 -0.0320
 4412TIP3    H134651   2.442   2.152   2.075  2.8761 -0.7169  1.1955
 4412TIP3    H234652   2.466   2.261   2.178 -1.2929  1.0786  0.4368
 4413TIP3   OH234653   3.514   3.187   6.209  0.3684  0.3202  0.4131
 4413TIP3    H134654   3.499   3.095   6.186  1.7118  0.4313 -1.0584
 4413TIP3    H234655   3.581   3.217   6.147 -0.6543  2.5442  0.2892
 4414TIP3   OH234656   0.961   0.247  10.641 -0.8435 -0.2914 -0.0158
 4414TIP3    H134657   1.030   0.259  10.576 -0.4214  1.0600  0.6480
 4414TIP3    H234658   0.980   0.162  10.681 -1.2224 -1.2347 -1.7446
 4415TIP3   OH234659   3.056   6.542   3.215 -0.2728 -0.3681 -0.1927
 4415TIP3    H134660   3.065   6.538   3.311  1.5980 -1.0400 -0.3486
 4415TIP3    H234661   3.000   6.618   3.199  1.0576  1.0102  1.3780
 4416TIP3   OH234662   4.186   6.279  11.385  0.2103 -0.3489  0.0347
 4416TIP3    H134663   4.281   6.289  11.393  0.2086  0.7516 -1.0179
 4416TIP3    H234664   4.172   6.254  11.294 -0.5840  0.8721 -0.2101
 4417TIP3   OH234665   3.448   5.201   0.552  0.7123 -0.0589 -0.4265
 4417TIP3    H134666   3.493   5.178   0.471 -1.7679  0.0040 -1.9058
 4417TIP3    H234667   3.481   5.289   0.574  1.1360  0.0750 -1.5646
 4418TIP3   OH234668   2.626   6.216   2.118  0.0560 -0.1632 -0.4615
 4418TIP3    H134669   2.641   6.160   2.194 -2.0672  0.8108  0.7466
 4418TIP3    H234670   2.706   6.207   2.066  1.1935 -1.5838  1.4001
 4419TIP3   OH234671   4.190   2.282   0.208  0.1808 -0.2277  0.3421
 4419TIP3    H134672   4.142   2.349   0.255  1.1466 -0.1227  1.1971
 4419TIP3    H234673   4.240   2.330   0.141  0.2180 -0.1880  0.3987
 4420TIP3   OH234674   3.440   2.376   5.088  0.4497 -0.0814  0.1295
 4420TIP3    H134675   3.472   2.286   5.092 -1.4103 -0.7729  0.4230
 4420TIP3    H234676   3.404   2.385   5.000  2.3340  1.0390 -0.5857
 4421TIP3   OH234677   5.200   1.690   0.256  0.0016  0.7207 -0.1226
 4421TIP3    H134678   5.265   1.634   0.214  0.2110  1.1420 -0.3581
 4421TIP3    H234679   5.225   1.689   0.349 -0.1822  0.1753 -0.0739
 4422TIP3   OH234680   5.202   3.340  14.436  0.0677  0.4512 -0.3195
 4422TIP3    H134681   5.245   3.380  14.361  0.6317 -0.2950 -0.4117
 4422TIP3    H234682   5.186   3.249  14.409 -0.4317  0.3825  0.1735
 4423TIP3   OH234683   3.521   3.361   5.639  0.0252  0.5711  0.1185
 4423TIP3    H134684   3.526   3.365   5.544 -1.0052  0.7078  0.0672
 4423TIP3    H234685   3.578   3.433   5.669 -2.2239  2.7264 -0.4676
 4424TIP3   OH234686   0.306   5.317   3.870  0.0593 -0.2330 -0.4034
 4424TIP3    H134687   0.395   5.293   3.895  0.1899 -1.1945 -1.6710
 4424TIP3    H234688   0.261   5.233   3.858 -0.5197  0.1973 -1.4170
 4425TIP3   OH234689   6.645   4.491  12.164  0.4400 -1.4251 -0.2006
 4425TIP3    H134690   6.600   4.515  12.083  0.0987 -0.7940  0.1708
 4425TIP3    H234691   6.657   4.396  12.157  0.4883 -1.3723 -1.0215
 4426TIP3   OH234692   2.729   1.148   0.158 -0.1477 -0.5332 -0.1185
 4426TIP3    H134693   2.821   1.174   0.165  0.0112 -0.9405 -0.6626
 4426TIP3    H234694   2.693   1.206   0.092 -0.4272 -0.0075  0.4796
 4427TIP3   OH234695   0.483   5.465  16.758  0.2611 -0.3611 -0.2209
 4427TIP3    H134696   0.394   5.440  16.785  0.2833  0.3512  0.5326
 4427TIP3    H234697   0.471   5.512  16.676 -0.1711  0.6456  0.4040
 4428TIP3   OH234698   2.986   3.733  15.289  0.2600  0.1873 -0.1348
 4428TIP3    H134699   2.996   3.828  15.283  1.7353  0.1453  1.0508
 4428TIP3    H234700   2.929   3.719  15.365 -1.2345  0.1451 -1.2339
 4429TIP3   OH234701   2.198   1.265   2.488 -0.2891  0.9132 -0.5018
 4429TIP3    H134702   2.170   1.174   2.480 -0.1979  0.8283  0.1244
 4429TIP3    H234703   2.141   1.303   2.554  0.5296  0.9514  0.2044
 4430TIP3   OH234704   3.708   2.188  11.248  0.8040  0.1883 -0.2267
 4430TIP3    H134705   3.623   2.145  11.259  1.2045 -0.4425  0.4997
 4430TIP3    H234706   3.700   2.236  11.165 -0.9655  1.8117  0.7964
 4431TIP3   OH234707   2.472   0.087  12.740  0.1069 -0.7333 -0.7339
 4431TIP3    H134708   2.450   0.097  12.833  1.1544  3.7218 -0.7339
 4431TIP3    H234709   2.534   0.014  12.738 -2.9069 -3.6634  1.3094
 4432TIP3   OH234710   6.468   0.805   0.967 -0.2490 -0.6157  0.1062
 4432TIP3    H134711   6.535   0.747   1.002 -1.7832 -2.0076  0.9293
 4432TIP3    H234712   6.396   0.800   1.030 -0.5726  2.0225  0.0575
 4433TIP3   OH234713   2.247   5.631  16.669  0.5750  0.2693 -0.2806
 4433TIP3    H134714   2.226   5.712  16.715  0.8114 -0.0981  0.4882
 4433TIP3    H234715   2.297   5.579  16.732  0.6559 -0.3686 -0.8514
 4434TIP3   OH234716   4.767   2.118  15.635  0.1184  0.2189 -0.8171
 4434TIP3    H134717   4.701   2.142  15.570 -0.9214  1.3928  0.5979
 4434TIP3    H234718   4.751   2.177  15.708  1.9285 -0.3496  0.1019
 4435TIP3   OH234719   5.476   0.412   1.142  0.4841 -0.6310  0.3966
 4435TIP3    H134720   5.397   0.417   1.089  0.8043 -0.9837 -0.1158
 4435TIP3    H234721   5.452   0.357   1.217 -0.4918  1.2529  1.5585
 4436TIP3   OH234722   2.406   0.614  16.214 -0.1498  0.1722 -0.2792
 4436TIP3    H134723   2.400   0.710  16.218  0.3661  0.1594  2.1487
 4436TIP3    H234724   2.499   0.596  16.224 -0.4922 -0.6125  1.9368
 4437TIP3   OH234725   5.573   4.401  16.769  0.1684 -0.1758  0.2742
 4437TIP3    H134726   5.555   4.375  16.859  0.1773 -2.4384 -0.3282
 4437TIP3    H234727   5.564   4.321  16.718  0.5713  0.9625 -1.6973
 4438TIP3   OH234728   3.228   5.227   4.270  0.0807  0.2023 -0.4086
 4438TIP3    H134729   3.215   5.213   4.364  1.1484  0.4660 -0.2127
 4438TIP3    H234730   3.141   5.214   4.232 -0.5648  1.0454  0.7293
 4439TIP3   OH234731   3.204   6.763  16.941 -0.2406 -0.4416 -0.1690
 4439TIP3    H134732   3.145   6.720  16.879  0.0868 -0.5288 -0.4218
 4439TIP3    H234733   3.273   6.699  16.958 -0.2910 -0.3919  0.2338
 4440TIP3   OH234734   1.508   3.108  14.471  0.0130  0.1934 -0.1620
 4440TIP3    H134735   1.425   3.102  14.424  0.5198 -0.0589 -1.0661
 4440TIP3    H234736   1.574   3.117  14.401  0.6945  0.9187  0.5532
 4441TIP3   OH234737   1.136   3.713   2.563  0.4092 -0.6138 -0.3525
 4441TIP3    H134738   1.213   3.727   2.508  1.1576 -0.8342  0.6160
 4441TIP3    H234739   1.143   3.622   2.592 -1.5004 -1.4359 -2.1491
 4442TIP3   OH234740   5.325   1.311  14.767  0.2579  0.5643 -0.2275
 4442TIP3    H134741   5.397   1.259  14.731  0.7650  0.4246  0.9633
 4442TIP3    H234742   5.286   1.354  14.690 -1.3614 -2.9097 -1.5811
 4443TIP3   OH234743   6.725   1.102  16.516  0.0247  0.1697 -0.3119
 4443TIP3    H134744   6.814   1.137  16.527 -0.0613  1.2581 -2.5176
 4443TIP3    H234745   6.668   1.168  16.554  0.0577  0.7707 -1.2633
 4444TIP3   OH234746   6.362   1.251   3.320  0.0904  0.0379 -0.6275
 4444TIP3    H134747   6.394   1.336   3.292 -1.1197  0.2621 -1.3914
 4444TIP3    H234748   6.296   1.227   3.255 -0.1244 -1.1397 -0.0082
 4445TIP3   OH234749   0.347   3.448   2.284  0.3246 -0.1895 -0.0637
 4445TIP3    H134750   0.328   3.436   2.191 -0.3252 -0.2453  0.0709
 4445TIP3    H234751   0.420   3.510   2.286  0.6943 -0.5989 -0.6216
 4446TIP3   OH234752   1.184   0.635   4.594 -0.4324  0.6282  0.3560
 4446TIP3    H134753   1.178   0.724   4.561  2.1401  0.1532 -1.6738
 4446TIP3    H234754   1.229   0.643   4.679 -0.7305  1.2802  0.4564
 4447TIP3   OH234755   4.160   0.593   1.944  0.2234  0.7896  0.1120
 4447TIP3    H134756   4.135   0.623   1.856 -0.6146 -1.0068 -0.2997
 4447TIP3    H234757   4.080   0.557   1.981  0.6796  1.0923  1.4578
 4448TIP3   OH234758   2.874   3.965  16.927  0.6067 -0.2041 -0.3320
 4448TIP3    H134759   2.970   3.969  16.921  0.5090  0.5037 -2.5373
 4448TIP3    H234760   2.846   4.054  16.907 -0.5281 -0.4613  0.0874
 4449TIP3   OH234761   3.492   4.482   4.198  0.8690 -0.8021 -0.0623
 4449TIP3    H134762   3.442   4.464   4.118  0.3664 -0.2593  0.1236
 4449TIP3    H234763   3.430   4.465   4.269  1.3831 -1.5023  0.2294
 4450TIP3   OH234764   5.737   3.351   4.426  0.1980  0.0355  0.8072
 4450TIP3    H134765   5.740   3.266   4.381 -0.3109  0.1301  0.5821
 4450TIP3    H234766   5.697   3.331   4.511  1.2053 -0.1518  1.2549
 4451TIP3   OH234767   5.928   4.896   1.305  0.1070 -0.2790  0.3378
 4451TIP3    H134768   5.843   4.940   1.313 -0.4219 -1.5247  2.3132
 4451TIP3    H234769   5.967   4.904   1.392  0.8692 -1.9315  0.1745
 4452TIP3   OH234770   0.456   6.394   4.769 -0.2636  0.0711  0.5076
 4452TIP3    H134771   0.483   6.476   4.809 -1.4192  0.8089 -0.1876
 4452TIP3    H234772   0.525   6.376   4.704 -0.7493  1.2797 -0.3814
 4453TIP3   OH234773   2.554   6.151  17.166 -0.2780 -0.5622  0.8961
 4453TIP3    H134774   2.549   6.238  17.126  1.7063 -0.1573  1.4266
 4453TIP3    H234775   2.468   6.113  17.151 -0.1697  0.1506 -2.3923
 4454TIP3   OH234776   5.444   2.364  15.493 -0.6967  1.0619 -0.4810
 4454TIP3    H134777   5.461   2.306  15.419  0.6335 -0.0138  0.6320
 4454TIP3    H234778   5.355   2.342  15.521 -0.1122 -0.6647  0.0971
 4455TIP3   OH234779   0.408   0.397   3.322 -0.3903  0.2962 -0.2398
 4455TIP3    H134780   0.474   0.455   3.361 -1.0409  0.8117  0.1329
 4455TIP3    H234781   0.325   0.442   3.338 -1.0079 -1.1205  0.7612
 4456TIP3   OH234782   6.282   3.668  16.297  0.3555 -0.3058 -0.4331
 4456TIP3    H134783   6.314   3.579  16.314  0.9388  0.1323  0.8799
 4456TIP3    H234784   6.232   3.691  16.375  0.7705  0.7614 -0.4660
 4457TIP3   OH234785   1.719   2.601  11.059  0.2551  0.4027  0.0586
 4457TIP3    H134786   1.687   2.538  10.995 -0.6778  0.8718  0.0435
 4457TIP3    H234787   1.748   2.547  11.133 -1.0276 -0.0481  0.2689
 4458TIP3   OH234788   4.377   4.948   4.685 -0.0831  0.2059  0.5815
 4458TIP3    H134789   4.452   4.922   4.740  0.7187 -2.1573 -1.4320
 4458TIP3    H234790   4.302   4.907   4.727  0.1670  0.2778  1.1148
 4459TIP3   OH234791   4.776   1.601  15.086 -0.0638 -0.2788 -0.0656
 4459TIP3    H134792   4.844   1.632  15.026  1.7841 -1.8100  1.0994
 4459TIP3    H234793   4.760   1.675  15.144  2.1132 -0.4756  0.8703
 4460TIP3   OH234794   2.367   1.030  15.241  0.0041  0.4933 -0.1779
 4460TIP3    H134795   2.355   0.945  15.285 -0.8414 -0.4518 -2.0936
 4460TIP3    H234796   2.328   1.094  15.301 -0.6393 -0.6563  0.6791
 4461TIP3   OH234797   6.721   1.308   3.749  0.2538  0.2226  0.0790
 4461TIP3    H134798   6.798   1.360   3.726 -0.5281  0.7937 -1.3908
 4461TIP3    H234799   6.745   1.218   3.727  0.8335  0.2620  0.5347
 4462TIP3   OH234800   4.834   2.985  12.373  0.6619 -0.3547 -0.2503
 4462TIP3    H134801   4.876   2.901  12.391  0.0389 -0.7092 -0.3963
 4462TIP3    H234802   4.906   3.047  12.362  1.1470 -0.9843 -0.7084
 4463TIP3   OH234803   4.828   3.363  11.417 -0.6076  0.1356  0.2169
 4463TIP3    H134804   4.756   3.400  11.367 -1.2502 -0.7619  0.4451
 4463TIP3    H234805   4.809   3.388  11.508 -0.7200 -0.2194  0.2944
 4464TIP3   OH234806   6.713   4.152   5.804  0.1480 -0.3955  0.2818
 4464TIP3    H134807   6.720   4.066   5.762 -0.3681 -0.9350  1.2700
 4464TIP3    H234808   6.645   4.197   5.754  0.5970 -0.4572 -0.3979
 4465TIP3   OH234809   1.567   6.646  16.470  0.4491  0.0862  0.6342
 4465TIP3    H134810   1.512   6.724  16.472 -1.0604 -0.8654 -1.0465
 4465TIP3    H234811   1.646   6.672  16.519 -0.8567  1.9447  1.9292
 4466TIP3   OH234812   5.232   2.303  15.677 -0.1249  0.4618  0.0637
 4466TIP3    H134813   5.158   2.322  15.619  0.4488  1.1240 -0.4627
 4466TIP3    H234814   5.192   2.266  15.756 -1.0358  0.9584 -0.1532
 4467TIP3   OH234815   4.033   4.107   2.071  0.6057 -0.2711  0.0166
 4467TIP3    H134816   4.037   4.019   2.109 -1.8048 -2.0434 -3.3316
 4467TIP3    H234817   4.109   4.111   2.013 -0.4918 -1.1870 -1.5722
 4468TIP3   OH234818   5.803   6.737   4.772  0.3666  0.2960 -0.8359
 4468TIP3    H134819   5.844   6.814   4.812 -0.4590  1.4334 -2.0690
 4468TIP3    H234820   5.801   6.758   4.678 -0.7935 -0.7867 -1.0792
 4469TIP3   OH234821   4.284   6.356  12.615 -0.2172 -0.0877  0.3889
 4469TIP3    H134822   4.256   6.345  12.705  0.3200 -1.7681  0.3740
 4469TIP3    H234823   4.379   6.359  12.619 -0.1823 -0.3465 -0.1356
 4470TIP3   OH234824   4.048   1.819   5.485 -0.1597 -0.2202  0.9367
 4470TIP3    H134825   4.139   1.850   5.478 -0.0722 -0.8804 -2.0648
 4470TIP3    H234826   3.996   1.889   5.444 -1.1723  0.5076  3.3045
 4471TIP3   OH234827   4.259   2.750  16.233 -0.1891  0.5210  0.4396
 4471TIP3    H134828   4.224   2.703  16.157  0.5221 -0.8521  0.9172
 4471TIP3    H234829   4.302   2.827  16.197 -2.4993  1.5535 -0.2748
 4472TIP3   OH234830   3.094   4.713   1.069 -0.3047 -0.0136  0.1579
 4472TIP3    H134831   3.093   4.716   1.165  0.8569  0.6475  0.1617
 4472TIP3    H234832   3.108   4.621   1.048 -0.2683 -0.1176  0.6266
 4473TIP3   OH234833   0.438   5.146   4.761 -0.0699  0.1855 -0.5871
 4473TIP3    H134834   0.451   5.237   4.735  3.8298 -0.4877 -1.4806
 4473TIP3    H234835   0.495   5.095   4.704 -1.8974 -2.8623  0.0635
 4474TIP3   OH234836   5.998   1.144   0.606 -0.4295  0.1019  0.5407
 4474TIP3    H134837   5.993   1.143   0.701  2.2895 -2.1684  0.7742
 4474TIP3    H234838   5.933   1.080   0.578 -0.8326  0.3598  0.8651
 4475TIP3   OH234839   5.491   5.783   3.055  0.1058 -0.0720 -0.6966
 4475TIP3    H134840   5.468   5.818   2.969  4.0467 -0.2517 -2.0367
 4475TIP3    H234841   5.494   5.688   3.042 -0.7601 -0.2244  0.1208
 4476TIP3   OH234842   0.976   2.025   4.706 -0.4073  0.3439 -0.3059
 4476TIP3    H134843   0.965   1.986   4.792 -0.1579  0.1694 -0.3514
 4476TIP3    H234844   0.999   1.952   4.649  0.0098  0.5450 -0.4029
 4477TIP3   OH234845   6.151   6.268   5.415  0.1335 -0.3929  0.0653
 4477TIP3    H134846   6.104   6.187   5.434  0.4584 -0.4976  0.4215
 4477TIP3    H234847   6.151   6.274   5.319  0.8827 -1.2686  0.0009
 4478TIP3   OH234848   2.099   2.681   4.250  0.5566  0.0675 -0.1918
 4478TIP3    H134849   2.128   2.770   4.271  1.9491 -0.2835 -0.5872
 4478TIP3    H234850   2.175   2.626   4.266  0.0014 -0.9364 -0.9076
 4479TIP3   OH234851   6.269   1.587  12.961  0.6049 -0.0034  0.1831
 4479TIP3    H134852   6.274   1.682  12.950 -2.7997  0.0876 -1.9678
 4479TIP3    H234853   6.327   1.568  13.035  0.8527  3.8190  1.1567
 4480TIP3   OH234854   4.176   1.872  11.327  0.5137 -0.2277  0.1346
 4480TIP3    H134855   4.161   1.904  11.416  0.3116  0.5597 -0.1717
 4480TIP3    H234856   4.174   1.951  11.273  1.4851 -0.6034 -0.4659
 4481TIP3   OH234857   2.594   3.184  14.067  0.2473 -0.4174  0.2255
 4481TIP3    H134858   2.655   3.195  13.995  1.3630 -1.1039  1.0360
 4481TIP3    H234859   2.570   3.091  14.065  3.2864 -1.4269  2.9785
 4482TIP3   OH234860   1.415   5.623  11.945 -0.2596 -0.6290  0.0996
 4482TIP3    H134861   1.448   5.704  11.982  0.4753 -1.0036  0.2886
 4482TIP3    H234862   1.345   5.650  11.886  0.3987  0.1944 -0.3257
 4483TIP3   OH234863   3.075   6.671  13.650 -0.2583  0.4225 -0.1580
 4483TIP3    H134864   3.112   6.756  13.627 -0.0846  0.7943  1.3728
 4483TIP3    H234865   3.065   6.674  13.746  0.9713 -1.7643  0.0987
 4484TIP3   OH234866   4.478   2.403  12.426 -1.3861  0.1764  0.2625
 4484TIP3    H134867   4.432   2.378  12.346  0.3782  0.0362 -0.7696
 4484TIP3    H234868   4.510   2.320  12.461  0.6049  0.4759 -0.7008
 4485TIP3   OH234869   0.362   2.628  15.078 -0.4170  0.6949  0.1301
 4485TIP3    H134870   0.443   2.667  15.112 -0.0903  1.7679 -1.7324
 4485TIP3    H234871   0.385   2.536  15.062  0.8662  1.2596 -1.5278
 4486TIP3   OH234872   1.559   0.610  12.720 -0.0727  0.1883  0.3171
 4486TIP3    H134873   1.583   0.699  12.693  1.5191 -0.6258 -1.1182
 4486TIP3    H234874   1.593   0.602  12.809 -1.2954  1.3862  0.9203
 4487TIP3   OH234875   3.733   5.317  15.866  0.1868  0.2461  0.1292
 4487TIP3    H134876   3.686   5.322  15.949 -0.0896  0.4755 -0.0380
 4487TIP3    H234877   3.816   5.361  15.883  0.4300 -0.3350  0.4830
 4488TIP3   OH234878   0.384   2.696  15.478 -0.0591  0.4879  0.2167
 4488TIP3    H134879   0.436   2.660  15.406  1.1786 -0.5457  1.5517
 4488TIP3    H234880   0.304   2.643  15.479 -0.1818  0.6517 -0.5182
 4489TIP3   OH234881   1.416   5.168  16.924  0.0597 -0.4250 -0.3407
 4489TIP3    H134882   1.512   5.163  16.925  0.0218 -1.7787  1.5723
 4489TIP3    H234883   1.394   5.216  17.004 -0.8645  0.9000 -1.3492
 4490TIP3   OH234884   3.409   4.738   5.590 -0.0068 -0.6786  0.2461
 4490TIP3    H134885   3.360   4.795   5.649 -0.9494 -1.5924  0.3766
 4490TIP3    H234886   3.378   4.763   5.502 -0.0521 -0.6552  0.2686
 4491TIP3   OH234887   4.355   0.639   0.048  0.1015 -0.2038 -0.3098
 4491TIP3    H134888   4.336   0.546   0.036 -1.5118  0.3036 -2.0634
 4491TIP3    H234889   4.355   0.652   0.143 -1.6565 -1.6144 -0.0819
 4492TIP3   OH234890   5.728   2.132  13.222 -0.2076 -1.3048 -0.0740
 4492TIP3    H134891   5.647   2.108  13.269 -0.4279  0.3871  0.5034
 4492TIP3    H234892   5.781   2.177  13.288  0.0711 -0.0772 -1.0903
 4493TIP3   OH234893   3.365   3.142  14.697 -0.3314 -0.2790 -0.3221
 4493TIP3    H134894   3.455   3.135  14.665  0.5604 -2.0815  2.2466
 4493TIP3    H234895   3.313   3.098  14.630  0.9475 -0.8641 -0.9728
 4494TIP3   OH234896   0.207   2.517  15.788 -0.1771  0.1961 -0.3425
 4494TIP3    H134897   0.258   2.494  15.865 -1.1070  0.9192  0.5304
 4494TIP3    H234898   0.169   2.435  15.758 -0.4334  0.0224  0.4476
 4495TIP3   OH234899   0.079   2.817  12.915 -0.6297 -0.5987 -0.2051
 4495TIP3    H134900   0.129   2.737  12.931  0.3138 -0.6932 -3.0815
 4495TIP3    H234901   0.005   2.789  12.862 -1.1426  0.2392  0.0553
 4496TIP3   OH234902   0.194   2.433   1.592 -0.5151 -0.2918  0.0608
 4496TIP3    H134903   0.226   2.347   1.564  0.8954 -0.3397  1.6445
 4496TIP3    H234904   0.225   2.493   1.524  1.2426 -0.6410  0.4995
 4497TIP3   OH234905   1.085   0.550  13.637 -0.0605 -0.4648 -0.0636
 4497TIP3    H134906   1.178   0.548  13.615 -0.2598  0.2978 -1.0129
 4497TIP3    H234907   1.081   0.595  13.722  0.3581  0.3377 -0.4607
 4498TIP3   OH234908   5.107   1.926  16.192 -0.9272  0.1732  0.0968
 4498TIP3    H134909   5.110   2.019  16.167  1.1253  0.1357  0.0190
 4498TIP3    H234910   5.062   1.925  16.276  1.4208  1.6432  1.4941
 4499TIP3   OH234911   4.720   0.834   2.094 -0.1919 -0.2340 -0.2093
 4499TIP3    H134912   4.641   0.887   2.105 -2.3843 -3.4942  1.2096
 4499TIP3    H234913   4.719   0.808   2.002 -1.6635 -1.4350  0.1162
 4500TIP3   OH234914   0.222   1.595  14.538  0.1093 -0.3455  0.0521
 4500TIP3    H134915   0.294   1.597  14.476 -0.1446  0.1911 -0.2338
 4500TIP3    H234916   0.235   1.672  14.593 -0.5687  0.0995 -0.3882
 4501TIP3   OH234917   3.411   0.176   1.550 -0.2987 -0.2774  0.2957
 4501TIP3    H134918   3.356   0.110   1.507  1.2083 -1.2996 -0.1208
 4501TIP3    H234919   3.367   0.259   1.531 -0.8082 -0.9014 -1.4381
 4502TIP3   OH234920   3.300   2.714   5.054  0.2464 -0.0536  0.0763
 4502TIP3    H134921   3.266   2.723   4.965 -1.7365 -1.7640  0.5771
 4502TIP3    H234922   3.349   2.631   5.053  2.4015  1.1427  0.0160
 4503TIP3   OH234923   3.084   3.322   3.931 -0.1844  0.5733  0.1500
 4503TIP3    H134924   3.109   3.289   4.018  1.1676  0.3727 -0.2938
 4503TIP3    H234925   3.138   3.400   3.919  0.6337 -0.1512 -1.0473
 4504TIP3   OH234926   1.010   0.736  13.816  0.0117 -0.0585  0.0045
 4504TIP3    H134927   1.007   0.821  13.771  1.7540  0.6883  1.1791
 4504TIP3    H234928   0.929   0.692  13.789  0.4552  0.7427 -2.9860
 4505TIP3   OH234929   6.403   6.510  16.350  0.1535  0.0428  0.2941
 4505TIP3    H134930   6.382   6.436  16.294  1.0544 -0.8345  1.0885
 4505TIP3    H234931   6.441   6.471  16.429  1.2540  1.3606  0.4588
 4506TIP3   OH234932   0.676   1.365  15.545 -0.0360  0.4283 -0.2301
 4506TIP3    H134933   0.647   1.298  15.607  1.5660 -1.4147 -1.3330
 4506TIP3    H234934   0.703   1.439  15.599  1.6445 -1.2377  1.3653
 4507TIP3   OH234935   0.181   3.352   2.904 -0.8242 -0.5227  0.0429
 4507TIP3    H134936   0.216   3.290   2.841 -1.0908  1.4976 -2.2492
 4507TIP3    H234937   0.238   3.344   2.981  1.3122 -1.0923 -1.5285
 4508TIP3   OH234938   5.464   2.588  16.717  0.3287  0.4819 -0.4266
 4508TIP3    H134939   5.543   2.638  16.739  1.0922 -0.6163 -0.5587
 4508TIP3    H234940   5.392   2.649  16.731  1.1768  1.4104  0.0317
 4509TIP3   OH234941   1.623   3.222  11.119 -0.1513 -0.5293 -0.0143
 4509TIP3    H134942   1.714   3.204  11.096 -0.3402 -0.4796 -0.8035
 4509TIP3    H234943   1.597   3.294  11.062  0.3794  1.8822  2.5583
 4510TIP3   OH234944   3.163   3.527  11.560 -0.6888 -0.7310  0.5596
 4510TIP3    H134945   3.072   3.554  11.570 -0.0318  1.3966  1.3057
 4510TIP3    H234946   3.198   3.525  11.649 -0.2363 -2.6012  0.3944
 4511TIP3   OH234947   6.430   5.989   4.188 -0.3249  0.8573 -0.1538
 4511TIP3    H134948   6.374   6.011   4.262  0.2144  0.2666  0.4343
 4511TIP3    H234949   6.417   5.895   4.175  1.2308  0.5210  0.5889
 4512TIP3   OH234950   4.992   0.872  15.837  0.1269 -0.6223  0.2073
 4512TIP3    H134951   4.951   0.859  15.751 -0.6022 -0.7701  0.5686
 4512TIP3    H234952   5.004   0.783  15.871 -2.2810 -0.5592  1.4835
 4513TIP3   OH234953   4.390   6.690  13.718  0.1877  0.0766 -0.3359
 4513TIP3    H134954   4.481   6.666  13.734  0.0038 -0.2364  0.2922
 4513TIP3    H234955   4.341   6.643  13.786 -0.1813  2.4524  1.1696
 4514TIP3   OH234956   5.158   6.480   4.212 -0.2439  0.7278 -0.6437
 4514TIP3    H134957   5.181   6.541   4.142  2.3375 -0.1184 -0.6631
 4514TIP3    H234958   5.234   6.422   4.218 -0.7297  0.2437  2.2780
 4515TIP3   OH234959   0.034   0.871  13.904 -0.2258 -0.6820 -0.1790
 4515TIP3    H134960   0.075   0.909  13.982 -1.1516 -0.6342  0.3052
 4515TIP3    H234961   0.102   0.818  13.864  0.9885  1.1265 -0.6413
 4516TIP3   OH234962   1.550   6.508   3.878  0.1611 -0.7488 -0.5380
 4516TIP3    H134963   1.508   6.467   3.802 -0.0195 -3.1801  0.7824
 4516TIP3    H234964   1.478   6.528   3.938  0.3801  0.3807 -0.6412
 4517TIP3   OH234965   4.955   0.614   1.436 -0.1200 -0.8408  0.7908
 4517TIP3    H134966   4.967   0.595   1.343 -1.0079  0.2684  0.4310
 4517TIP3    H234967   4.866   0.582   1.455  0.1954 -1.4099  1.3687
 4518TIP3   OH234968   1.148   2.290   4.759 -0.1235 -0.4435 -0.5252
 4518TIP3    H134969   1.080   2.241   4.714 -2.5942  1.9186  0.3724
 4518TIP3    H234970   1.124   2.285   4.851 -0.7559  2.6199 -0.4110
 4519TIP3   OH234971   2.697   2.443  11.152 -0.2091  0.4480  0.0567
 4519TIP3    H134972   2.678   2.350  11.165 -1.0504  0.4348 -1.1344
 4519TIP3    H234973   2.646   2.487  11.220 -0.7896  0.1041 -0.1427
 4520TIP3   OH234974   2.251   4.902  14.118  0.1058 -0.3958  0.4456
 4520TIP3    H134975   2.328   4.943  14.157  0.0839 -1.1003  1.2631
 4520TIP3    H234976   2.256   4.810  14.145  0.6477 -1.1852 -2.0991
 4521TIP3   OH234977   4.735   2.243   0.758 -0.0614  0.1314  0.3175
 4521TIP3    H134978   4.653   2.194   0.767 -0.0269 -0.2580 -1.2558
 4521TIP3    H234979   4.740   2.295   0.838 -0.6549 -1.5863  1.5204
 4522TIP3   OH234980   3.518   3.525   2.916 -0.5695  0.1800 -0.1251
 4522TIP3    H134981   3.524   3.446   2.862  1.0508  1.9054 -2.7630
 4522TIP3    H234982   3.580   3.511   2.987 -0.2290 -0.9074 -0.6223
 4523TIP3   OH234983   3.437   2.085  14.046 -0.4461 -0.0184 -0.2581
 4523TIP3    H134984   3.432   2.120  14.135 -1.9674 -2.9658  0.9655
 4523TIP3    H234985   3.522   2.040  14.044  0.3316  1.4124 -0.9311
 4524TIP3   OH234986   4.377   5.456   2.004 -0.3085 -0.3003  0.2546
 4524TIP3    H134987   4.426   5.523   1.956 -0.0404  0.5005  1.5947
 4524TIP3    H234988   4.326   5.504   2.068 -0.7395 -1.3332  0.7139
 4525TIP3   OH234989   0.344   3.058   3.298  0.4148  0.2606 -0.3752
 4525TIP3    H134990   0.388   3.036   3.380 -1.0483 -0.5808  0.2346
 4525TIP3    H234991   0.391   3.009   3.231  1.3077  0.5561  0.0162
 4526TIP3   OH234992   3.147   1.010  16.297 -0.0284 -0.4186 -0.1662
 4526TIP3    H134993   3.236   1.045  16.297 -0.0149 -0.1182  3.0261
 4526TIP3    H234994   3.158   0.915  16.300  0.2008 -0.3908 -0.0641
 4527TIP3   OH234995   5.748   6.678  10.832 -0.0814 -0.1015 -0.0301
 4527TIP3    H134996   5.841   6.698  10.830 -0.2211  0.5345 -0.6545
 4527TIP3    H234997   5.733   6.625  10.754 -0.1953 -0.4528  0.2252
 4528TIP3   OH234998   1.850   0.427  12.213  0.0624 -0.3339  0.4034
 4528TIP3    H134999   1.812   0.397  12.296  0.5465 -1.1819  0.3269
 4528TIP3    H235000   1.787   0.492  12.181  0.4084  0.8349  1.9586
 4529TIP3   OH235001   3.126   6.300  14.696  0.1351 -0.4055 -0.5442
 4529TIP3    H135002   3.204   6.305  14.641  1.1600 -0.9721  0.7908
 4529TIP3    H235003   3.146   6.355  14.772 -2.0248  1.9461 -1.5424
 4530TIP3   OH235004   2.645   5.641   5.629  0.0469 -0.5552 -0.2624
 4530TIP3    H135005   2.610   5.711   5.574  0.4792 -0.7993 -0.8669
 4530TIP3    H235006   2.590   5.641   5.707  0.4010  0.8314  0.0091
 4531TIP3   OH235007   0.260   4.302  14.817 -0.2109  0.1785  0.1821
 4531TIP3    H135008   0.317   4.263  14.883  3.6282  3.0606 -1.0027
 4531TIP3    H235009   0.297   4.273  14.733 -2.3818 -0.1240 -0.7374
 4532TIP3   OH235010   5.681   3.818   0.533 -0.1233  0.2863  0.3399
 4532TIP3    H135011   5.743   3.843   0.602  0.0414 -0.3596  0.4353
 4532TIP3    H235012   5.596   3.847   0.566 -0.3095 -1.5484  1.6477
 4533TIP3   OH235013   4.518   1.417   0.468  0.1442  0.4576  0.0896
 4533TIP3    H135014   4.531   1.369   0.386  0.6241 -1.0283  1.0030
 4533TIP3    H235015   4.539   1.508   0.446  0.4614  0.0605 -1.3772
 4534TIP3   OH235016   4.277   2.121  11.720  0.7612 -0.2853 -0.0238
 4534TIP3    H135017   4.185   2.111  11.743  0.4134 -0.4852 -1.4526
 4534TIP3    H235018   4.284   2.085  11.632  2.7037 -2.6760  0.9686
 4535TIP3   OH235019   2.158   4.110  11.333  0.6559  0.7174  0.1729
 4535TIP3    H135020   2.094   4.058  11.382  0.2470  2.0185  1.0627
 4535TIP3    H235021   2.166   4.192  11.383  0.3730  2.0247 -1.8248
 4536TIP3   OH235022   6.282   2.218   5.596 -0.4078 -0.3028  0.1429
 4536TIP3    H135023   6.273   2.194   5.504  0.0622 -0.3933  0.1192
 4536TIP3    H235024   6.247   2.307   5.601 -0.1120 -0.1664 -0.1907
 4537TIP3   OH235025   3.292   6.312   2.615  0.4708  0.0836  0.3027
 4537TIP3    H135026   3.201   6.337   2.600  0.3972 -0.0379  0.5447
 4537TIP3    H235027   3.327   6.381   2.671  0.9770  0.9777 -1.0653
 4538TIP3   OH235028   5.707   0.357  17.021 -0.0965  0.2075  0.1311
 4538TIP3    H135029   5.740   0.390  16.938  0.3236  1.1050  0.6327
 4538TIP3    H235030   5.618   0.391  17.027  0.0211  0.5078  0.2298
 4539TIP3   OH235031   5.029   3.110   4.956 -0.2633 -0.2311 -0.2121
 4539TIP3    H135032   5.097   3.057   4.998 -1.9310 -2.8403 -0.5065
 4539TIP3    H235033   5.049   3.106   4.863 -0.7754 -1.0425 -0.3039
 4540TIP3   OH235034   4.409   2.460   1.135  0.2534 -0.2976  0.5801
 4540TIP3    H135035   4.474   2.474   1.066  0.5083 -0.2302  0.8347
 4540TIP3    H235036   4.460   2.447   1.214 -0.0602  2.1033  1.2557
 4541TIP3   OH235037   0.779   0.839   3.074  0.3425  0.2063  0.5352
 4541TIP3    H135038   0.694   0.800   3.096  0.2426 -0.5353 -1.0455
 4541TIP3    H235039   0.823   0.848   3.158 -1.6477  1.5047  1.5227
 4542TIP3   OH235040   5.244   4.709   1.882 -0.4641 -1.0788 -0.1281
 4542TIP3    H135041   5.340   4.708   1.881 -0.4308  0.3404 -1.0597
 4542TIP3    H235042   5.220   4.622   1.915  1.1285 -0.6673  2.4094
 4543TIP3   OH235043   4.992   4.161  16.420  0.3323  0.8404  0.1359
 4543TIP3    H135044   4.997   4.234  16.358  0.7686 -0.2944 -1.2468
 4543TIP3    H235045   4.899   4.153  16.440 -0.1646 -0.0965 -2.1431
 4544TIP3   OH235046   1.224   6.747   2.797 -0.1735  0.0872  0.2967
 4544TIP3    H135047   1.129   6.739   2.806 -0.2545 -0.3010 -0.7167
 4544TIP3    H235048   1.236   6.827   2.745  0.0969  0.5372  1.0385
 4545TIP3   OH235049   5.256   5.802   1.618  0.1703 -0.3060  0.3642
 4545TIP3    H135050   5.179   5.816   1.563 -0.0640  0.7947  0.9389
 4545TIP3    H235051   5.328   5.839   1.568  0.0853 -0.0195  0.4519
 4546TIP3   OH235052   0.361   5.955   3.089 -0.4394 -0.0144 -0.2316
 4546TIP3    H135053   0.280   5.990   3.053 -0.0120  0.4161 -0.8000
 4546TIP3    H235054   0.333   5.892   3.156 -1.2884  2.5099  1.9796
 4547TIP3   OH235055   6.485   3.131   4.435  1.3103 -0.3534  0.8919
 4547TIP3    H135056   6.413   3.194   4.435  0.9419 -0.7407 -0.1438
 4547TIP3    H235057   6.563   3.182   4.454  1.3455  0.8760 -2.0129
 4548TIP3   OH235058   1.608   4.758   2.457  0.4803 -0.4422 -0.3194
 4548TIP3    H135059   1.682   4.710   2.493  1.4245  1.3378  0.2231
 4548TIP3    H235060   1.616   4.846   2.494 -3.2534 -0.7409  1.7119
 4549TIP3   OH235061   0.784   4.448  15.941 -1.0374  0.0906  0.2367
 4549TIP3    H135062   0.689   4.453  15.954 -1.1764 -1.2448 -0.0960
 4549TIP3    H235063   0.820   4.437  16.029 -1.2976 -0.5290  0.2750
 4550TIP3   OH235064   2.094   4.416   4.697  0.0641 -0.4878  0.3589
 4550TIP3    H135065   2.141   4.333   4.704  0.5717 -0.3484 -1.1123
 4550TIP3    H235066   2.157   4.481   4.728  1.3547 -0.1719 -2.5998
 4551TIP3   OH235067   1.672   0.812  11.008  0.2311  0.8655 -0.7487
 4551TIP3    H135068   1.584   0.784  11.035  1.4717 -2.2889  0.5497
 4551TIP3    H235069   1.662   0.904  10.986 -2.8566  1.3310  1.8390
 4552TIP3   OH235070   6.021   5.463  14.917  0.0101  0.3213 -0.0100
 4552TIP3    H135071   6.091   5.510  14.871 -0.0060  0.2065 -0.1536
 4552TIP3    H235072   5.996   5.393  14.857 -0.4859  0.5838 -0.1167
 4553TIP3   OH235073   5.397   3.296   4.856 -0.0537  0.6021 -0.1815
 4553TIP3    H135074   5.358   3.219   4.814 -0.6946  0.2421  1.0206
 4553TIP3    H235075   5.467   3.260   4.911  0.6488  1.0482 -0.7669
 4554TIP3   OH235076   6.765   5.793  11.190  0.0322  0.7803 -0.2829
 4554TIP3    H135077   6.737   5.823  11.103 -0.2200  1.3248 -0.0126
 4554TIP3    H235078   6.812   5.711  11.172  0.4278  1.1468 -0.9906
 4555TIP3   OH235079   1.190   2.492   0.194  0.6950 -0.5686  0.3066
 4555TIP3    H135080   1.220   2.522   0.280  2.5237  1.0388 -0.8143
 4555TIP3    H235081   1.151   2.406   0.211  2.2878 -0.9357  2.5317
 4556TIP3   OH235082   3.974   5.196  12.927 -0.0005  0.1723  0.7313
 4556TIP3    H135083   3.925   5.140  12.987 -0.7302  1.6300  1.5328
 4556TIP3    H235084   4.024   5.255  12.983 -0.3195  1.2455 -0.0782
 4557TIP3   OH235085   3.483   3.208  11.295  0.4726 -0.0328 -0.7299
 4557TIP3    H135086   3.501   3.301  11.284  0.4016 -0.0822 -1.2689
 4557TIP3    H235087   3.569   3.167  11.304  0.5593 -0.0447 -1.5468
 4558TIP3   OH235088   6.574   1.013  14.994 -0.0349 -0.0326 -0.2854
 4558TIP3    H135089   6.575   1.087  14.933 -3.0777  0.1436 -0.2563
 4558TIP3    H235090   6.516   0.948  14.953 -0.4425 -0.8100  1.4191
 4559TIP3   OH235091   0.212   1.043   3.319  0.2805 -0.2550 -0.2672
 4559TIP3    H135092   0.215   1.126   3.271  0.8420 -0.7233 -1.0564
 4559TIP3    H235093   0.257   0.980   3.263  1.0531 -0.8004  0.9082
 4560TIP3   OH235094   1.401   4.730   2.823  0.4299  0.3223 -0.1798
 4560TIP3    H135095   1.440   4.646   2.847 -1.1248 -0.2984  0.3441
 4560TIP3    H235096   1.386   4.774   2.907 -1.8634 -0.3786 -0.1384
 4561TIP3   OH235097   1.562   6.196   5.278 -0.2023  0.1682  0.4866
 4561TIP3    H135098   1.650   6.196   5.316 -0.8195 -0.2660  1.9395
 4561TIP3    H235099   1.535   6.105   5.279 -0.3169  0.1533 -0.8878
 4562TIP3   OH235100   1.077   0.720   0.698 -0.6389  0.2642  0.3147
 4562TIP3    H135101   1.009   0.699   0.633  0.8642  1.1627 -1.6622
 4562TIP3    H235102   1.114   0.635   0.722  0.0597 -0.0209 -1.5420
 4563TIP3   OH235103   2.461   3.251   5.594 -0.5576  0.5686  0.9512
 4563TIP3    H135104   2.467   3.292   5.680 -1.5391  1.1052  0.7781
 4563TIP3    H235105   2.551   3.240   5.566 -0.2425  0.9313  1.7920
 4564TIP3   OH235106   4.105   0.768   1.079 -0.0534  0.2536  0.0901
 4564TIP3    H135107   4.155   0.688   1.062 -1.0072 -0.4486  0.5113
 4564TIP3    H235108   4.138   0.799   1.163  1.8376  1.5250 -1.0413
 4565TIP3   OH235109   3.139   5.761   1.805  0.1237 -0.0884  0.2609
 4565TIP3    H135110   3.058   5.766   1.857  0.3334  2.6275  0.4619
 4565TIP3    H235111   3.109   5.740   1.717 -0.5771 -1.1893  0.7336
 4566TIP3   OH235112   0.845   5.226   2.933  0.0760 -0.2694 -0.3154
 4566TIP3    H135113   0.807   5.241   3.020 -0.8366 -1.7687 -0.4316
 4566TIP3    H235114   0.788   5.274   2.874  0.1234 -0.0541 -0.1878
 4567TIP3   OH235115   5.528   5.680   0.009  0.3341 -0.2176  0.0387
 4567TIP3    H135116   5.621   5.700   0.022  0.6083 -0.5940 -1.1881
 4567TIP3    H235117   5.510   5.609   0.070  0.7270  0.1736  0.6213
 4568TIP3   OH235118   5.220   4.526  13.779 -0.2251 -0.4545 -0.1807
 4568TIP3    H135119   5.140   4.573  13.759 -1.5862 -2.8766 -0.7999
 4568TIP3    H235120   5.255   4.500  13.694  0.8699 -0.0181  0.1148
 4569TIP3   OH235121   5.477   6.634   5.391  0.1072  0.2512  0.2836
 4569TIP3    H135122   5.490   6.697   5.320  3.2687  1.9730  2.1795
 4569TIP3    H235123   5.496   6.549   5.350  2.9917  1.2953 -0.7950
 4570TIP3   OH235124   2.284   2.350   4.986 -0.3615 -0.5228 -0.1866
 4570TIP3    H135125   2.351   2.336   5.053 -1.6282 -0.0402  1.2545
 4570TIP3    H235126   2.254   2.440   5.001 -0.4962 -0.3022 -1.6080
 4571TIP3   OH235127   1.994   5.215   2.049  0.5691  0.3640  0.0500
 4571TIP3    H135128   2.047   5.286   2.012  1.3740 -1.1771 -1.8858
 4571TIP3    H235129   1.937   5.187   1.977  0.2894 -0.9764  0.7608
 4572TIP3   OH235130   4.274   3.553  11.881  0.0503  0.5792  0.2339
 4572TIP3    H135131   4.293   3.485  11.945 -0.0923  0.2421 -0.0786
 4572TIP3    H235132   4.351   3.610  11.882 -0.1455  0.8477  1.0407
 4573TIP3   OH235133   6.301   4.655  15.566 -0.6488 -0.3073  0.2702
 4573TIP3    H135134   6.226   4.678  15.511 -0.6457 -1.9429 -0.4643
 4573TIP3    H235135   6.377   4.693  15.522 -0.9367  0.7241  0.6303
 4574TIP3   OH235136   6.309   5.344   3.947 -0.4085  0.3647  0.6106
 4574TIP3    H135137   6.393   5.364   3.904 -1.3286  0.4739 -1.2325
 4574TIP3    H235138   6.331   5.275   4.010  1.1178  0.5855  0.3781
 4575TIP3   OH235139   5.800   5.551  14.238 -0.3878 -0.6109 -0.1346
 4575TIP3    H135140   5.762   5.541  14.151  1.1092  0.9422 -1.0176
 4575TIP3    H235141   5.892   5.530  14.227  0.3395  1.9837  0.5112
 4576TIP3   OH235142   5.022   5.889  13.287  0.4454 -0.5626  0.2786
 4576TIP3    H135143   5.088   5.950  13.318  0.1069 -0.2608  0.4132
 4576TIP3    H235144   5.005   5.832  13.362  0.3842 -0.4957  0.3142
 4577TIP3   OH235145   0.327   0.299   5.437 -0.4818  0.1678  0.2158
 4577TIP3    H135146   0.234   0.317   5.424 -0.5722 -0.5942 -0.3399
 4577TIP3    H235147   0.329   0.219   5.490 -0.1439  0.3687  0.5055
 4578TIP3   OH235148   0.924   2.778  14.755 -0.2690 -0.6039  0.3293
 4578TIP3    H135149   0.995   2.724  14.720  1.0023  0.8643  0.5647
 4578TIP3    H235150   0.878   2.810  14.678  0.5522  0.0211  0.0831
 4579TIP3   OH235151   4.804   2.357  12.730 -0.3404 -0.5757  0.1703
 4579TIP3    H135152   4.881   2.305  12.709  1.5123  1.2516  1.9458
 4579TIP3    H235153   4.777   2.395  12.646  2.6391  1.1588 -0.1378
 4580TIP3   OH235154   4.145   2.173  15.462  0.3191  0.4635  1.1008
 4580TIP3    H135155   4.074   2.193  15.524 -1.4038  0.8483 -0.8723
 4580TIP3    H235156   4.222   2.217  15.499 -0.9719  1.9426  2.2087
 4581TIP3   OH235157   6.422   0.858   5.524 -0.3215  0.2208  0.1823
 4581TIP3    H135158   6.426   0.867   5.428  1.1075 -0.2916  0.1663
 4581TIP3    H235159   6.404   0.946   5.556 -0.7407  0.4143 -0.5468
 4582TIP3   OH235160   2.311   2.207  16.718 -0.1388  0.1957 -0.4371
 4582TIP3    H135161   2.244   2.235  16.656 -1.2750 -0.2040  0.5556
 4582TIP3    H235162   2.262   2.191  16.799  1.3182  0.8205  0.5900
 4583TIP3   OH235163   4.149   5.566  16.339 -0.5451 -0.0458  0.5182
 4583TIP3    H135164   4.149   5.618  16.420 -3.2422 -0.1154  0.6360
 4583TIP3    H235165   4.119   5.627  16.271 -2.6576 -1.0586  0.4540
 4584TIP3   OH235166   3.418   1.922   4.482 -0.2765 -0.2068 -0.2221
 4584TIP3    H135167   3.434   1.988   4.415 -0.5272 -0.2719 -0.3451
 4584TIP3    H235168   3.336   1.948   4.523  0.4279  0.4745  0.8238
 4585TIP3   OH235169   2.901   2.846  14.097  0.1836  0.7491  0.2133
 4585TIP3    H135170   2.816   2.810  14.071  0.0190 -0.3010  2.0480
 4585TIP3    H235171   2.959   2.827  14.023 -0.3201 -1.7710  0.3787
 4586TIP3   OH235172   0.890   1.009   5.567  0.2066  0.0111 -0.7608
 4586TIP3    H135173   0.975   0.967   5.580  1.1823  0.8235 -3.7939
 4586TIP3    H235174   0.893   1.087   5.621  0.2490 -1.2995  1.2426
 4587TIP3   OH235175   0.801   6.237  10.577 -0.1030 -0.1670  0.2505
 4587TIP3    H135176   0.800   6.211  10.669 -1.5919 -0.5741  0.1339
 4587TIP3    H235177   0.732   6.185  10.535  1.0293 -0.5440 -1.2647
 4588TIP3   OH235178   1.488   6.060  14.938 -0.4008  0.2065 -0.2863
 4588TIP3    H135179   1.568   6.051  14.887  1.1465  0.8234  1.8947
 4588TIP3    H235180   1.470   6.154  14.938 -1.3323  0.0403 -1.0277
 4589TIP3   OH235181   4.053   4.308   2.282  0.1468 -0.1599 -0.1868
 4589TIP3    H135182   4.046   4.254   2.203 -0.4602 -0.3645  0.0012
 4589TIP3    H235183   3.965   4.343   2.295  0.5053  0.7818 -0.2345
 4590TIP3   OH235184   4.849   0.408  13.501 -0.2903 -0.2574  0.8134
 4590TIP3    H135185   4.881   0.439  13.416 -1.4121  0.8401  0.7739
 4590TIP3    H235186   4.908   0.336  13.523  1.0515  0.5157 -0.1125
 4591TIP3   OH235187   5.015   5.788   0.673  0.1265 -0.2944  0.1066
 4591TIP3    H135188   4.997   5.797   0.580 -0.3572 -1.9199  0.0028
 4591TIP3    H235189   4.992   5.873   0.711  2.5236  1.1834 -1.5327
 4592TIP3   OH235190   3.597   3.415   3.811 -0.2285 -0.0922 -0.0598
 4592TIP3    H135191   3.576   3.504   3.839 -0.5762  0.1139 -0.9470
 4592TIP3    H235192   3.515   3.366   3.824 -0.6848  0.2179 -1.5166
 4593TIP3   OH235193   2.788   5.205   4.365  0.5462 -0.1021 -0.3947
 4593TIP3    H135194   2.744   5.145   4.426  0.2904  1.6283  1.2080
 4593TIP3    H235195   2.820   5.276   4.420  1.2486  1.0310 -2.1729
 4594TIP3   OH235196   4.063   1.290  13.414  0.3048  0.4579 -0.4251
 4594TIP3    H135197   4.018   1.358  13.464 -1.1128 -0.0831 -0.9198
 4594TIP3    H235198   3.996   1.256  13.354  1.1498 -0.9530 -0.6118
 4595TIP3   OH235199   3.521   6.500   5.160 -0.3392  0.3482 -0.3738
 4595TIP3    H135200   3.495   6.421   5.206  0.3367  0.2798 -0.0965
 4595TIP3    H235201   3.615   6.507   5.176 -0.4193  1.2930 -0.2654
 4596TIP3   OH235202   1.905   6.105   3.284  0.0776  0.4389 -0.1381
 4596TIP3    H135203   1.820   6.060   3.283  1.0398 -1.6517  1.9328
 4596TIP3    H235204   1.943   6.085   3.199 -1.5697  1.6591 -1.2274
 4597TIP3   OH235205   3.873   1.073   1.556  0.0984  0.6554 -0.7819
 4597TIP3    H135206   3.788   1.097   1.519  0.6117  0.7757 -1.9009
 4597TIP3    H235207   3.937   1.122   1.505  1.0246 -1.4925 -1.8135
 4598TIP3   OH235208   5.277   2.236   1.760  0.5110  0.3451 -0.2541
 4598TIP3    H135209   5.199   2.273   1.721 -1.0545 -0.4370  1.9261
 4598TIP3    H235210   5.252   2.147   1.785  1.9150  0.2372  0.9375
 4599TIP3   OH235211   6.682   6.195  13.909  0.0120  0.0239 -0.3706
 4599TIP3    H135212   6.716   6.275  13.949  0.4644 -0.4679  0.2608
 4599TIP3    H235213   6.592   6.188  13.942  0.9396 -1.3438  2.1590
 4600TIP3   OH235214   2.464   3.984   3.111 -0.4405  0.2271  0.4624
 4600TIP3    H135215   2.369   3.982   3.123 -0.3102 -0.8398  1.5204
 4600TIP3    H235216   2.489   3.892   3.099  0.4034  0.5456 -0.3573
 4601TIP3   OH235217   0.864   6.140   0.041  0.7005  0.1124 -0.5797
 4601TIP3    H135218   0.909   6.077  -0.015  0.9749  1.0641 -1.4671
 4601TIP3    H235219   0.774   6.108   0.046  0.4755  0.3853 -2.2109
 4602TIP3   OH235220   6.509   5.959   2.087 -0.3346 -1.2103 -0.3799
 4602TIP3    H135221   6.449   6.006   2.029  2.4380  0.3888 -2.2100
 4602TIP3    H235222   6.543   6.027   2.146 -0.1586 -2.0287  0.4765
 4603TIP3   OH235223   2.038   5.072  11.374 -0.2699  0.2261  0.3730
 4603TIP3    H135224   2.096   5.005  11.338  1.2121  1.4792  0.3375
 4603TIP3    H235225   1.999   5.032  11.451  1.2063 -0.4262  0.8063
 4604TIP3   OH235226   3.066   6.528  13.224 -0.2263 -0.4770 -0.3994
 4604TIP3    H135227   3.102   6.543  13.312 -1.0057  2.1028 -0.4371
 4604TIP3    H235228   3.139   6.491  13.175  0.4555 -1.2501  1.1282
 4605TIP3   OH235229   1.470   0.492   0.546 -0.5362 -0.1398  0.2911
 4605TIP3    H135230   1.410   0.548   0.595 -0.3500 -0.2220  0.6124
 4605TIP3    H235231   1.524   0.451   0.612 -1.0788 -1.1890  0.1066
 4606TIP3   OH235232   1.875   0.558   4.250  0.4618 -0.4393  0.8186
 4606TIP3    H135233   1.850   0.650   4.251  0.4190 -0.3845 -1.2070
 4606TIP3    H235234   1.798   0.512   4.283  0.3479  0.2000  1.4775
 4607TIP3   OH235235   4.416   1.249  11.762 -0.1816  0.1226  0.3340
 4607TIP3    H135236   4.400   1.209  11.847 -2.6265  0.3914  0.0516
 4607TIP3    H235237   4.332   1.246  11.717  0.1962  3.0181 -0.7854
 4608TIP3   OH235238   5.783   3.246  15.025 -0.0791 -0.2390  0.3454
 4608TIP3    H135239   5.790   3.151  15.034 -0.0942 -0.3897 -1.0526
 4608TIP3    H235240   5.690   3.261  15.007  0.1481 -0.1025 -0.7872
 4609TIP3   OH235241   2.527   2.450   3.075 -0.4502  0.3169  0.2960
 4609TIP3    H135242   2.530   2.541   3.048 -0.5746 -0.1316 -1.3224
 4609TIP3    H235243   2.618   2.429   3.099 -0.2365  0.5922 -0.2610
 4610TIP3   OH235244   3.916   3.248  15.320  0.6199 -0.0185  0.1446
 4610TIP3    H135245   3.884   3.315  15.381  0.4972  0.1707 -0.1231
 4610TIP3    H235246   3.920   3.293  15.236  2.4351  0.2266  0.3223
 4611TIP3   OH235247   2.821   1.209   4.574 -0.6803 -0.2234 -0.3002
 4611TIP3    H135248   2.901   1.157   4.565 -0.2510  0.2552  0.6119
 4611TIP3    H235249   2.848   1.299   4.555 -0.6442  0.1745  1.4458
 4612TIP3   OH235250   5.567   5.090  12.401  0.0957  0.1805 -0.6160
 4612TIP3    H135251   5.602   5.141  12.474 -0.0498  0.9139 -1.0433
 4612TIP3    H235252   5.514   5.153  12.352  1.6509  0.1854 -2.3732
 4613TIP3   OH235253   5.285   2.993  16.591  0.4579  0.3587  0.5190
 4613TIP3    H135254   5.207   2.937  16.588  0.5402  0.1690  1.4411
 4613TIP3    H235255   5.276   3.042  16.673  1.6896 -0.2543  1.0503
 4614TIP3   OH235256   0.091   0.890   4.945 -0.2362 -0.2650  0.2907
 4614TIP3    H135257   0.168   0.834   4.953  0.7748  0.5467 -2.4307
 4614TIP3    H235258   0.104   0.960   5.009  1.6191  0.1497 -0.4707
 4615TIP3   OH235259   2.240   4.428  16.980  0.6544  0.5753 -0.0551
 4615TIP3    H135260   2.315   4.486  16.966  0.7495  0.2620 -0.9194
 4615TIP3    H235261   2.234   4.377  16.899 -1.4087  1.6498 -0.6591
 4616TIP3   OH235262   0.576   5.474  11.124 -0.2368 -0.3009  0.6859
 4616TIP3    H135263   0.659   5.520  11.111  0.2445  0.4117  4.8840
 4616TIP3    H235264   0.513   5.543  11.144 -1.4688 -0.9747 -0.7062
 4617TIP3   OH235265   4.951   1.718  12.267 -0.0553 -0.1975  0.2821
 4617TIP3    H135266   5.026   1.681  12.221 -1.0062 -0.2333 -1.3272
 4617TIP3    H235267   4.898   1.758  12.198 -1.1087  0.5518  1.4775
 4618TIP3   OH235268   4.476   0.738  11.900 -0.1022 -0.5759  0.5731
 4618TIP3    H135269   4.563   0.707  11.873  0.3906 -2.3171  3.5819
 4618TIP3    H235270   4.415   0.680  11.856  0.4954 -1.4987  0.9064
 4619TIP3   OH235271   2.025   2.463  10.971  0.3685 -0.1063  0.3692
 4619TIP3    H135272   2.032   2.467  10.875  0.5287 -1.1720  0.3234
 4619TIP3    H235273   1.930   2.466  10.987  0.3577  0.5797  0.2137
 4620TIP3   OH235274   1.730   0.059   6.132 -0.4150  0.7281 -0.1006
 4620TIP3    H135275   1.805   0.117   6.146 -3.1259  4.5657  0.2809
 4620TIP3    H235276   1.680   0.065   6.214 -1.7447 -0.6797 -0.7611
 4621TIP3   OH235277   2.326   4.119   4.059  0.3023  0.4818  0.3470
 4621TIP3    H135278   2.334   4.045   4.118  1.2213  1.6325  1.7324
 4621TIP3    H235279   2.275   4.184   4.108 -0.2846  0.8714 -0.7442
 4622TIP3   OH235280   5.262   5.472   4.573  0.3783  0.3992 -0.4018
 4622TIP3    H135281   5.267   5.420   4.493  1.7879  0.7219 -0.5523
 4622TIP3    H235282   5.255   5.562   4.543  0.7098  0.5055 -0.1754
 4623TIP3   OH235283   6.125   0.944   4.357 -0.0252  0.6496 -0.3591
 4623TIP3    H135284   6.199   0.991   4.396 -1.2973  1.0368  1.7679
 4623TIP3    H235285   6.057   1.011   4.349 -0.7097 -0.0738 -0.6343
 4624TIP3   OH235286   5.773   4.643  14.730 -0.0304  0.0757 -0.0306
 4624TIP3    H135287   5.807   4.608  14.812  0.3498 -0.1251 -0.2695
 4624TIP3    H235288   5.748   4.733  14.750  0.6768  0.2373  0.1425
 4625TIP3   OH235289   2.462   5.110  13.465 -0.0209 -0.2040 -0.5606
 4625TIP3    H135290   2.545   5.141  13.500 -0.5049 -0.2272  0.6667
 4625TIP3    H235291   2.483   5.079  13.376  1.5276 -1.4049  0.1709
 4626TIP3   OH235292   2.533   1.619  12.933  0.3467  0.4445  0.8988
 4626TIP3    H135293   2.555   1.527  12.923  1.5501  0.7305  0.7801
 4626TIP3    H235294   2.615   1.661  12.958 -0.1684  1.4978  0.8848
 4627TIP3   OH235295   3.354   6.330   4.332 -0.2265  0.5617 -0.3324
 4627TIP3    H135296   3.425   6.280   4.372  0.0115  1.0300 -0.1698
 4627TIP3    H235297   3.275   6.283   4.358 -0.0122  0.3467 -0.0641
 4628TIP3   OH235298   1.651   1.409   0.330 -0.5202  0.2651  0.3294
 4628TIP3    H135299   1.661   1.334   0.388  0.1229  0.9945  1.1838
 4628TIP3    H235300   1.740   1.439   0.313 -0.7435  0.5268 -0.4190
 4629TIP3   OH235301   2.555   1.871   2.204  0.2611  0.5941  0.2596
 4629TIP3    H135302   2.500   1.949   2.206 -1.5073 -0.6058  0.2365
 4629TIP3    H235303   2.582   1.859   2.295 -2.0697 -0.5002  0.8646
 4630TIP3   OH235304   6.089   4.078   4.628 -0.5841 -0.2011 -0.3193
 4630TIP3    H135305   6.178   4.065   4.662  0.2714  3.3205 -0.7907
 4630TIP3    H235306   6.086   4.027   4.547  0.7767 -0.8876  0.0361
 4631TIP3   OH235307   6.807   2.140  12.247  0.1724  0.0174 -0.4670
 4631TIP3    H135308   6.798   2.064  12.189 -1.5883 -0.1248 -0.0753
 4631TIP3    H235309   6.717   2.164  12.268  0.6580  2.3706 -0.7668
 4632TIP3   OH235310   1.283   3.501  13.328  0.2729 -1.0214  0.3081
 4632TIP3    H135311   1.257   3.453  13.407 -0.4098  0.2703  0.9047
 4632TIP3    H235312   1.341   3.570  13.360 -0.5213 -0.0801 -0.2107
 4633TIP3   OH235313   2.066   6.005  10.890 -0.0636  0.3126  0.3323
 4633TIP3    H135314   2.080   6.082  10.836  0.9065 -0.9359 -1.2755
 4633TIP3    H235315   1.980   6.019  10.930 -0.7897  1.3210 -1.4842
 4634TIP3   OH235316   0.327   6.103  14.017  0.4175 -0.6185  0.3260
 4634TIP3    H135317   0.243   6.106  14.064  0.1159 -2.7452  0.0027
 4634TIP3    H235318   0.312   6.043  13.944  2.1990 -0.9275  0.1694
 4635TIP3   OH235319   4.139   1.371   0.600  0.4355 -0.0625 -0.3139
 4635TIP3    H135320   4.070   1.420   0.645  0.3956 -0.8959  0.5527
 4635TIP3    H235321   4.092   1.315   0.539  0.2246 -1.5911  1.1998
 4636TIP3   OH235322   2.963   0.504  12.560  0.3123 -0.2914 -0.1832
 4636TIP3    H135323   3.049   0.529  12.526 -1.0500  1.7400 -2.4245
 4636TIP3    H235324   2.964   0.533  12.652  1.9615 -0.2622 -0.1819
 4637TIP3   OH235325   6.608   6.600   1.736 -0.6296  0.0486 -0.7403
 4637TIP3    H135326   6.600   6.631   1.826  0.1684 -1.2039 -0.2097
 4637TIP3    H235327   6.533   6.639   1.690 -1.1173  0.6006  0.4902
 4638TIP3   OH235328   0.941   4.694   0.399 -0.2186  0.4444 -0.2831
 4638TIP3    H135329   0.907   4.618   0.445 -0.5132  1.4668  1.2683
 4638TIP3    H235330   0.868   4.724   0.344  0.5659 -1.5876 -2.5963
 4639TIP3   OH235331   2.396   1.491  11.181  0.9818 -0.1062 -0.2683
 4639TIP3    H135332   2.359   1.403  11.179  2.1990 -0.7438  1.9606
 4639TIP3    H235333   2.458   1.493  11.108  0.9789 -1.1353 -0.3147
 4640TIP3   OH235334   3.010   5.356  14.522  0.2228 -0.1486 -0.1368
 4640TIP3    H135335   3.018   5.270  14.564 -2.4972 -0.1044  0.6495
 4640TIP3    H235336   3.051   5.416  14.585  0.1345 -0.6040  0.3664
 4641TIP3   OH235337   1.448   0.146  12.387  0.1488  0.0436 -0.2542
 4641TIP3    H135338   1.370   0.201  12.397 -0.1238 -0.5314  0.8757
 4641TIP3    H235339   1.512   0.203  12.344  0.3546  1.7294  2.1120
 4642TIP3   OH235340   4.236   2.242  14.854  0.3364  0.1114 -0.5316
 4642TIP3    H135341   4.253   2.320  14.801 -0.1651 -1.2431 -2.8353
 4642TIP3    H235342   4.141   2.240  14.862  0.4178  0.3814  0.5908
 4643TIP3   OH235343   4.700   2.712  11.311  0.9331  0.1054 -0.4318
 4643TIP3    H135344   4.667   2.745  11.228  0.7618 -2.7385 -1.6145
 4643TIP3    H235345   4.639   2.746  11.377  0.1202  1.0885 -1.6580
 4644TIP3   OH235346   4.794   1.672  12.506  0.1275  0.6438 -0.1292
 4644TIP3    H135347   4.729   1.617  12.462 -0.3968  1.0058  0.1743
 4644TIP3    H235348   4.846   1.710  12.435  0.0775  0.2650 -0.3693
 4645TIP3   OH235349   3.613   4.479  12.508  0.0220 -0.0525 -0.4454
 4645TIP3    H135350   3.656   4.502  12.590 -0.9387  1.4335 -0.3303
 4645TIP3    H235351   3.530   4.527  12.509  0.1961  0.3954 -2.4912
 4646TIP3   OH235352   6.296   0.578  11.960 -0.3504 -0.6887 -0.2406
 4646TIP3    H135353   6.339   0.498  11.931  1.7421 -0.0363  0.8732
 4646TIP3    H235354   6.219   0.548  12.008  1.4588 -2.1948  1.9176
 4647TIP3   OH235355   0.790   5.655  12.024  0.3387 -0.2827 -0.3939
 4647TIP3    H135356   0.778   5.748  12.042 -0.7843  0.3694 -3.7342
 4647TIP3    H235357   0.712   5.613  12.059  0.9382 -0.0545  1.3033
 4648TIP3   OH235358   5.399   4.979   4.874  0.3771 -0.3366  0.1765
 4648TIP3    H135359   5.424   4.913   4.939  0.9426  0.8918  1.2435
 4648TIP3    H235360   5.454   5.055   4.893 -0.7146  0.6962 -0.6001
 4649TIP3   OH235361   0.729   1.675  16.558 -0.1940  0.3214 -0.1247
 4649TIP3    H135362   0.774   1.650  16.638 -0.4845 -1.1380 -0.3960
 4649TIP3    H235363   0.758   1.765  16.541  2.7700 -0.5790 -0.3947
 4650TIP3   OH235364   4.628   4.059   1.023 -0.2996 -0.3158  0.0049
 4650TIP3    H135365   4.625   3.970   1.060  0.7131  0.0927  1.1621
 4650TIP3    H235366   4.649   4.045   0.930  3.2038 -1.2907  0.7567
 4651TIP3   OH235367   3.797   0.282   4.244  0.3412 -0.4145 -0.2646
 4651TIP3    H135368   3.782   0.289   4.150  1.6462  0.7902 -0.4037
 4651TIP3    H235369   3.870   0.220   4.252 -0.4994 -1.4036  0.0514
 4652TIP3   OH235370   3.615   0.396  12.305 -0.4663  0.0194  0.2809
 4652TIP3    H135371   3.694   0.342  12.306 -1.0692 -0.9584  2.2432
 4652TIP3    H235372   3.544   0.333  12.319 -1.4842  1.0155 -0.2457
 4653TIP3   OH235373   5.486   4.708  17.158 -0.2302 -0.9035 -0.1989
 4653TIP3    H135374   5.561   4.658  17.191  0.7192  1.2057  1.0554
 4653TIP3    H235375   5.498   4.709  17.063  2.5095  0.9614  0.0369
 4654TIP3   OH235376   2.830   5.719   0.656  0.3990  0.1254  0.4287
 4654TIP3    H135377   2.838   5.794   0.597  1.1363 -0.1950  0.1082
 4654TIP3    H235378   2.868   5.646   0.607 -1.0919 -0.6606  0.3898
 4655TIP3   OH235379   1.397   6.755  16.074  0.5991 -0.1152  0.1509
 4655TIP3    H135380   1.319   6.713  16.110  0.1381  1.9598  1.7772
 4655TIP3    H235381   1.470   6.701  16.105 -0.0503 -0.6962  0.6964
 4656TIP3   OH235382   1.603   2.770   4.055  0.4260  0.7113 -0.5041
 4656TIP3    H135383   1.543   2.823   4.106 -0.4963 -0.6397 -0.1405
 4656TIP3    H235384   1.601   2.808   3.968 -0.2649  1.2405 -0.2619
 4657TIP3   OH235385   5.251   0.937  17.037  0.0970  0.5677  0.7754
 4657TIP3    H135386   5.183   0.973  16.980  0.6535  2.2893  1.1328
 4657TIP3    H235387   5.328   0.992  17.020  1.4517 -1.3498  0.3542
 4658TIP3   OH235388   1.363   1.297   1.488 -0.2920  0.3417 -0.6315
 4658TIP3    H135389   1.274   1.265   1.499 -0.1955  0.5790  1.0307
 4658TIP3    H235390   1.411   1.222   1.452  0.0672 -1.8093  3.6597
 4659TIP3   OH235391   5.191   0.208  15.814  0.3572  0.3681 -0.3760
 4659TIP3    H135392   5.261   0.259  15.774  1.6447 -1.4306 -0.5252
 4659TIP3    H235393   5.228   0.177  15.896  0.4709 -2.0656 -1.2542
 4660TIP3   OH235394   6.437   1.539  14.491 -0.0919  0.1751  0.1396
 4660TIP3    H135395   6.522   1.528  14.534  0.7439 -0.0796 -1.4910
 4660TIP3    H235396   6.451   1.505  14.403 -0.7552  3.6062 -1.4357
 4661TIP3   OH235397   2.278   3.613   3.343 -0.0180  0.1842  0.0359
 4661TIP3    H135398   2.342   3.561   3.392  0.3850  0.4855 -0.1652
 4661TIP3    H235399   2.284   3.581   3.253  0.8483  1.1589 -0.2619
 4662TIP3   OH235400   4.380   0.317   3.703  0.5655 -0.1953 -0.3717
 4662TIP3    H135401   4.413   0.260   3.772  0.1897 -0.2242 -0.2160
 4662TIP3    H235402   4.399   0.406   3.733 -1.3613 -0.1009  0.7097
 4663TIP3   OH235403   5.730   5.145  14.875  0.8216 -0.1420  0.3741
 4663TIP3    H135404   5.707   5.229  14.836 -0.4857 -0.8887 -0.5450
 4663TIP3    H235405   5.817   5.159  14.913  0.7807  1.5083 -0.0684
 4664TIP3   OH235406   2.372   2.673   3.906 -0.1523  0.6011 -0.1428
 4664TIP3    H135407   2.302   2.726   3.867 -0.9022  0.0614  0.4220
 4664TIP3    H235408   2.327   2.594   3.936  1.2473 -1.3520 -2.8163
 4665TIP3   OH235409   3.671   3.208  15.667 -1.3544  0.2486  0.0023
 4665TIP3    H135410   3.722   3.158  15.602  1.1631  0.8098  1.4027
 4665TIP3    H235411   3.631   3.279  15.616 -0.2189  0.1387 -1.1085
 4666TIP3   OH235412   5.108   0.914   3.780  0.1664  0.1165  0.0549
 4666TIP3    H135413   5.101   0.841   3.841  0.6893 -0.1970 -0.2486
 4666TIP3    H235414   5.039   0.898   3.716  1.6632 -1.3802 -1.2963
 4667TIP3   OH235415   0.065   0.207  15.786  0.1118 -0.3730  0.0666
 4667TIP3    H135416   0.012   0.281  15.754  0.3073 -0.7088 -1.0448
 4667TIP3    H235417   0.004   0.157  15.841 -0.1929  0.2640  0.3279
 4668TIP3   OH235418   1.255   2.189   0.343 -0.4989 -0.6688  0.2185
 4668TIP3    H135419   1.183   2.209   0.284  0.4533  0.6095 -0.5765
 4668TIP3    H235420   1.329   2.240   0.308  1.0306 -2.5757  0.4743
 4669TIP3   OH235421   1.956   6.125  15.361  0.1243 -0.7779 -0.4144
 4669TIP3    H135422   1.948   6.148  15.454  0.7352  1.1607 -0.7808
 4669TIP3    H235423   1.866   6.123  15.329 -0.0119  0.5070 -0.1708
 4670TIP3   OH235424   0.050   6.039  13.299 -0.0963  0.3100 -0.3573
 4670TIP3    H135425   0.054   5.943  13.292 -0.0737  0.2140  0.8468
 4670TIP3    H235426   0.139   6.065  13.318 -0.4765  0.3599  1.5076
 4671TIP3   OH235427   6.712   2.600  12.366  0.2032 -0.4670  0.4008
 4671TIP3    H135428   6.738   2.521  12.413 -0.6907 -0.9357  0.1476
 4671TIP3    H235429   6.620   2.612  12.390 -0.1146 -0.4059 -0.7934
 4672TIP3   OH235430   4.071   3.756  13.794  0.0718  0.2551  0.2903
 4672TIP3    H135431   4.050   3.720  13.707 -3.1673 -0.2019  1.1021
 4672TIP3    H235432   4.150   3.710  13.820  0.3122 -0.6777 -1.8397
 4673TIP3   OH235433   3.301   4.496  12.046 -0.2781 -0.3054  0.0153
 4673TIP3    H135434   3.243   4.511  12.121 -2.0878 -1.7836 -0.9828
 4673TIP3    H235435   3.350   4.417  12.069 -1.4025 -1.2171 -0.6298
 4674TIP3   OH235436   2.091   5.969   3.414  0.6437  0.1346 -0.1843
 4674TIP3    H135437   2.046   6.054   3.416  0.8057  0.2598  2.6574
 4674TIP3    H235438   2.056   5.925   3.337  0.7804  2.8588 -1.9260
 4675TIP3   OH235439   5.871   1.247  14.272 -0.3111  0.2211 -0.1270
 4675TIP3    H135440   5.842   1.245  14.363  1.1260  2.0873  0.4438
 4675TIP3    H235441   5.790   1.250  14.220 -1.1436 -0.9298  1.0509
 4676TIP3   OH235442   1.591   1.772  11.498  0.1185 -0.3696 -0.6413
 4676TIP3    H135443   1.615   1.864  11.493 -1.9194  0.5642  3.0866
 4676TIP3    H235444   1.500   1.769  11.471 -0.6606 -0.7186  1.7880
 4677TIP3   OH235445   0.422   4.749   4.078 -0.0620  0.2992  0.1710
 4677TIP3    H135446   0.468   4.685   4.022  2.5499  0.2176  2.2177
 4677TIP3    H235447   0.420   4.829   4.026 -0.3132 -0.5183 -1.1274
 4678TIP3   OH235448   5.143   5.570  11.933 -0.4149  0.3782 -0.4665
 4678TIP3    H135449   5.057   5.604  11.958  0.1363  2.2619 -0.9399
 4678TIP3    H235450   5.166   5.621  11.855  0.8491 -0.5636 -0.7331
 4679TIP3   OH235451   0.836   0.094   1.085  0.2801  0.4715  0.2844
 4679TIP3    H135452   0.764   0.131   1.035  1.1233  0.6167 -0.8358
 4679TIP3    H235453   0.839   0.147   1.165 -0.0165  1.2973 -0.2410
 4680TIP3   OH235454   6.391   5.644  12.746 -0.4951  0.0835  0.0660
 4680TIP3    H135455   6.305   5.603  12.749 -1.4817  1.9585 -1.3130
 4680TIP3    H235456   6.386   5.707  12.675  1.8612  0.6400  0.3043
 4681TIP3   OH235457   4.417   4.610   2.913 -0.0502  0.0097 -0.3791
 4681TIP3    H135458   4.474   4.607   2.989 -0.0331 -2.2957 -0.4073
 4681TIP3    H235459   4.338   4.562   2.940 -0.6040  0.3092 -1.3897
 4682TIP3   OH235460   2.175   5.342   1.096 -0.0121 -0.3359 -0.2004
 4682TIP3    H135461   2.085   5.327   1.069  0.2802 -1.6320 -0.5196
 4682TIP3    H235462   2.177   5.317   1.189  0.1522 -0.9189 -0.3575
 4683TIP3   OH235463   4.517   5.699   5.627 -0.3228  0.0228 -0.2465
 4683TIP3    H135464   4.584   5.642   5.665 -0.5166  0.0927  0.2028
 4683TIP3    H235465   4.444   5.640   5.607 -0.1811 -0.0307 -0.6064
 4684TIP3   OH235466   5.003   3.708  15.733  0.0487 -0.1488  0.8037
 4684TIP3    H135467   5.018   3.614  15.722 -0.5629 -0.1708  0.0919
 4684TIP3    H235468   5.002   3.743  15.644 -1.3033  0.2746  0.9601
 4685TIP3   OH235469   4.945   2.662  16.139  0.4557 -0.6458 -0.0536
 4685TIP3    H135470   5.031   2.663  16.096  0.3098 -1.9186 -0.4227
 4685TIP3    H235471   4.962   2.619  16.223  0.1810 -0.9407 -0.1451
 4686TIP3   OH235472   2.932   6.473  10.504  0.1438  0.2973  0.3012
 4686TIP3    H135473   2.975   6.405  10.556 -0.9784  0.7612  1.9239
 4686TIP3    H235474   2.900   6.427  10.426  1.5870 -0.4956  0.1471
 4687TIP3   OH235475   6.389   2.168  12.069 -0.2521 -0.6581 -0.1459
 4687TIP3    H135476   6.304   2.204  12.096  1.3366  1.4889  2.6166
 4687TIP3    H235477   6.395   2.084  12.114 -0.6512 -0.4749  0.2635
 4688TIP3   OH235478   5.218   2.237  16.866  0.5479 -0.0275  0.2662
 4688TIP3    H135479   5.214   2.150  16.826  3.4502 -0.2461  0.2419
 4688TIP3    H235480   5.300   2.274  16.834  0.2392  2.0251  1.6745
 4689TIP3   OH235481   3.281   5.751   1.066 -0.0473 -0.2490  0.2168
 4689TIP3    H135482   3.249   5.661   1.068 -0.5044 -0.2115 -2.4464
 4689TIP3    H235483   3.202   5.805   1.066  0.1514  0.0516 -0.6612
 4690TIP3   OH235484   2.842   3.259  13.095 -0.1510 -0.7723  0.0089
 4690TIP3    H135485   2.877   3.343  13.065 -1.5421 -0.0087  0.4576
 4690TIP3    H235486   2.749   3.262  13.073 -0.0088 -2.7014 -1.0361
 4691TIP3   OH235487   1.710   3.472   0.765 -0.1651 -0.0631  0.3637
 4691TIP3    H135488   1.715   3.476   0.669  0.3982 -0.7235  0.3522
 4691TIP3    H235489   1.617   3.479   0.785 -0.2089  1.1816 -0.1649
 4692TIP3   OH235490   0.091   0.654  15.684 -0.0074  0.3823  0.0365
 4692TIP3    H135491   0.146   0.647  15.762  0.7960  0.6952 -0.4871
 4692TIP3    H235492   0.144   0.704  15.621 -0.8198  0.5448 -0.5481
 4693TIP3   OH235493   6.646   6.621  11.918 -0.1077  0.4166  0.0012
 4693TIP3    H135494   6.586   6.675  11.867  0.0654  1.1843  0.5882
 4693TIP3    H235495   6.713   6.592  11.855 -0.7119  0.1127 -0.5089
 4694TIP3   OH235496   3.025   0.219   4.194 -0.2003  0.3190  0.1463
 4694TIP3    H135497   3.078   0.196   4.270  0.0781 -1.0016 -0.3987
 4694TIP3    H235498   2.946   0.259   4.230 -0.6274 -1.3698  1.2444
 4695TIP3   OH235499   4.352   0.457  13.395  0.6901  0.1400  0.5771
 4695TIP3    H135500   4.409   0.441  13.469 -0.4774 -1.4369  1.1810
 4695TIP3    H235501   4.405   0.435  13.318  1.0104 -0.9807  1.1076
 4696TIP3   OH235502   0.216   3.258  15.389  0.7103  0.3586  0.0571
 4696TIP3    H135503   0.134   3.209  15.402  0.8897  0.3558  1.3383
 4696TIP3    H235504   0.226   3.262  15.294  0.3111 -1.4815 -0.1128
 4697TIP3   OH235505   3.832   5.812  14.097  0.0755  0.4316 -1.0101
 4697TIP3    H135506   3.772   5.761  14.152  0.7984 -0.4484 -1.0098
 4697TIP3    H235507   3.777   5.880  14.058 -0.5188  0.8786  0.5486
 4698TIP3   OH235508   6.730   2.283   1.521  0.3479  0.0425 -0.8512
 4698TIP3    H135509   6.736   2.371   1.484 -2.4274  0.5799 -0.3020
 4698TIP3    H235510   6.819   2.261   1.546  1.7810  1.1091 -4.4510
 4699TIP3   OH235511   3.119   5.167   2.747 -0.5241 -0.1573  0.2644
 4699TIP3    H135512   3.031   5.140   2.775  0.5094 -3.0391  1.0230
 4699TIP3    H235513   3.178   5.123   2.807  1.5227  0.7184 -1.0044
 4700TIP3   OH235514   5.803   6.200  14.534  0.5843 -0.0263 -0.0757
 4700TIP3    H135515   5.825   6.293  14.529 -2.0555  0.6360 -1.7458
 4700TIP3    H235516   5.858   6.158  14.468  0.8685  0.5699 -0.2217
 4701TIP3   OH235517   1.509   3.763  11.608 -0.0049  0.2446 -0.2183
 4701TIP3    H135518   1.452   3.734  11.680 -1.9493  0.3171 -1.6444
 4701TIP3    H235519   1.478   3.851  11.587  1.7007  0.9160 -0.0315
 4702TIP3   OH235520   5.546   2.855   0.676 -0.3224 -0.3994 -0.6910
 4702TIP3    H135521   5.549   2.780   0.735 -0.5099 -0.9194 -1.3302
 4702TIP3    H235522   5.615   2.837   0.612  0.1704  0.3703 -0.3944
 4703TIP3   OH235523   1.474   3.010   1.498  0.2034  0.0614  0.1425
 4703TIP3    H135524   1.517   3.051   1.573  2.2312 -0.0213 -0.9066
 4703TIP3    H235525   1.546   2.977   1.444 -1.2266 -3.0282 -0.1303
 4704TIP3   OH235526   0.084   5.191   1.373 -0.6220 -0.0419 -0.1743
 4704TIP3    H135527   0.071   5.186   1.468  0.1496 -2.3458 -0.1411
 4704TIP3    H235528  -0.005   5.194   1.337 -0.9270  0.3946  0.5744
 4705TIP3   OH235529   2.915   4.728   1.763 -0.1336 -0.3356  0.4353
 4705TIP3    H135530   2.981   4.676   1.718  0.1500 -0.0547  0.5189
 4705TIP3    H235531   2.906   4.686   1.849 -0.1083 -0.4121  0.4007
 4706TIP3   OH235532   0.166   2.537  16.285  0.6171  0.0823 -0.0366
 4706TIP3    H135533   0.252   2.570  16.311  0.4667 -0.0332  0.6017
 4706TIP3    H235534   0.174   2.442  16.290  0.0277  0.0973  1.3978
 4707TIP3   OH235535   5.277   3.562   4.823 -0.6360  0.0031 -0.2226
 4707TIP3    H135536   5.267   3.591   4.913  3.3621  1.6880 -0.1140
 4707TIP3    H235537   5.329   3.481   4.829  0.6353  0.7227 -0.9430
 4708TIP3   OH235538   3.507   4.050  16.617  0.1619 -0.1639 -0.0021
 4708TIP3    H135539   3.477   4.073  16.704 -0.6533 -1.6334  0.1357
 4708TIP3    H235540   3.469   4.117  16.560 -1.4710 -0.6504  0.4640
 4709TIP3   OH235541   3.814   5.779  16.889  0.6528  0.3739  0.0192
 4709TIP3    H135542   3.783   5.712  16.829 -0.7321  0.6625  0.3720
 4709TIP3    H235543   3.757   5.854  16.874  0.8795  0.7772  1.0293
 4710TIP3   OH235544   0.319   2.397   5.883  0.2461 -0.0445  0.4576
 4710TIP3    H135545   0.260   2.450   5.936 -0.4272  0.1127 -0.4273
 4710TIP3    H235546   0.305   2.428   5.793  0.6338 -0.9820  0.0638
 4711TIP3   OH235547   2.022   4.675   2.643  0.2374 -0.3212 -0.2071
 4711TIP3    H135548   2.080   4.600   2.639  0.8030  0.1374 -0.8726
 4711TIP3    H235549   1.949   4.653   2.585 -1.5338 -1.9078  2.4238
 4712TIP3   OH235550   3.473   6.298   4.909 -0.4055 -0.4909 -0.4604
 4712TIP3    H135551   3.386   6.270   4.880 -0.6197  1.0695 -1.4513
 4712TIP3    H235552   3.456   6.346   4.990 -0.1406 -2.3207  0.7373
 4713TIP3   OH235553   6.628   6.066  12.728  0.3132 -0.1237  0.0970
 4713TIP3    H135554   6.623   5.976  12.761  1.8105 -0.1379  0.3570
 4713TIP3    H235555   6.679   6.058  12.647 -0.0489  0.4239 -0.1868
 4714TIP3   OH235556   4.420   0.503  16.121 -0.2045  0.4776 -0.2208
 4714TIP3    H135557   4.337   0.465  16.152  0.5784  1.3431  3.3529
 4714TIP3    H235558   4.488   0.448  16.161  0.9688  1.2846 -1.0308
 4715TIP3   OH235559   0.794   5.872   2.055 -0.3677 -0.6289  0.5015
 4715TIP3    H135560   0.844   5.943   2.095 -0.4695  0.2311 -0.8391
 4715TIP3    H235561   0.756   5.825   2.128  1.5502 -0.6810  1.5261
 4716TIP3   OH235562   5.842   6.715  15.899 -0.9137  0.3255 -0.5138
 4716TIP3    H135563   5.905   6.781  15.871  0.0179 -0.3227 -0.0172
 4716TIP3    H235564   5.896   6.645  15.937 -1.8807 -0.6300 -0.8431
 4717TIP3   OH235565   4.925   6.579  16.351 -0.3823 -0.0559 -0.3053
 4717TIP3    H135566   4.882   6.506  16.306 -2.5408  0.6335  0.4926
 4717TIP3    H235567   4.904   6.566  16.443  3.1604 -0.9226  0.5178
 4718TIP3   OH235568   2.096   5.023   0.289  0.1374  0.7864 -0.0261
 4718TIP3    H135569   2.084   4.930   0.304  1.3350  0.5922 -0.2006
 4718TIP3    H235570   2.191   5.035   0.284 -0.0123  1.9275 -0.5048
 4719TIP3   OH235571   6.663   3.640   5.426 -0.0543 -0.3268 -0.3267
 4719TIP3    H135572   6.694   3.580   5.493  1.3245  0.5806 -0.1153
 4719TIP3    H235573   6.581   3.601   5.395  0.6342 -2.1264  0.0139
 4720TIP3   OH235574   6.547   5.612  12.088 -0.6397  0.1794 -0.3112
 4720TIP3    H135575   6.580   5.602  12.177 -2.3887  0.9215  0.4841
 4720TIP3    H235576   6.617   5.579  12.031 -0.3964 -2.5544  1.4210
 4721TIP3   OH235577   3.401   0.758   3.826 -0.8277  0.2852  0.4989
 4721TIP3    H135578   3.450   0.719   3.754 -0.9091  0.4735  0.3404
 4721TIP3    H235579   3.319   0.789   3.786 -0.6154  0.9325  0.5469
 4722TIP3   OH235580   4.714   4.539   1.206 -0.7484  0.1508 -0.3682
 4722TIP3    H135581   4.727   4.630   1.177 -0.2814  0.3342  0.3753
 4722TIP3    H235582   4.654   4.546   1.280  1.0050  0.1189  1.1230
 4723TIP3   OH235583   2.003   6.474  13.914  0.2737 -0.6306  0.4728
 4723TIP3    H135584   2.021   6.554  13.963  0.7424 -0.1867 -0.3884
 4723TIP3    H235585   2.088   6.430  13.907  0.1364 -0.8929  0.4033
 4724TIP3   OH235586   2.192   3.516  13.755  0.5658  0.5877 -0.7235
 4724TIP3    H135587   2.241   3.508  13.673  1.6578  1.6056 -0.1912
 4724TIP3    H235588   2.232   3.591  13.800  0.5973 -0.4798  1.1367
 4725TIP3   OH235589   1.837   3.104  10.321  0.2633  0.1049 -0.1146
 4725TIP3    H135590   1.779   3.179  10.304 -0.5594 -0.2595  0.9656
 4725TIP3    H235591   1.925   3.139  10.307 -0.1449  1.0532 -0.4277
 4726TIP3   OH235592   3.556   5.813   3.557 -0.4148 -0.2998  0.2705
 4726TIP3    H135593   3.490   5.878   3.582 -0.9168 -0.1014 -1.4118
 4726TIP3    H235594   3.615   5.861   3.499 -1.0573 -1.3949 -1.3873
 4727TIP3   OH235595   5.585   3.281  12.411 -0.3864  0.3058  0.2175
 4727TIP3    H135596   5.586   3.352  12.475  0.7761  1.7963 -1.3480
 4727TIP3    H235597   5.678   3.265  12.392 -0.6697 -1.0397 -0.1170
 4728TIP3   OH235598   5.388   6.319   4.207  0.1895 -0.0049  0.1072
 4728TIP3    H135599   5.450   6.369   4.154  1.7845 -0.8486  1.1309
 4728TIP3    H235600   5.403   6.228   4.183  0.4288 -0.3405  1.4607
 4729TIP3   OH235601   4.637   5.720  10.971 -0.1655 -0.2335  0.1380
 4729TIP3    H135602   4.695   5.645  10.960 -0.1724 -0.3230  0.6763
 4729TIP3    H235603   4.580   5.718  10.894  0.6181 -0.0714 -0.4477
 4730TIP3   OH235604   6.625   5.965   0.563  0.7356 -0.5104 -0.6702
 4730TIP3    H135605   6.567   6.018   0.507  0.4798  0.5924  0.5683
 4730TIP3    H235606   6.571   5.944   0.640  1.4436 -0.9534 -0.2807
 4731TIP3   OH235607   3.137   2.556  16.511  0.1085 -0.2435 -0.0111
 4731TIP3    H135608   3.072   2.552  16.581 -0.6696 -1.6094 -0.7806
 4731TIP3    H235609   3.207   2.498  16.540  1.4331  1.8104  1.1787
 4732TIP3   OH235610   2.640   1.772   4.578  0.4037  0.0830 -0.1618
 4732TIP3    H135611   2.611   1.690   4.618  0.2409  0.4067  0.3871
 4732TIP3    H235612   2.604   1.768   4.489  2.0991 -1.3588 -0.8464
 4733TIP3   OH235613   1.341   3.473  16.109 -0.6416 -0.2515 -0.2854
 4733TIP3    H135614   1.383   3.538  16.052 -0.4274 -0.2706 -0.1491
 4733TIP3    H235615   1.258   3.514  16.134 -1.2688 -0.7134 -1.5252
 4734TIP3   OH235616   6.094   3.912   2.344  0.1807  0.0248  0.1394
 4734TIP3    H135617   6.038   3.836   2.361  0.9136 -0.4837  0.3450
 4734TIP3    H235618   6.080   3.933   2.252 -1.7076  1.0405  0.6181
 4735TIP3   OH235619   5.547   2.517   3.851  0.2959 -0.4766  0.2187
 4735TIP3    H135620   5.612   2.449   3.831 -0.2570 -1.3416  1.2079
 4735TIP3    H235621   5.529   2.504   3.945 -0.7055  0.2682  0.1349
 4736TIP3   OH235622   6.737   1.679   2.511  0.4220 -0.0718 -0.6442
 4736TIP3    H135623   6.800   1.613   2.541  1.6109  1.8686  1.3968
 4736TIP3    H235624   6.660   1.628   2.486  1.6259 -2.2880 -0.1314
 4737TIP3   OH235625   6.585   3.560   3.880 -0.0815  0.1723  0.8359
 4737TIP3    H135626   6.510   3.615   3.905  0.6541  1.5312  0.1699
 4737TIP3    H235627   6.545   3.485   3.835 -1.0360  0.9728  0.3036
 4738TIP3   OH235628   5.250   3.160   2.854  0.1333  0.4597 -0.2423
 4738TIP3    H135629   5.193   3.129   2.784 -0.4385  2.2494 -0.6259
 4738TIP3    H235630   5.339   3.139   2.824 -0.2280 -1.4020 -0.1220
 4739TIP3   OH235631   1.532   4.365   6.116 -0.8300 -0.2730 -0.2638
 4739TIP3    H135632   1.533   4.271   6.132  0.4214  0.0678  2.0617
 4739TIP3    H235633   1.624   4.390   6.111 -1.0541  1.1590  1.6622
 4740TIP3   OH235634   5.973   6.261  12.409 -0.3741  0.0854 -0.4165
 4740TIP3    H135635   6.043   6.195  12.402  0.3753  0.8179 -0.0286
 4740TIP3    H235636   5.915   6.242  12.336  1.7265  1.1511 -2.5143
 4741TIP3   OH235637   0.134   5.994  12.960  0.0390  0.2799  0.2142
 4741TIP3    H135638   0.061   5.935  12.945  2.1560 -1.8495 -3.0264
 4741TIP3    H235639   0.192   5.946  13.019  0.9150 -0.1405 -0.9550
 4742TIP3   OH235640   3.072   4.175   0.370  0.6444 -0.7193  0.0532
 4742TIP3    H135641   3.134   4.230   0.322  0.2007 -1.2706 -1.1900
 4742TIP3    H235642   3.016   4.237   0.417  0.8525 -0.1572 -0.4330
 4743TIP3   OH235643   6.074   0.792  11.060 -0.3408 -0.1618 -0.7847
 4743TIP3    H135644   6.067   0.790  10.964 -0.7841 -1.4682 -0.7495
 4743TIP3    H235645   5.984   0.803  11.090 -0.4568 -1.5767 -0.5211
 4744TIP3   OH235646   1.195   5.528  13.354  0.3908 -0.2320  0.2609
 4744TIP3    H135647   1.102   5.535  13.372  0.0283  0.1688 -1.5475
 4744TIP3    H235648   1.220   5.441  13.384 -0.2923  0.0868  1.8141
 4745TIP3   OH235649   6.008   5.148  15.735 -0.1055 -0.4218 -0.0921
 4745TIP3    H135650   5.948   5.179  15.667  0.6957  1.9908  0.2117
 4745TIP3    H235651   6.072   5.095  15.688 -1.1582 -1.1481 -0.7517
 4746TIP3   OH235652   2.032   5.360   4.328 -0.0291 -0.1519 -0.1555
 4746TIP3    H135653   2.098   5.316   4.275  0.7785  1.5309 -0.6226
 4746TIP3    H235654   1.977   5.406   4.264 -1.5859 -1.3585  0.2355
 4747TIP3   OH235655   2.991   1.129   3.304  0.0644  0.0261  0.6281
 4747TIP3    H135656   3.071   1.176   3.327  0.5304  0.7429 -2.0711
 4747TIP3    H235657   2.923   1.171   3.356  1.0110  1.3883  0.8294
 4748TIP3   OH235658   1.729   4.023   3.364 -0.1001  0.5063 -0.5132
 4748TIP3    H135659   1.645   3.988   3.336 -1.1283  1.4552  1.2060
 4748TIP3    H235660   1.708   4.107   3.405  1.8072  1.2586 -0.9465
 4749TIP3   OH235661   0.961   5.793   5.177  0.0099 -0.0313  0.2689
 4749TIP3    H135662   0.943   5.699   5.170  0.3982 -0.1671  0.9972
 4749TIP3    H235663   1.054   5.801   5.157 -0.1511  0.2826 -0.3957
 4750TIP3   OH235664   6.219   6.115  15.689  0.6831 -0.2972 -0.2113
 4750TIP3    H135665   6.146   6.135  15.631  0.4986 -2.1767 -0.6885
 4750TIP3    H235666   6.286   6.180  15.667 -0.6426  1.1509 -0.0943
 4751TIP3   OH235667   6.456   5.718   4.922 -0.5412  0.0677  0.1982
 4751TIP3    H135668   6.510   5.640   4.937 -0.3406  0.1622 -0.0292
 4751TIP3    H235669   6.510   5.791   4.954 -1.5259 -0.0648  2.3155
 4752TIP3   OH235670   1.320   2.088  11.491  0.0566  0.1789  0.6100
 4752TIP3    H135671   1.265   2.044  11.556  1.1366 -1.0979  0.7190
 4752TIP3    H235672   1.379   2.143  11.543  1.2557 -1.2228  0.8121
 4753TIP3   OH235673   4.774   4.031   0.665  0.3403 -0.3793  0.3793
 4753TIP3    H135674   4.713   4.104   0.662 -1.6694 -1.9694 -1.4472
 4753TIP3    H235675   4.724   3.958   0.701  1.5480 -1.4397  0.0250
 4754TIP3   OH235676   5.128   1.674  11.508  0.4197  0.2406  0.6379
 4754TIP3    H135677   5.077   1.593  11.497 -1.0636  0.9194  2.0626
 4754TIP3    H235678   5.149   1.701  11.419  0.5688 -1.4612  0.1065
 4755TIP3   OH235679   4.577   3.553  12.059  0.4703 -0.2699 -0.1314
 4755TIP3    H135680   4.657   3.602  12.038  0.1709  0.0193 -0.6198
 4755TIP3    H235681   4.519   3.617  12.099  0.2984 -0.3678 -0.2226
 4756TIP3   OH235682   1.378   2.028  13.758  0.0529 -0.1015  0.1354
 4756TIP3    H135683   1.346   2.085  13.688  0.3668  0.9688  0.8385
 4756TIP3    H235684   1.385   2.085  13.834  0.8964 -0.9685  0.7331
 4757TIP3   OH235685   2.228   3.338   1.502  0.4867  0.0428 -0.1106
 4757TIP3    H135686   2.258   3.402   1.567 -0.4357  0.5149 -0.1328
 4757TIP3    H235687   2.138   3.319   1.526  1.0104 -1.9885  0.4414
 4758TIP3   OH235688   1.534   0.134  16.335 -0.3857  0.1347  0.3633
 4758TIP3    H135689   1.534   0.201  16.404 -1.3142  0.8142 -0.2694
 4758TIP3    H235690   1.445   0.136  16.300 -0.1034 -0.6426 -0.4402
 4759TIP3   OH235691   0.547   4.495  13.372  0.1717 -0.0453  0.6232
 4759TIP3    H135692   0.631   4.459  13.402 -0.6017 -0.9308  1.7695
 4759TIP3    H235693   0.526   4.443  13.294  1.2658  1.0181 -0.4391
 4760TIP3   OH235694   6.801   2.330  11.154 -0.2568 -0.5636  0.0916
 4760TIP3    H135695   6.879   2.290  11.192  0.0052 -1.2725 -1.1292
 4760TIP3    H235696   6.832   2.372  11.074 -0.7279  1.2219  0.8031
 4761TIP3   OH235697   2.520   5.471   4.833  0.5939 -0.1753  0.0012
 4761TIP3    H135698   2.453   5.419   4.789 -0.3032  1.6925 -0.9902
 4761TIP3    H235699   2.508   5.454   4.926 -2.2047  1.0755 -0.0366
 4762TIP3   OH235700   0.692   4.531   5.489  0.1932  0.4136  0.0693
 4762TIP3    H135701   0.738   4.537   5.405 -1.4170  1.8578 -0.7946
 4762TIP3    H235702   0.630   4.604   5.487 -2.3640 -1.5872  0.9834
 4763TIP3   OH235703   4.735   3.717  11.848 -0.1546  0.5100 -0.0060
 4763TIP3    H135704   4.737   3.714  11.752  0.1336 -1.0852  0.0335
 4763TIP3    H235705   4.649   3.754  11.868  0.3177  2.1897 -0.8731
 4764TIP3   OH235706   2.669   5.257   1.410  0.3773 -0.5750 -0.3303
 4764TIP3    H135707   2.698   5.337   1.454  1.7295 -0.7082 -0.9406
 4764TIP3    H235708   2.626   5.288   1.330 -0.3681 -0.4103  0.1284
 4765TIP3   OH235709   0.520   1.256  16.208 -0.4091  0.7699  0.3846
 4765TIP3    H135710   0.462   1.261  16.132 -0.0730  0.6060  0.1171
 4765TIP3    H235711   0.470   1.203  16.271 -0.6481  0.8236  0.2447
 4766TIP3   OH235712   4.030   2.317  13.265 -0.3639 -0.4990  0.3000
 4766TIP3    H135713   3.995   2.244  13.214  2.2682 -2.8044  1.4938
 4766TIP3    H235714   4.119   2.328  13.231 -0.6414  2.1208  0.2727
 4767TIP3   OH235715   3.989   4.371   5.619 -0.1500 -0.3287  0.2040
 4767TIP3    H135716   4.042   4.338   5.692 -0.8751 -0.6641  0.5859
 4767TIP3    H235717   3.963   4.459   5.646  0.5394 -0.0072 -0.1605
 4768TIP3   OH235718   6.792   0.043  13.383 -0.0793  0.6797  0.2745
 4768TIP3    H135719   6.797  -0.048  13.414  0.3403 -0.0573 -1.7729
 4768TIP3    H235720   6.869   0.085  13.420  0.6559 -0.2911 -0.0829
 4769TIP3   OH235721   2.369   1.814   3.927  0.1918  0.5000  0.1322
 4769TIP3    H135722   2.460   1.832   3.905  0.3057 -2.1995 -2.1315
 4769TIP3    H235723   2.361   1.840   4.019  3.3037  0.5226  0.5023
 4770TIP3   OH235724   1.656   3.539  11.799  0.0147  0.1127  0.8131
 4770TIP3    H135725   1.700   3.516  11.717 -1.2680  0.3465  0.0186
 4770TIP3    H235726   1.564   3.549  11.774 -1.0625 -3.0391  2.8520
 4771TIP3   OH235727   6.722   4.128   3.258  0.3091 -0.1626 -0.2450
 4771TIP3    H135728   6.701   4.056   3.318 -0.5697 -0.3148 -0.7204
 4771TIP3    H235729   6.739   4.085   3.174 -0.0183  0.1582 -0.4822
 4772TIP3   OH235730   1.852   1.734   5.622 -0.1452  0.0135 -0.0502
 4772TIP3    H135731   1.924   1.678   5.591  1.1171  2.3257 -1.5480
 4772TIP3    H235732   1.778   1.711   5.565  0.9071  1.1132 -1.9550
 4773TIP3   OH235733   2.211   4.392  11.468  0.5549 -0.2545  0.4763
 4773TIP3    H135734   2.286   4.400  11.527  0.4293 -0.4938  0.6774
 4773TIP3    H235735   2.210   4.473  11.418 -2.8135  2.9748  4.8758
 4774TIP3   OH235736   0.688   5.616  16.113  0.3546  0.1290  0.1602
 4774TIP3    H135737   0.780   5.621  16.089  0.0249 -0.4840 -1.3056
 4774TIP3    H235738   0.642   5.598  16.031 -0.9933 -0.3369  0.9818
 4775TIP3   OH235739   6.007   5.564   3.609  0.2983 -0.0883  0.0680
 4775TIP3    H135740   6.035   5.503   3.677 -2.2722 -0.4487  0.8785
 4775TIP3    H235741   5.957   5.631   3.656 -1.0974 -0.0557 -1.3987
 4776TIP3   OH235742   1.421   3.584   2.066  0.8588 -0.1665  0.2750
 4776TIP3    H135743   1.504   3.543   2.089  1.0904 -0.1990 -0.5978
 4776TIP3    H235744   1.443   3.646   1.996 -0.0679 -1.1904 -0.9620
 4777TIP3   OH235745   2.006   5.769  12.822  0.2614 -0.0205  0.0301
 4777TIP3    H135746   1.968   5.681  12.822 -1.9502  0.8760 -0.1175
 4777TIP3    H235747   1.970   5.811  12.900  0.4546  1.0938 -0.4628
 4778TIP3   OH235748   0.670   1.712   4.181  0.0566 -0.3191 -0.2705
 4778TIP3    H135749   0.598   1.680   4.127  0.0337  1.5608 -1.4562
 4778TIP3    H235750   0.658   1.668   4.265 -1.0605 -1.8436 -1.1755
 4779TIP3   OH235751   6.229   6.233   4.409  0.6648  0.1396 -0.1504
 4779TIP3    H135752   6.161   6.167   4.419  0.2257  0.4869 -0.8185
 4779TIP3    H235753   6.195   6.311   4.454 -0.4631  1.0823 -2.4798
 4780TIP3   OH235754   1.869   3.726   2.830  0.0968  0.0594 -0.3272
 4780TIP3    H135755   1.875   3.631   2.820 -0.7539  0.0355 -0.7044
 4780TIP3    H235756   1.777   3.742   2.849  0.2336  0.8117 -0.2790
 4781TIP3   OH235757   5.877   6.142   1.256  0.6192  0.0242 -0.3715
 4781TIP3    H135758   5.826   6.089   1.195 -0.8722 -1.3958  1.9656
 4781TIP3    H235759   5.885   6.227   1.212 -3.8658  0.3913 -0.9722
 4782TIP3   OH235760   4.465   1.730   1.233  0.4667  0.4749 -0.2242
 4782TIP3    H135761   4.513   1.781   1.168  2.3690 -0.0455  0.6991
 4782TIP3    H235762   4.532   1.680   1.279 -1.0720 -0.9600  0.5737
 4783TIP3   OH235763   1.163   3.653  15.591  0.2951  0.3974  0.3097
 4783TIP3    H135764   1.202   3.741  15.588  2.1372 -0.3856  0.0348
 4783TIP3    H235765   1.225   3.598  15.543 -0.3605 -1.2278  1.2590
 4784TIP3   OH235766   6.039   4.473   6.407 -0.3147  0.1883  0.3077
 4784TIP3    H135767   6.051   4.424   6.326 -0.1944  3.0516 -1.5272
 4784TIP3    H235768   5.944   4.478   6.419 -0.3239 -1.3239  1.1229
 4785TIP3   OH235769   1.875   4.628   4.817 -0.6529  0.6505  0.6869
 4785TIP3    H135770   1.939   4.698   4.829 -2.6977  2.3847  2.1170
 4785TIP3    H235771   1.920   4.548   4.845  0.7289  1.8932  2.1433
 4786TIP3   OH235772   6.690   6.556  16.140 -0.2431 -0.0496  0.7510
 4786TIP3    H135773   6.749   6.509  16.082 -1.7641  0.5032 -1.3516
 4786TIP3    H235774   6.620   6.494  16.159 -0.2779  0.1083  1.1598
 4787TIP3   OH235775   4.707   4.223  16.508  0.3568  0.1835  0.4578
 4787TIP3    H135776   4.702   4.262  16.421 -0.7874 -0.6670  0.1157
 4787TIP3    H235777   4.654   4.280  16.563 -1.5419 -0.9723 -0.1004
 4788TIP3   OH235778   3.025   6.795  14.591  0.2035  0.2150  0.2932
 4788TIP3    H135779   2.979   6.715  14.567 -0.7646  0.8617 -0.0848
 4788TIP3    H235780   2.967   6.837  14.655 -0.7482  1.9684 -1.5824
 4789TIP3   OH235781   6.219   2.099   2.405 -0.6977  0.0908  0.3856
 4789TIP3    H135782   6.270   2.142   2.473 -0.1910 -0.4141  0.3321
 4789TIP3    H235783   6.207   2.009   2.436 -0.3394 -0.1835 -0.2458
 4790TIP3   OH235784   3.327   4.892  13.633 -0.4050  0.3396  0.4044
 4790TIP3    H135785   3.417   4.917  13.655 -0.4721  0.3454  0.6816
 4790TIP3    H235786   3.272   4.953  13.683 -0.5708 -0.5834  1.3879
 4791TIP3   OH235787   4.381   2.601   3.981  0.1422 -0.2639 -0.1038
 4791TIP3    H135788   4.387   2.516   3.937 -1.8388 -0.2301 -0.5228
 4791TIP3    H235789   4.441   2.657   3.932  2.5277 -1.6661  0.9803
 4792TIP3   OH235790   6.648   0.129   5.262 -0.6225  0.1952  0.5109
 4792TIP3    H135791   6.714   0.190   5.227 -1.1100  1.1667  1.2590
 4792TIP3    H235792   6.636   0.065   5.192  1.2085 -0.0778  0.4059
 4793TIP3   OH235793   3.439   0.417   1.063  0.0376 -0.1279  0.0393
 4793TIP3    H135794   3.489   0.387   1.139 -0.1586 -1.5365 -0.3524
 4793TIP3    H235795   3.495   0.483   1.021  0.9410 -0.6576  0.3888
 4794TIP3   OH235796   6.681   1.455   4.479 -0.2160  0.3768  0.6408
 4794TIP3    H135797   6.630   1.480   4.402  1.4221  1.0881 -0.2706
 4794TIP3    H235798   6.631   1.384   4.519 -0.7492 -0.5712 -1.5391
 4795TIP3   OH235799   0.156   6.404   5.023  0.1074  0.3607  0.5499
 4795TIP3    H135800   0.172   6.310   5.013 -0.9495  0.2591 -0.3207
 4795TIP3    H235801   0.232   6.436   5.072  1.7607 -0.4878 -1.3121
 4796TIP3   OH235802   0.179   4.515  17.031 -0.5272 -0.1963 -0.5459
 4796TIP3    H135803   0.122   4.537  16.957 -0.3372 -1.4682 -1.1014
 4796TIP3    H235804   0.170   4.420  17.041  1.0726 -0.3601 -0.3147
 4797TIP3   OH235805   4.509   3.207   4.309 -0.3471  0.4821 -0.7615
 4797TIP3    H135806   4.453   3.223   4.233 -0.8872  1.7014 -0.1271
 4797TIP3    H235807   4.515   3.291   4.353  0.7295  0.0067  0.0402
 4798TIP3   OH235808   3.214   2.202  12.782 -0.5622  0.1847  0.3460
 4798TIP3    H135809   3.254   2.116  12.798 -1.5116 -0.3534 -0.0738
 4798TIP3    H235810   3.192   2.201  12.689  0.5040  1.3718  0.0597
 4799TIP3   OH235811   4.479   6.793   0.539 -0.0669  0.2234  0.4063
 4799TIP3    H135812   4.474   6.849   0.616  0.7524 -0.2581  0.8191
 4799TIP3    H235813   4.550   6.732   0.558  0.9486  0.8507 -1.2311
 4800TIP3   OH235814   1.030   2.570   1.618  0.3150  1.0527  0.7910
 4800TIP3    H135815   1.026   2.625   1.540  1.6835  0.2551  0.1065
 4800TIP3    H235816   1.068   2.625   1.686 -1.0319  1.8013  0.9659
 4801TIP3   OH235817   0.138   0.202  11.876 -0.1048 -0.1383 -0.3545
 4801TIP3    H135818   0.183   0.143  11.938 -1.8407 -0.8968  0.2474
 4801TIP3    H235819   0.158   0.166  11.790  2.8760  1.2941 -0.3837
 4802TIP3   OH235820   4.799   0.585   2.959 -0.3371  0.4585  0.4231
 4802TIP3    H135821   4.713   0.621   2.979 -0.7398 -0.0328 -0.3868
 4802TIP3    H235822   4.796   0.495   2.991 -0.5749  0.0430 -0.7082
 4803TIP3   OH235823   3.545   4.330   5.374  0.1210 -0.2037 -0.4298
 4803TIP3    H135824   3.483   4.276   5.421 -0.3532  0.0465 -0.7545
 4803TIP3    H235825   3.629   4.314   5.417 -0.4236  0.6359  1.0304
 4804TIP3   OH235826   6.651   2.103  13.945  0.2643 -0.0921 -0.3539
 4804TIP3    H135827   6.673   2.165  13.876 -1.7005 -0.4257 -1.3565
 4804TIP3    H235828   6.603   2.033  13.900  0.2946 -1.1034  1.1198
 4805TIP3   OH235829   5.435   2.848   2.740 -0.0127 -0.0678  0.5397
 4805TIP3    H135830   5.449   2.819   2.649  0.3773  1.2287  0.1662
 4805TIP3    H235831   5.474   2.778   2.793 -0.3148 -0.8802 -0.2805
 4806TIP3   OH235832   5.748   1.064  13.772 -0.2046 -0.6452 -0.3245
 4806TIP3    H135833   5.833   1.028  13.744 -0.6728 -1.5818 -0.5701
 4806TIP3    H235834   5.683   1.007  13.732 -1.0190  0.9590 -1.4154
 4807TIP3   OH235835   4.874   6.679   0.275 -0.0899  0.6464  0.0731
 4807TIP3    H135836   4.865   6.723   0.190  0.8652 -1.6379 -1.2992
 4807TIP3    H235837   4.900   6.589   0.253  1.2533  0.2623  2.8329
 4808TIP3   OH235838   4.953   5.486   5.768 -0.2743  0.5614 -0.0916
 4808TIP3    H135839   4.969   5.537   5.689 -2.5135 -0.9810 -1.6684
 4808TIP3    H235840   5.017   5.415   5.764  1.4777  1.9988  1.0320
 4809TIP3   OH235841   2.495   0.928   5.245 -0.0400  0.2733  0.3536
 4809TIP3    H135842   2.446   0.847   5.259 -1.9044  0.7266 -2.6870
 4809TIP3    H235843   2.440   0.980   5.187  2.3658  2.5350 -0.0942
 4810TIP3   OH235844   1.732   4.781  11.521 -0.5333  0.3095  0.3921
 4810TIP3    H135845   1.785   4.741  11.453  1.8594  4.4581 -0.5515
 4810TIP3    H235846   1.648   4.800  11.479 -0.2569 -0.0946 -0.3431
 4811TIP3   OH235847   4.298   1.590   6.489 -0.8744 -0.1250 -0.3738
 4811TIP3    H135848   4.364   1.520   6.485 -1.2822 -0.4409 -1.8074
 4811TIP3    H235849   4.215   1.544   6.504 -1.4240 -0.1690 -3.1306
 4812TIP3   OH235850   2.323   5.072   4.244 -0.0197  0.3364 -0.1893
 4812TIP3    H135851   2.316   5.116   4.329  2.4113 -0.1623  0.3240
 4812TIP3    H235852   2.301   4.981   4.263  2.2554 -0.1645  0.3648
 4813TIP3   OH235853   0.497   1.453  12.171 -0.1527  0.5226 -0.3735
 4813TIP3    H135854   0.483   1.423  12.261  1.2926  0.6489 -0.0947
 4813TIP3    H235855   0.565   1.519  12.178  0.7588 -0.2499 -1.6973
 4814TIP3   OH235856   1.738   3.080   4.963 -0.3014  0.0421 -0.8409
 4814TIP3    H135857   1.816   3.059   4.912  0.9594  1.4952  0.3782
 4814TIP3    H235858   1.723   3.173   4.945  0.5060  0.7506  1.7331
 4815TIP3   OH235859   0.623   4.797  17.034  0.6734  0.0166  0.1193
 4815TIP3    H135860   0.530   4.789  17.014 -0.0675  1.6814  2.4849
 4815TIP3    H235861   0.653   4.871  16.981 -0.7205  2.9320  3.0672
 4816TIP3   OH235862   3.095   1.783   3.282  0.0338  0.4048 -0.8966
 4816TIP3    H135863   3.181   1.744   3.268  0.2519  0.7076 -0.4215
 4816TIP3    H235864   3.033   1.712   3.263  0.3913  0.1332 -1.0560
 4817TIP3   OH235865   1.345   0.570   2.496  0.1918 -0.3324 -0.0227
 4817TIP3    H135866   1.337   0.634   2.425 -0.9191  1.8916  1.9525
 4817TIP3    H235867   1.259   0.529   2.501 -0.2947  0.7456  1.0448
 4818TIP3   OH235868   4.019   5.048   0.584 -0.0565  0.0388 -0.0894
 4818TIP3    H135869   4.093   5.109   0.584 -0.8397  1.0283 -0.9112
 4818TIP3    H235870   3.974   5.065   0.667 -0.5393  0.9450 -0.5210
 4819TIP3   OH235871   2.576   3.264  11.290  0.1493  0.2804  0.3464
 4819TIP3    H135872   2.600   3.289  11.201 -0.8125  2.2135  0.5791
 4819TIP3    H235873   2.484   3.240  11.284  0.6117 -1.6623  0.4724
 4820TIP3   OH235874   6.336   4.366  11.073 -0.1874  0.0549 -0.2188
 4820TIP3    H135875   6.267   4.432  11.074 -2.6108 -2.3082 -0.0902
 4820TIP3    H235876   6.321   4.316  10.992  0.2595 -1.5907  0.6630
 4821TIP3   OH235877   2.141   1.272   1.054 -0.4531 -0.2209 -0.0997
 4821TIP3    H135878   2.173   1.188   1.086  1.0092  0.6885  0.9999
 4821TIP3    H235879   2.128   1.325   1.133  1.2542  1.4308 -0.8308
 4822TIP3   OH235880   4.904   1.670  16.922  0.4100 -0.1596 -0.3275
 4822TIP3    H135881   4.931   1.614  16.849  0.6880 -1.3290  0.6460
 4822TIP3    H235882   4.920   1.618  17.000  0.9093  1.3824  0.6475
 4823TIP3   OH235883   1.201   3.241   3.516 -0.3950 -0.4110  0.2707
 4823TIP3    H135884   1.136   3.309   3.531 -0.7161 -0.5223 -0.5723
 4823TIP3    H235885   1.270   3.284   3.464 -0.7482 -0.8010 -0.5304
 4824TIP3   OH235886   1.197   0.971   3.258 -0.0481 -0.2279  0.5411
 4824TIP3    H135887   1.254   0.995   3.331 -0.1841  0.8383  0.3130
 4824TIP3    H235888   1.221   0.881   3.238  1.0448 -0.0447  0.9410
 4825TIP3   OH235889   6.415   4.286   0.042  0.8373 -0.0513 -0.0018
 4825TIP3    H135890   6.415   4.381   0.034  1.4384 -0.1738 -1.6584
 4825TIP3    H235891   6.491   4.266   0.097 -1.0264  0.5531  3.0525
 4826TIP3   OH235892   2.830   2.572   2.431 -0.2871  0.8930 -0.1051
 4826TIP3    H135893   2.860   2.581   2.522  1.1247  2.5296 -0.6760
 4826TIP3    H235894   2.800   2.481   2.425  0.5108  0.4568  1.7386
 4827TIP3   OH235895   6.135   0.717  13.404  0.6346 -0.3920 -0.4576
 4827TIP3    H135896   6.088   0.634  13.408  0.5549 -0.3239  0.2596
 4827TIP3    H235897   6.155   0.730  13.312 -2.6671  0.6479 -1.1524
 4828TIP3   OH235898   0.089   0.667   6.261  0.7760 -0.1229  0.0177
 4828TIP3    H135899   0.069   0.616   6.182  0.8429  1.1833 -0.8625
 4828TIP3    H235900   0.037   0.747   6.252 -0.1105 -0.4238  1.8650
 4829TIP3   OH235901   0.956   2.863  11.061  0.2501  0.3731 -0.3073
 4829TIP3    H135902   0.969   2.830  10.972 -1.2902 -0.4108 -0.2733
 4829TIP3    H235903   1.040   2.902  11.085  0.5009  1.1569 -2.3230
 4830TIP3   OH235904   1.933   1.818   3.308 -0.3695 -0.0928  0.5699
 4830TIP3    H135905   1.909   1.737   3.353 -0.0460  0.0448  0.9829
 4830TIP3    H235906   1.870   1.883   3.339 -0.8469 -0.2581 -0.0185
 4831TIP3   OH235907   3.766   3.538   5.726 -0.2816 -0.3785  0.2349
 4831TIP3    H135908   3.727   3.593   5.794  0.0691 -1.1347  1.0797
 4831TIP3    H235909   3.788   3.598   5.655  2.8675  1.1473  2.2853
 4832TIP3   OH235910   3.070   0.138   0.952  0.3172 -0.0037  0.3390
 4832TIP3    H135911   2.988   0.176   0.921 -0.3535 -1.2191  0.5289
 4832TIP3    H235912   3.047   0.047   0.971  1.5315 -0.1557  1.1406
 4833TIP3   OH235913   3.984   5.141  13.222  0.6401 -0.0409 -0.2286
 4833TIP3    H135914   3.989   5.051  13.254 -2.7162 -0.8145 -1.4177
 4833TIP3    H235915   4.047   5.189  13.275  1.1591 -2.7264  1.8093
 4834TIP3   OH235916   0.548   5.519   5.803  0.3143 -0.1557  0.0464
 4834TIP3    H135917   0.626   5.544   5.752  0.6433 -1.4494 -0.1229
 4834TIP3    H235918   0.549   5.424   5.802 -1.5034 -0.2026 -0.2842
 4835TIP3   OH235919   4.669   5.361   0.421 -0.5063  0.2578  0.1331
 4835TIP3    H135920   4.604   5.430   0.438 -0.9095 -0.3615  1.1739
 4835TIP3    H235921   4.741   5.381   0.481 -0.0968  0.4423 -0.4090
 4836TIP3   OH235922   5.570   4.012   0.874 -0.2112  0.8757 -0.1965
 4836TIP3    H135923   5.640   3.964   0.830 -0.4876  1.7405 -1.6704
 4836TIP3    H235924   5.527   3.947   0.930 -0.0941 -0.4164 -1.5380
 4837TIP3   OH235925   4.014   3.756  13.521  0.0747 -0.4846  0.3055
 4837TIP3    H135926   3.972   3.671  13.505  0.1767 -0.9556  2.3153
 4837TIP3    H235927   3.957   3.818  13.477 -0.1005 -1.5556 -1.0649
 4838TIP3   OH235928   3.723   5.631   5.917  0.4700 -0.3169  0.2243
 4838TIP3    H135929   3.713   5.588   5.832 -1.0750  0.5760 -0.0751
 4838TIP3    H235930   3.634   5.641   5.950  0.9176  1.0215  1.0996
 4839TIP3   OH235931   4.268   0.709  15.432  0.3873 -0.3488 -0.5520
 4839TIP3    H135932   4.210   0.738  15.502  0.5029  0.3626 -0.7396
 4839TIP3    H235933   4.246   0.617  15.419 -2.4994  0.4734 -2.3526
 4840TIP3   OH235934   2.093   3.398  16.058  0.0690  0.4405  0.0019
 4840TIP3    H135935   2.019   3.379  15.999  0.3291  0.6808 -0.4097
 4840TIP3    H235936   2.117   3.488  16.037  0.6285  0.2864 -0.0253
 4841TIP3   OH235937   2.647   5.949   4.877  0.0039 -0.7756 -0.9552
 4841TIP3    H135938   2.626   5.957   4.970  0.7717  1.3704 -0.9063
 4841TIP3    H235939   2.572   5.903   4.839  0.0990 -2.5194  0.8430
 4842TIP3   OH235940   2.896   4.343   0.514 -0.3305  0.0142  0.0062
 4842TIP3    H135941   2.924   4.315   0.601 -0.9115  0.6903  0.4183
 4842TIP3    H235942   2.880   4.437   0.522 -0.2434  0.1177 -0.8721
 4843TIP3   OH235943   3.170   2.721   4.506 -0.1285  0.3079  0.0445
 4843TIP3    H135944   3.162   2.629   4.529 -0.5923  0.6203  1.1729
 4843TIP3    H235945   3.108   2.732   4.433  1.0262 -0.5818 -1.1195
 4844TIP3   OH235946   0.843   5.620   1.426 -0.2387 -0.9539 -0.0407
 4844TIP3    H135947   0.901   5.680   1.377 -1.1611 -0.2236 -0.2678
 4844TIP3    H235948   0.818   5.670   1.504  1.2172 -2.1106  1.2289
 4845TIP3   OH235949   3.895   5.767   2.804  0.0233  0.8445 -0.0726
 4845TIP3    H135950   3.869   5.851   2.767 -1.9076  0.1390 -0.4863
 4845TIP3    H235951   3.942   5.723   2.733 -2.4517  0.0503 -1.3303
 4846TIP3   OH235952   6.409   4.872   4.056 -0.2697 -0.2214 -0.7521
 4846TIP3    H135953   6.404   4.901   3.965 -1.8166  2.6692  0.1484
 4846TIP3    H235954   6.501   4.884   4.080  0.0395 -0.5083 -1.7420
 4847TIP3   OH235955   3.100   5.542   3.042 -0.0152 -0.1708  0.2808
 4847TIP3    H135956   3.135   5.602   2.975  1.1937  0.0582  1.0931
 4847TIP3    H235957   3.060   5.599   3.107 -1.1456 -0.3917 -0.2099
 4848TIP3   OH235958   6.342   2.462  10.423 -0.1477  0.0295 -0.6222
 4848TIP3    H135959   6.356   2.530  10.357 -1.2781  0.8553 -0.0245
 4848TIP3    H235960   6.427   2.417  10.428  0.7551  1.6398 -0.7280
 4849TIP3   OH235961   6.787   2.060   1.201  0.3284  0.0426  0.6907
 4849TIP3    H135962   6.866   2.112   1.185 -0.5645  1.5071  0.7903
 4849TIP3    H235963   6.747   2.101   1.279 -0.9701 -0.0820  0.1245
 4850TIP3   OH235964   1.101   4.114   2.076 -0.4167 -0.7227 -0.2700
 4850TIP3    H135965   1.078   4.029   2.037  1.7373 -1.2792 -0.5043
 4850TIP3    H235966   1.172   4.147   2.021  0.0491  0.3464  0.9110
 4851TIP3   OH235967   2.037   1.185   1.886  0.1146 -0.4793  0.4405
 4851TIP3    H135968   1.942   1.179   1.894  0.1635  0.0813  1.5624
 4851TIP3    H235969   2.071   1.129   1.955  0.5996 -0.2423  0.3986
 4852TIP3   OH235970   2.355   6.488   5.156  0.8011 -0.3985 -0.0570
 4852TIP3    H135971   2.431   6.486   5.215  0.8878  2.1248  0.0121
 4852TIP3    H235972   2.287   6.534   5.205  0.8822  1.8223 -1.8771
 4853TIP3   OH235973   5.057   5.356   3.471 -0.2391 -0.1913  0.0620
 4853TIP3    H135974   5.075   5.377   3.563 -0.0326 -0.6344  0.1276
 4853TIP3    H235975   5.056   5.260   3.469 -0.7364 -0.1787 -0.3081
 4854TIP3   OH235976   4.602   2.026  16.660  0.3684 -0.7375 -0.4504
 4854TIP3    H135977   4.620   2.113  16.697 -0.6598 -0.8960  0.4807
 4854TIP3    H235978   4.652   1.966  16.714 -0.2588 -0.8732 -0.0188
 4855TIP3   OH235979   1.682   5.217  10.728 -0.4932  0.2950 -0.2999
 4855TIP3    H135980   1.770   5.221  10.767  0.2349 -0.7480 -1.7346
 4855TIP3    H235981   1.643   5.139  10.766 -0.1740 -0.1383 -0.8382
 4856TIP3   OH235982   6.383   6.323  13.278  0.5133 -0.3923 -0.3574
 4856TIP3    H135983   6.353   6.236  13.251  0.7317 -1.1056  1.5634
 4856TIP3    H235984   6.320   6.383  13.238 -0.6564 -1.5498 -0.3374
 4857TIP3   OH235985   6.490   2.789   0.540  0.6486  0.4147 -0.5039
 4857TIP3    H135986   6.462   2.726   0.606  0.6652  1.0207  0.0914
 4857TIP3    H235987   6.458   2.874   0.572  0.6628  0.7143 -1.2680
 4858TIP3   OH235988   3.377   2.139   1.244  0.3283 -0.1916  0.6815
 4858TIP3    H135989   3.407   2.181   1.163 -1.1434 -2.5278 -1.2200
 4858TIP3    H235990   3.285   2.163   1.251  0.2321 -0.6871  1.1975
 4859TIP3   OH235991   6.451   1.127  12.819  0.5658  0.1875  0.0116
 4859TIP3    H135992   6.514   1.102  12.887  0.2310 -0.9660 -0.0878
 4859TIP3    H235993   6.368   1.139  12.867  0.6220  0.7062 -0.0087
 4860TIP3   OH235994   3.675   5.701  15.434 -0.0720 -0.0608  0.4885
 4860TIP3    H135995   3.594   5.657  15.458 -1.7867  1.8683 -1.3455
 4860TIP3    H235996   3.665   5.719  15.340  2.0479  1.1490  0.4413
 4861TIP3   OH235997   2.368   1.504  12.488  0.1051 -0.0209  0.0150
 4861TIP3    H135998   2.442   1.524  12.431 -0.4029 -0.9252 -0.9998
 4861TIP3    H235999   2.319   1.586  12.494  0.2721  0.1393 -0.7222
 4862TIP3   OH236000   3.620   6.061   1.998 -0.3971  0.3363 -0.3941
 4862TIP3    H136001   3.531   6.027   2.008 -0.3323 -0.2041 -1.4816
 4862TIP3    H236002   3.614   6.152   2.026 -1.0720  0.0404  0.4573
 4863TIP3   OH236003   2.407   4.703   1.928  0.9333  0.8148 -0.0136
 4863TIP3    H136004   2.450   4.780   1.966  1.1298  1.3994 -1.3771
 4863TIP3    H236005   2.477   4.658   1.880  0.7570 -0.0836  0.5487
 4864TIP3   OH236006   3.176   0.923   1.372 -0.2882  0.6162 -0.3338
 4864TIP3    H136007   3.110   0.972   1.422 -1.4856  0.2843 -1.5320
 4864TIP3    H236008   3.255   0.976   1.378 -1.6277  2.9494 -1.9074
 4865TIP3   OH236009   6.020   4.989  11.047 -0.7467  0.5545  0.1374
 4865TIP3    H136010   6.111   5.014  11.029  0.0682 -1.4082  1.1665
 4865TIP3    H236011   6.026   4.931  11.124 -2.7783 -0.2972 -0.2704
 4866TIP3   OH236012   2.445   4.267   3.630  0.1882 -0.1075 -0.1939
 4866TIP3    H136013   2.427   4.239   3.540  0.1731 -0.4919 -0.0735
 4866TIP3    H236014   2.532   4.307   3.625 -0.2955  0.9176 -0.5977
 4867TIP3   OH236015   4.786   5.746  16.121 -0.3554  0.1033  0.3351
 4867TIP3    H136016   4.848   5.769  16.052  0.5100 -1.4772  0.5371
 4867TIP3    H236017   4.840   5.705  16.189 -1.1464  1.7622  2.0720
 4868TIP3   OH236018   4.986   5.986  15.136  0.2706 -0.0053  0.5754
 4868TIP3    H136019   5.078   6.010  15.144  0.4635 -0.4262 -0.2568
 4868TIP3    H236020   4.940   6.044  15.197  0.9809  0.8395  0.3225
 4869TIP3   OH236021   6.008   2.442  10.612  0.4305  0.5239 -0.4585
 4869TIP3    H136022   5.990   2.360  10.659  1.9010  0.7125  0.5018
 4869TIP3    H236023   5.951   2.438  10.535 -0.9619 -0.4853  0.5711
 4870TIP3   OH236024   4.764   0.460   6.009 -0.2595  0.2314 -0.4693
 4870TIP3    H136025   4.760   0.367   6.031 -1.0340  0.2283 -0.6082
 4870TIP3    H236026   4.689   0.499   6.054 -1.4555  0.3561 -2.4451
 4871TIP3   OH236027   5.061   2.666   3.777  0.0196 -0.2529 -0.6779
 4871TIP3    H136028   5.123   2.629   3.840  1.5994  0.1243 -1.9672
 4871TIP3    H236029   5.109   2.670   3.695 -0.8088  2.5483 -1.1352
 4872TIP3   OH236030   0.322   1.311  16.445  0.4422 -0.4947 -0.4713
 4872TIP3    H136031   0.397   1.301  16.503 -0.9394  2.7870  2.2107
 4872TIP3    H236032   0.303   1.405  16.445 -2.0586 -0.8269 -3.2190
 4873TIP3   OH236033   5.365   5.738  14.258 -0.5667  0.6648  0.0722
 4873TIP3    H136034   5.344   5.650  14.290  0.1204 -0.1982 -1.7154
 4873TIP3    H236035   5.335   5.796  14.327 -1.1957 -0.9620  1.2357
 4874TIP3   OH236036   6.318   5.644  12.347 -0.0735 -0.4716 -0.5676
 4874TIP3    H136037   6.381   5.581  12.382  0.8904 -0.4992 -2.2179
 4874TIP3    H236038   6.339   5.648  12.254 -1.2164  1.0442 -0.7886
 4875TIP3   OH236039   5.183   6.321  15.690 -0.2989  0.1174  0.0223
 4875TIP3    H136040   5.103   6.338  15.641  0.2428  0.5305 -0.7500
 4875TIP3    H236041   5.197   6.226  15.683  0.7074  0.3597 -2.1883
 4876TIP3   OH236042   4.594   0.500   3.881  0.2244 -0.5835  0.1988
 4876TIP3    H136043   4.644   0.427   3.846  0.1313 -0.9946  0.9093
 4876TIP3    H236044   4.535   0.525   3.809 -1.1801 -2.5352  0.5882
 4877TIP3   OH236045   1.047   6.722   2.504  0.2694 -0.6222  0.0872
 4877TIP3    H136046   1.003   6.736   2.588 -2.2462 -0.6002 -1.1658
 4877TIP3    H236047   1.014   6.639   2.473  1.1891 -0.6372 -0.9100
 4878TIP3   OH236048   5.924   1.077   6.374  0.2550  0.3711 -0.4429
 4878TIP3    H136049   5.913   1.139   6.302 -1.8639 -0.0608 -0.5506
 4878TIP3    H236050   6.005   1.030   6.352  0.9253  1.8558 -1.2830
 4879TIP3   OH236051   3.448   2.162   1.853 -0.1683 -0.0843 -0.4005
 4879TIP3    H136052   3.400   2.193   1.930  1.3260 -1.5656  1.2459
 4879TIP3    H236053   3.518   2.108   1.890  0.6470 -0.8017 -2.8355
 4880TIP3   OH236054   5.173   0.525   5.299  0.5917  0.0757 -0.5345
 4880TIP3    H136055   5.132   0.470   5.366  1.0319  0.4105  0.0170
 4880TIP3    H236056   5.204   0.464   5.233  2.4351 -0.5031  0.7971
 4881TIP3   OH236057   0.389   0.142   5.948  0.6122 -0.3521 -0.4345
 4881TIP3    H136058   0.347   0.069   5.995 -0.6176 -0.4550 -1.6227
 4881TIP3    H236059   0.477   0.110   5.928  1.2205 -0.2792  1.7932
 4882TIP3   OH236060   6.738   1.943  16.892  0.3552  0.5167 -0.2466
 4882TIP3    H136061   6.786   1.862  16.873  1.6727  0.9417  1.0230
 4882TIP3    H236062   6.797   1.992  16.950 -2.6883 -0.1752  3.9294
 4883TIP3   OH236063   3.728   2.250   4.108 -0.9110 -0.3168  0.3241
 4883TIP3    H136064   3.665   2.321   4.114 -0.0054  0.6965 -1.2937
 4883TIP3    H236065   3.811   2.293   4.086 -0.3821 -1.8505 -0.9410
 4884TIP3   OH236066   3.421   4.863   0.503 -0.3720 -0.0369 -0.5908
 4884TIP3    H136067   3.370   4.823   0.433  0.9435 -1.4402 -0.7878
 4884TIP3    H236068   3.507   4.821   0.498 -0.1664 -0.0508  1.7363
 4885TIP3   OH236069   5.835   0.056  13.828  0.0873  0.1108 -0.7326
 4885TIP3    H136070   5.745   0.047  13.858  0.0815  0.1418 -0.7401
 4885TIP3    H236071   5.858   0.147  13.848  0.1815  0.0471 -0.5515
 4886TIP3   OH236072   2.520   0.441   3.589  0.3461  0.0897  0.0197
 4886TIP3    H136073   2.594   0.388   3.560  1.1011  1.2070 -0.1756
 4886TIP3    H236074   2.452   0.378   3.611  1.5906 -1.0134  0.8741
 4887TIP3   OH236075   3.543   1.315  13.495 -0.5250  0.3787 -0.3486
 4887TIP3    H136076   3.499   1.231  13.494  0.2714 -0.0392 -1.3285
 4887TIP3    H236077   3.478   1.376  13.530 -1.2119 -0.5750  0.0630
 4888TIP3   OH236078   2.774   2.453   4.149  0.0859 -0.2695  0.3357
 4888TIP3    H136079   2.858   2.458   4.104 -0.5904 -1.3888 -1.1534
 4888TIP3    H236080   2.758   2.541   4.181  1.6752  0.0290  0.3793
 4889TIP3   OH236081   0.480   4.514  13.847  0.0544  0.0889 -0.0038
 4889TIP3    H136082   0.523   4.535  13.764  0.0058 -1.7264 -0.5206
 4889TIP3    H236083   0.538   4.552  13.914  0.7876  0.4396 -0.8177
 4890TIP3   OH236084   5.598   6.200   2.994  0.2360  0.1011  0.1285
 4890TIP3    H136085   5.505   6.179   3.000  0.4065 -1.0683 -0.9129
 4890TIP3    H236086   5.610   6.233   2.904  0.9663 -0.5636 -0.0281
 4891TIP3   OH236087   1.517   3.326  13.847 -0.2073  0.0340  0.0656
 4891TIP3    H136088   1.592   3.311  13.790 -0.4462  0.7110 -0.4360
 4891TIP3    H236089   1.551   3.378  13.920 -0.2933  0.7936 -0.4304
 4892TIP3   OH236090   2.270   1.746  11.087  0.5470  0.2948  0.2155
 4892TIP3    H136091   2.344   1.694  11.118  0.8680 -0.0276 -1.0082
 4892TIP3    H236092   2.270   1.733  10.992 -1.5147 -0.2728  0.2453
 4893TIP3   OH236093   4.751   3.005   0.330 -0.2204  0.4848 -0.4556
 4893TIP3    H136094   4.707   3.090   0.339 -0.5614  0.2084  0.7496
 4893TIP3    H236095   4.784   3.004   0.240 -0.0754  1.9531 -0.4450
 4894TIP3   OH236096   0.451   2.201  12.377 -0.1486  0.3024 -0.4691
 4894TIP3    H136097   0.393   2.232  12.446  0.6084  0.0500  0.3040
 4894TIP3    H236098   0.538   2.231  12.404  0.0808  0.7022 -1.6209
 4895TIP3   OH236099   0.298   2.674   2.940  0.4127  0.1132 -0.2368
 4895TIP3    H136100   0.262   2.588   2.962 -1.2359 -0.0343 -3.1063
 4895TIP3    H236101   0.244   2.706   2.869  2.1170  2.7809 -0.4890
 4896TIP3   OH236102   6.337   4.902   3.795 -0.2335 -0.1143 -0.1843
 4896TIP3    H136103   6.309   4.852   3.718  0.3536  0.4583 -0.7821
 4896TIP3    H236104   6.256   4.941   3.828 -0.1444  2.4333 -2.5458
 4897TIP3   OH236105   2.364   3.525   0.855 -0.3112 -0.1407 -0.5475
 4897TIP3    H136106   2.358   3.519   0.951 -0.3018  0.4035 -0.5108
 4897TIP3    H236107   2.381   3.618   0.838  2.6302 -0.6520 -0.9254
 4898TIP3   OH236108   6.280   1.694  13.652  0.1394  0.0217  0.1506
 4898TIP3    H136109   6.362   1.665  13.693 -0.3233 -1.2649  0.2182
 4898TIP3    H236110   6.213   1.635  13.688 -1.1477  2.1538  1.4242
 4899TIP3   OH236111   6.108   6.243   1.460 -0.1213  0.1985  0.2063
 4899TIP3    H136112   6.191   6.284   1.434  0.8137 -2.1186 -0.7765
 4899TIP3    H236113   6.043   6.282   1.402  0.4256  1.4685  0.4275
 4900TIP3   OH236114   5.172   4.043  17.171 -0.1262  0.2005 -0.1466
 4900TIP3    H136115   5.125   4.072  17.250 -0.3849 -0.5598 -0.0158
 4900TIP3    H236116   5.264   4.043  17.197 -0.2092 -0.0512  0.1572
 4901TIP3   OH236117   6.129   0.070   2.237  0.1467 -0.0701 -0.5188
 4901TIP3    H136118   6.126  -0.023   2.217  1.0656  0.2356 -2.2100
 4901TIP3    H236119   6.147   0.074   2.331 -0.1610 -1.5825 -0.3737
 4902TIP3   OH236120   2.157   4.431   1.078 -0.3889  1.0747  0.4481
 4902TIP3    H136121   2.216   4.356   1.067 -1.1398  0.4036  0.8319
 4902TIP3    H236122   2.104   4.407   1.154 -0.1350  2.3435  1.0479
 4903TIP3   OH236123   5.712   1.969  10.576  1.1348  0.2160  0.5384
 4903TIP3    H136124   5.700   1.921  10.494 -1.0641 -1.1620  1.5738
 4903TIP3    H236125   5.766   1.912  10.630 -0.0566 -0.3857  1.1457
 4904TIP3   OH236126   5.556   0.294  16.388  0.1032  0.4007 -0.1279
 4904TIP3    H136127   5.496   0.221  16.372  1.0871 -0.5851  0.5640
 4904TIP3    H236128   5.633   0.273  16.335 -0.3950  2.0420 -1.6266
 4905TIP3   OH236129   3.950   2.117  15.910 -0.3713 -1.1027  0.0238
 4905TIP3    H136130   3.956   2.209  15.936  0.3250 -1.6064  1.7655
 4905TIP3    H236131   3.857   2.102  15.892 -0.2919  0.3292 -1.9687
 4906TIP3   OH236132   1.370   1.363   3.740  0.1731  0.4369  0.0335
 4906TIP3    H136133   1.348   1.269   3.734 -0.4790  0.6623 -1.9295
 4906TIP3    H236134   1.349   1.397   3.653 -1.4977  2.8160  1.2676
 4907TIP3   OH236135   3.857   4.208  13.666 -0.1372  0.0180  0.3997
 4907TIP3    H136136   3.822   4.175  13.584 -1.7408 -1.8115  1.7404
 4907TIP3    H236137   3.950   4.224  13.648 -0.7420  1.0486 -2.1122
 4908TIP3   OH236138   0.714   4.816   2.187 -0.0477  0.0288  0.2045
 4908TIP3    H136139   0.696   4.782   2.100  0.3416  0.3025  0.0126
 4908TIP3    H236140   0.678   4.905   2.187 -0.2763 -0.0639  0.4071
 4909TIP3   OH236141   2.233   2.299   4.525 -0.1589 -0.4743 -0.7348
 4909TIP3    H136142   2.211   2.210   4.498  1.3652 -0.3815 -2.5138
 4909TIP3    H236143   2.296   2.288   4.596  0.6800 -0.8712 -1.5152
 4910TIP3   OH236144   5.810   1.250  11.262 -0.2842 -0.2796  0.2559
 4910TIP3    H136145   5.857   1.319  11.310 -0.6291 -0.0550  0.2775
 4910TIP3    H236146   5.718   1.270  11.277 -0.4080  0.0346 -0.8399
 4911TIP3   OH236147   1.884   0.141  11.467 -0.3693 -0.0945 -0.9887
 4911TIP3    H136148   1.945   0.132  11.394 -0.2519 -0.4515 -0.8497
 4911TIP3    H236149   1.914   0.076  11.531 -0.0576  0.6972 -0.3260
 4912TIP3   OH236150   4.757   5.759   2.119  0.7535 -0.1493  0.2963
 4912TIP3    H136151   4.808   5.774   2.199 -0.9593 -0.8789  1.5878
 4912TIP3    H236152   4.714   5.843   2.103  0.9425 -0.0595  0.2508
 4913TIP3   OH236153   6.131   3.650  13.923 -0.3229 -0.2492 -0.9102
 4913TIP3    H136154   6.100   3.740  13.917  2.0180  0.6984 -0.1505
 4913TIP3    H236155   6.155   3.639  14.015  3.4619 -0.0643 -1.7035
 4914TIP3   OH236156   3.359   5.978  11.114 -0.3981 -0.0487 -0.2434
 4914TIP3    H136157   3.362   6.051  11.052 -0.6444 -0.0029 -0.2044
 4914TIP3    H236158   3.427   5.918  11.084 -1.7099 -0.9145 -1.6818
 4915TIP3   OH236159   3.323   0.679  14.947  0.7191 -0.3991  0.0351
 4915TIP3    H136160   3.417   0.682  14.929  0.7944 -0.2610  0.4540
 4915TIP3    H236161   3.302   0.764  14.984  0.3931 -0.3709 -0.2039
 4916TIP3   OH236162   0.751   2.102   5.659 -0.2859 -0.2690 -0.4023
 4916TIP3    H136163   0.733   2.055   5.740 -0.2059 -0.1104 -0.2930
 4916TIP3    H236164   0.669   2.148   5.640 -2.0538 -3.8869 -2.8816
 4917TIP3   OH236165   5.708   5.084   1.104  0.2915  0.5129 -0.4501
 4917TIP3    H136166   5.701   5.172   1.140 -1.1792  0.4006 -0.4107
 4917TIP3    H236167   5.779   5.090   1.039  0.3805  1.6442 -0.2621
 4918TIP3   OH236168   4.016   5.776  13.698  0.1988  0.3516 -0.7067
 4918TIP3    H136169   3.927   5.801  13.676 -0.5852 -1.9123 -0.3613
 4918TIP3    H236170   4.065   5.784  13.616 -0.9146 -0.7270 -1.4998
 4919TIP3   OH236171   5.691   0.678  14.536  0.0061  0.2793  0.0219
 4919TIP3    H136172   5.726   0.708  14.620 -1.6291  0.6471  0.6123
 4919TIP3    H236173   5.720   0.745  14.474  2.1104 -0.5324  0.0484
 4920TIP3   OH236174   4.799   3.517  16.954  0.5210  1.0121  0.3208
 4920TIP3    H136175   4.746   3.579  16.904 -0.0161 -0.8905 -1.6502
 4920TIP3    H236176   4.849   3.469  16.887  0.3297 -1.1781  1.6558
 4921TIP3   OH236177   2.919   5.885   2.702 -0.3153 -0.0464 -0.1559
 4921TIP3    H136178   2.996   5.914   2.653  1.0701 -0.2130  1.7731
 4921TIP3    H236179   2.894   5.802   2.662  0.0017  0.4141 -1.3330
 4922TIP3   OH236180   5.095   2.780  14.903  0.1609  0.1275  0.4749
 4922TIP3    H136181   5.156   2.741  14.840  1.4143  0.6764  1.3175
 4922TIP3    H236182   5.077   2.711  14.967 -0.2902 -0.0985  0.1148
 4923TIP3   OH236183   3.289   3.397  10.760  0.3708 -0.0142 -0.3217
 4923TIP3    H136184   3.337   3.321  10.727 -1.5132 -1.3352 -0.1940
 4923TIP3    H236185   3.224   3.360  10.820  2.1022  2.0906  3.1364
 4924TIP3   OH236186   2.489   5.079  10.946 -0.0990 -0.1465  0.4381
 4924TIP3    H136187   2.472   5.137  10.871 -1.8701 -1.2700 -0.0830
 4924TIP3    H236188   2.582   5.055  10.936 -0.1986 -0.0054 -1.2383
 4925TIP3   OH236189   3.883   6.286   1.875  0.1878  0.2157  0.1133
 4925TIP3    H136190   3.954   6.343   1.848 -0.1107  0.9609  0.8520
 4925TIP3    H236191   3.803   6.334   1.851 -0.0726 -0.4916 -0.4673
 4926TIP3   OH236192   0.088   0.730  11.154  0.2374  0.2929 -0.7009
 4926TIP3    H136193   0.040   0.793  11.101 -1.6135 -1.1957 -0.8786
 4926TIP3    H236194   0.124   0.668  11.091  1.8901  1.0039 -0.5114
 4927TIP3   OH236195   2.134   5.723   3.702 -0.2357 -0.0406  0.0225
 4927TIP3    H136196   2.213   5.700   3.652 -0.0678  0.1821  0.1828
 4927TIP3    H236197   2.063   5.717   3.638  0.1215  1.3546 -0.5523
 4928TIP3   OH236198   6.363   1.030  15.988  0.1045  0.3528  0.7244
 4928TIP3    H136199   6.375   0.986  16.073 -0.6812  2.6826  2.1448
 4928TIP3    H236200   6.268   1.033  15.977  0.1598 -2.8847 -1.9994
 4929TIP3   OH236201   5.869   0.158   1.005  0.7899 -0.1888 -0.2292
 4929TIP3    H136202   5.835   0.169   1.094  0.1431 -0.9142 -0.3833
 4929TIP3    H236203   5.792   0.143   0.951  0.9907  1.9237 -1.2304
 4930TIP3   OH236204   3.726   2.787   4.539 -0.1003  0.0224 -0.3904
 4930TIP3    H136205   3.699   2.725   4.607  0.2284 -0.9863 -1.1530
 4930TIP3    H236206   3.660   2.776   4.471  0.0710  0.3749 -0.6099
 4931TIP3   OH236207   0.031   5.135  15.874  0.0876 -0.5209 -0.1832
 4931TIP3    H136208  -0.039   5.102  15.930 -0.2159  0.5321  0.0642
 4931TIP3    H236209   0.073   5.204  15.925 -1.2011  1.5760 -1.8304
 4932TIP3   OH236210   6.623   5.893  16.565  0.3501  0.5971  0.0028
 4932TIP3    H136211   6.551   5.916  16.624  1.6714  2.0758  1.1084
 4932TIP3    H236212   6.584   5.832  16.503 -1.3421 -0.3076  1.8331
 4933TIP3   OH236213   0.289   6.166  11.295 -0.0091  0.0199  0.6416
 4933TIP3    H136214   0.317   6.252  11.264 -1.2020 -0.1441 -1.0485
 4933TIP3    H236215   0.257   6.182  11.383  0.8792  1.0823  0.7947
 4934TIP3   OH236216   3.333   0.209   3.946 -0.1834  0.2664 -0.5255
 4934TIP3    H136217   3.354   0.156   4.023 -0.7554 -0.7601 -1.0441
 4934TIP3    H236218   3.417   0.224   3.903 -0.1764 -1.9190 -1.4126
 4935TIP3   OH236219   0.145   0.183   5.812  0.2728 -0.2979  0.1695
 4935TIP3    H136220   0.124   0.146   5.726  0.1715  0.1457 -0.0028
 4935TIP3    H236221   0.228   0.142   5.836  0.2806 -0.4587 -0.1251
 4936TIP3   OH236222   0.649   6.685  12.995  0.1220 -0.4052 -0.3553
 4936TIP3    H136223   0.677   6.613  13.052 -0.9190  2.3028  4.0626
 4936TIP3    H236224   0.723   6.745  12.996  0.0564 -0.2742 -1.9645
 4937TIP3   OH236225   6.240   0.524  12.662 -0.5216  0.0284 -0.3767
 4937TIP3    H136226   6.191   0.445  12.685  1.0850 -0.7465  0.4998
 4937TIP3    H236227   6.260   0.565  12.746  3.1688 -1.4626 -0.3503
 4938TIP3   OH236228   0.324   4.046  14.405  0.5512  0.1372 -0.2481
 4938TIP3    H136229   0.265   3.972  14.420 -0.9187  1.0321 -1.3630
 4938TIP3    H236230   0.322   4.059  14.310  1.6693  0.9042 -0.1743
 4939TIP3   OH236231   6.757   4.234   3.504  0.4921  0.0695  0.5781
 4939TIP3    H136232   6.719   4.321   3.507  1.0785  0.3100  1.0101
 4939TIP3    H236233   6.760   4.212   3.410  2.4713  1.4633  0.2530
 4940TIP3   OH236234   1.252   6.373   3.765  0.2630  0.1341 -0.4127
 4940TIP3    H136235   1.274   6.293   3.813 -0.4044 -0.4475 -1.0399
 4940TIP3    H236236   1.202   6.342   3.690 -1.2644  1.2625  0.1001
 4941TIP3   OH236237   1.001   3.868  14.552  0.3003  0.5080 -0.0250
 4941TIP3    H136238   0.938   3.845  14.484  1.7348  1.2769 -1.6805
 4941TIP3    H236239   1.023   3.785  14.594 -0.0652 -0.0848 -0.9783
 4942TIP3   OH236240   2.522   4.622   4.968 -0.1497  0.2727  0.8195
 4942TIP3    H136241   2.604   4.664   4.942 -0.4575  1.9976  2.4046
 4942TIP3    H236242   2.517   4.635   5.062 -1.8575 -0.5100  0.8788
 4943TIP3   OH236243   0.680   1.892   1.480 -0.6460  0.2839 -0.2437
 4943TIP3    H136244   0.622   1.831   1.527 -0.5563 -0.3871 -0.9854
 4943TIP3    H236245   0.627   1.925   1.408  0.4123 -1.8631 -2.1532
 4944TIP3   OH236246   5.081   3.256  15.025 -0.6959 -0.0661 -0.9239
 4944TIP3    H136247   5.043   3.173  14.996 -0.6728  0.1718 -1.6733
 4944TIP3    H236248   5.022   3.287  15.093 -1.0380 -0.3990 -1.0635
 4945TIP3   OH236249   4.726   1.947   1.622 -0.9063  0.0502  0.1616
 4945TIP3    H136250   4.695   1.871   1.672 -0.3766 -0.3654 -0.1293
 4945TIP3    H236251   4.767   2.004   1.688  1.3775 -1.3121  0.0152
 4946TIP3   OH236252   4.672   4.654   2.723 -0.0986  0.0826 -0.6914
 4946TIP3    H136253   4.677   4.711   2.799 -0.2886 -0.0139 -0.6066
 4946TIP3    H236254   4.753   4.673   2.674  0.2335 -0.1743 -0.2485
 4947TIP3   OH236255   0.022   5.065  10.951 -0.2958  0.0177  0.0494
 4947TIP3    H136256   0.117   5.050  10.953 -0.2305 -0.0041 -1.7670
 4947TIP3    H236257   0.011   5.148  10.997  0.4643 -0.5166  1.2554
 4948TIP3   OH236258   4.869   6.763   2.987 -0.1742  1.0005 -0.1203
 4948TIP3    H136259   4.791   6.785   3.037  1.1976  0.9913  2.1513
 4948TIP3    H236260   4.941   6.775   3.048  1.4614 -0.7637 -1.5761
 4949TIP3   OH236261   0.942   3.577  11.528  0.3062 -0.0754  0.5330
 4949TIP3    H136262   0.982   3.506  11.477 -0.7747 -0.7059  0.5371
 4949TIP3    H236263   0.868   3.605  11.475 -1.6342 -1.6149  2.2804
 4950TIP3   OH236264   2.484   6.488  14.164 -0.1079  0.2958  0.0562
 4950TIP3    H136265   2.451   6.578  14.170 -1.5271 -0.0360 -1.8393
 4950TIP3    H236266   2.488   6.470  14.070 -0.9826 -2.0111  0.3893
 4951TIP3   OH236267   3.085   6.149   6.009  0.3117 -0.3578 -0.5914
 4951TIP3    H136268   3.017   6.121   5.947 -0.9833  0.0215  0.6158
 4951TIP3    H236269   3.077   6.090   6.083  1.1277 -0.1302 -0.3039
 4952TIP3   OH236270   4.269   5.049   0.368  0.2320  0.0561 -0.0597
 4952TIP3    H136271   4.351   5.097   0.379  0.4178 -0.7977  2.8894
 4952TIP3    H236272   4.201   5.111   0.394  0.3798 -0.7666  2.4900
 4953TIP3   OH236273   0.028   3.517  13.674 -0.0034 -0.2577  0.0256
 4953TIP3    H136274   0.055   3.429  13.645 -0.9830 -0.3000 -0.8198
 4953TIP3    H236275  -0.067   3.511  13.682 -0.0836  0.7416 -0.0951
 4954TIP3   OH236276   1.603   1.428   2.609 -0.1083  0.0764  0.0734
 4954TIP3    H136277   1.698   1.423   2.606 -0.0145  1.7187 -0.9974
 4954TIP3    H236278   1.574   1.355   2.554  0.5504 -0.0454 -0.1241
 4955TIP3   OH236279   3.341   5.897  14.517 -0.0047 -0.4387  0.0893
 4955TIP3    H136280   3.272   5.934  14.463  1.2316  0.8150 -0.7065
 4955TIP3    H236281   3.398   5.971  14.538  0.4544 -1.2019  1.7552
 4956TIP3   OH236282   0.265   0.376   2.531 -0.0527 -0.4729  0.3354
 4956TIP3    H136283   0.217   0.434   2.591  0.8882  0.8738 -0.1744
 4956TIP3    H236284   0.199   0.346   2.468 -0.8373 -1.0889  1.4066
 4957TIP3   OH236285   4.913   5.280   2.597 -0.1076  0.1111  0.2086
 4957TIP3    H136286   4.888   5.263   2.688 -0.1884 -1.1226 -0.0269
 4957TIP3    H236287   4.974   5.209   2.576 -1.6296 -0.8049 -1.3235
 4958TIP3   OH236288   4.424   5.238   4.655 -0.4917 -0.5456  0.1803
 4958TIP3    H136289   4.403   5.321   4.699 -1.7918 -0.0934 -1.2336
 4958TIP3    H236290   4.418   5.173   4.725  0.8598  0.5488  1.3875
 4959TIP3   OH236291   4.351   5.898   5.755  0.0425 -0.6304 -0.0292
 4959TIP3    H136292   4.422   5.866   5.700  0.1777 -0.4379  0.0310
 4959TIP3    H236293   4.394   5.956   5.818 -0.0613 -1.1329  0.5155
 4960TIP3   OH236294   5.608   0.849  15.644 -0.7959  0.0295  0.0587
 4960TIP3    H136295   5.651   0.931  15.670  2.1257 -1.0437 -0.9564
 4960TIP3    H236296   5.569   0.869  15.559 -1.2864  0.6862  0.4233
 4961TIP3   OH236297   2.341   3.124  12.619  0.5274 -0.0318  0.6357
 4961TIP3    H136298   2.332   3.216  12.642  3.4882  0.5713 -0.1279
 4961TIP3    H236299   2.352   3.080  12.703  1.8681  0.7629  0.9092
 4962TIP3   OH236300   3.927   4.799   3.899  0.2132  0.0029  0.0064
 4962TIP3    H136301   3.933   4.892   3.918  0.6306 -0.1992  0.9347
 4962TIP3    H236302   3.833   4.781   3.897  0.1244  0.5082 -0.5524
 4963TIP3   OH236303   6.697   5.767   2.087  0.1083 -0.1268  0.2464
 4963TIP3    H136304   6.622   5.826   2.085  0.4837  0.4443 -3.0613
 4963TIP3    H236305   6.659   5.679   2.093 -0.7599  0.2198 -0.0358
 4964TIP3   OH236306   2.647   5.461   3.039 -0.8471  0.2487  0.1333
 4964TIP3    H136307   2.601   5.421   3.114 -0.5178  2.1775  1.4422
 4964TIP3    H236308   2.725   5.499   3.077  0.3626 -0.4068 -1.5832
 4965TIP3   OH236309   1.770   6.298  11.069  0.0647 -0.2389 -0.1121
 4965TIP3    H136310   1.848   6.310  11.123  0.4828  1.7942 -1.0758
 4965TIP3    H236311   1.712   6.242  11.122  0.9929  0.5486  1.8353
 4966TIP3   OH236312   4.018   6.323  12.541  0.4298 -0.1173  0.5732
 4966TIP3    H136313   4.106   6.302  12.574 -0.4176 -1.2585  2.2513
 4966TIP3    H236314   4.025   6.311  12.446  1.7016 -1.7990  0.8308
 4967TIP3   OH236315   6.747   0.036  13.123 -0.1177  0.1397 -0.1675
 4967TIP3    H136316   6.764   0.050  13.216 -0.1363  1.5685 -0.3463
 4967TIP3    H236317   6.833   0.019  13.085 -0.1276 -0.5900  0.1235
 4968TIP3   OH236318   5.050   3.944   4.257  0.2369 -0.1921 -0.2689
 4968TIP3    H136319   5.119   3.884   4.229 -0.1237 -0.4743 -0.5630
 4968TIP3    H236320   5.096   4.024   4.281  0.8177 -0.8429  0.9047
 4969TIP3   OH236321   1.193   6.178  15.278  0.5405  0.5742  0.1958
 4969TIP3    H136322   1.244   6.256  15.253  1.3676  0.3771  1.1613
 4969TIP3    H236323   1.146   6.205  15.357  0.3164  0.2907  0.1610
 4970TIP3   OH236324   0.711   2.688  12.005 -0.4168  0.0556  0.6191
 4970TIP3    H136325   0.760   2.659  12.081 -0.6079  0.5471  0.9422
 4970TIP3    H236326   0.632   2.728  12.042 -0.3773  0.5542  0.1786
 4971TIP3   OH236327   2.371   2.777   0.509 -0.0893  0.0554  0.5991
 4971TIP3    H136328   2.278   2.760   0.519 -0.1383 -1.0814 -1.2417
 4971TIP3    H236329   2.413   2.693   0.526  0.4576  0.1967  0.0093
 4972TIP3   OH236330   4.043   2.064   3.976  0.0751 -0.0774 -0.3867
 4972TIP3    H136331   4.056   2.092   4.067  2.3161  2.0390 -1.2779
 4972TIP3    H236332   4.047   1.968   3.980 -1.1418 -0.1151  1.8611
 4973TIP3   OH236333   3.709   0.462   4.425 -0.6502 -0.4315  0.1090
 4973TIP3    H136334   3.723   0.404   4.351 -0.0459 -0.3902  0.1853
 4973TIP3    H236335   3.763   0.539   4.406 -0.1019 -0.6292  0.8208
 4974TIP3   OH236336   0.338   0.574   0.200  0.1685 -0.0348  0.0047
 4974TIP3    H136337   0.248   0.591   0.172  0.2066  0.9126  0.4173
 4974TIP3    H236338   0.363   0.493   0.155 -0.3174  0.5933 -1.4469
 4975TIP3   OH236339   1.368   2.491  14.717  0.7456  0.6457  0.2509
 4975TIP3    H136340   1.457   2.522  14.697  0.5564  0.0377 -1.6817
 4975TIP3    H236341   1.361   2.407  14.672 -0.8957  0.7879  0.1768
 4976TIP3   OH236342   4.032   4.924  13.420 -0.3711 -0.1832 -0.2919
 4976TIP3    H136343   4.024   4.939  13.514 -0.2147  0.3852 -0.3622
 4976TIP3    H236344   4.040   4.829  13.410  0.8290 -0.1702  0.3620
 4977TIP3   OH236345   4.301   6.163  14.896  0.2517 -0.2636  0.1170
 4977TIP3    H136346   4.248   6.214  14.834 -0.4127 -0.3413  0.6155
 4977TIP3    H236347   4.377   6.220  14.914  0.2738 -0.0931 -0.4938
 4978TIP3   OH236348   4.695   6.680  11.280 -0.2822  0.1411  0.8425
 4978TIP3    H136349   4.760   6.675  11.210 -0.7700 -1.4913  0.4523
 4978TIP3    H236350   4.629   6.616  11.255 -1.5781  1.1054  1.7109
 4979TIP3   OH236351   0.865   6.422  15.800 -0.0723 -0.1733  0.2081
 4979TIP3    H136352   0.852   6.385  15.712  0.0448  0.7430 -0.2012
 4979TIP3    H236353   0.786   6.474  15.816  0.3138  0.3967  0.2717
 4980TIP3   OH236354   3.368   5.376   5.118 -0.6117  0.2911 -0.1893
 4980TIP3    H136355   3.297   5.349   5.060 -1.2343  0.2009  0.5970
 4980TIP3    H236356   3.325   5.428   5.186 -0.0448 -0.3523  0.6951
 4981TIP3   OH236357   6.326   3.276  13.692  0.0416 -0.1383 -0.3856
 4981TIP3    H136358   6.307   3.182  13.701  1.2840 -0.4630 -0.9893
 4981TIP3    H236359   6.362   3.284  13.604  0.4858  0.8276 -0.1199
 4982TIP3   OH236360   2.981   1.773   1.697 -0.3452  0.4649  0.2536
 4982TIP3    H136361   2.895   1.774   1.739 -0.6490  1.2492 -0.3587
 4982TIP3    H236362   3.013   1.863   1.706  0.5338  0.1121  0.7148
 4983TIP3   OH236363   3.735   0.210  12.698 -0.0334  0.4313  0.1210
 4983TIP3    H136364   3.757   0.301  12.720 -1.1788  0.7792 -0.0548
 4983TIP3    H236365   3.639   0.208  12.702 -0.0142 -0.8207  0.2764
 4984TIP3   OH236366   3.339   1.932   1.739  0.1248  0.1962 -0.2576
 4984TIP3    H136367   3.359   2.022   1.764  0.6785 -0.0750  0.3074
 4984TIP3    H236368   3.330   1.935   1.644  3.2489  0.3045 -0.6550
 4985TIP3   OH236369   3.133   2.148  10.962 -0.0531  0.4177 -0.1167
 4985TIP3    H136370   3.051   2.186  10.931 -0.0843 -0.5365 -1.2573
 4985TIP3    H236371   3.110   2.058  10.988  0.3338  0.6269  1.0015
 4986TIP3   OH236372   4.243   0.465   0.592 -0.0751  0.7375 -0.2526
 4986TIP3    H136373   4.148   0.459   0.602 -0.1397 -3.1440 -1.6910
 4986TIP3    H236374   4.276   0.468   0.682 -1.5111 -0.6611  0.3629
 4987TIP3   OH236375   1.229   0.962  12.973  0.5645 -0.0921  0.3047
 4987TIP3    H136376   1.145   0.996  13.005  0.6853  2.7970 -2.0896
 4987TIP3    H236377   1.205   0.891  12.913 -0.1949  0.6718 -0.3170
 4988TIP3   OH236378   4.716   0.159   0.516 -0.1640  0.3556 -0.0795
 4988TIP3    H136379   4.706   0.231   0.578 -0.4563  0.7785 -0.6156
 4988TIP3    H236380   4.629   0.149   0.477  0.0439  0.1588 -0.4932
 4989TIP3   OH236381   1.018   0.814   4.830  0.3952  0.0276  0.0833
 4989TIP3    H136382   1.061   0.794   4.746  4.4991  2.4705  1.3071
 4989TIP3    H236383   1.039   0.740   4.886  2.6620  0.8671  0.4502
 4990TIP3   OH236384   4.432   5.160  16.942  0.4559 -0.1170  0.1479
 4990TIP3    H136385   4.457   5.094  17.007  0.5121  0.7231  0.9939
 4990TIP3    H236386   4.431   5.242  16.990 -0.1375  0.4325 -0.7726
 4991TIP3   OH236387   3.260   0.186  13.654 -0.3979  0.1223 -0.5396
 4991TIP3    H136388   3.221   0.225  13.732  2.9831  2.1659  0.3384
 4991TIP3    H236389   3.201   0.212  13.583 -1.7049  1.2536  0.8807
 4992TIP3   OH236390   2.564   4.938  16.423  0.1772 -0.4287  0.2013
 4992TIP3    H136391   2.656   4.964  16.416  0.6050 -1.8820  0.0080
 4992TIP3    H236392   2.527   4.997  16.489  0.8677  1.1182 -0.7416
 4993TIP3   OH236393   3.505   3.513  15.260 -0.0913 -0.2132 -0.1734
 4993TIP3    H136394   3.421   3.555  15.243  0.5272  1.4901  0.7353
 4993TIP3    H236395   3.570   3.579  15.236  0.9615 -1.1155  0.1356
 4994TIP3   OH236396   3.969   2.353   3.984  0.3838  0.1789 -0.2664
 4994TIP3    H136397   3.980   2.287   3.915 -2.1116 -0.3603 -0.2372
 4994TIP3    H236398   3.965   2.436   3.936  0.3716 -0.0117 -0.6023
 4995TIP3   OH236399   1.512   5.279   5.589  0.3222 -0.4879 -0.2333
 4995TIP3    H136400   1.556   5.194   5.593  1.1586 -0.1373 -1.4362
 4995TIP3    H236401   1.464   5.277   5.506  0.6882  0.3645 -0.4756
 4996TIP3   OH236402   4.132   6.298   3.894 -0.4281 -0.1145  0.2297
 4996TIP3    H136403   4.078   6.332   3.965 -1.0778  0.4531 -0.5132
 4996TIP3    H236404   4.208   6.356   3.891 -0.4507 -0.0765  0.3826
 4997TIP3   OH236405   5.148   6.694   3.855  0.4178  0.0907  0.1300
 4997TIP3    H136406   5.088   6.662   3.788  1.2500  1.7172 -1.4512
 4997TIP3    H236407   5.114   6.779   3.880  1.5489  0.6445 -0.1481
 4998TIP3   OH236408   6.566   1.625   0.943  0.0484 -0.0313  0.4274
 4998TIP3    H136409   6.544   1.546   0.895 -2.0779  1.0272 -0.4775
 4998TIP3    H236410   6.625   1.673   0.885  0.8625 -0.6546  0.7238
 4999TIP3   OH236411   0.356   3.865  15.212 -0.2678  0.3016  0.3428
 4999TIP3    H136412   0.389   3.905  15.292 -0.8582  1.9881 -0.2103
 4999TIP3    H236413   0.358   3.936  15.147 -0.0759 -0.9402 -1.0669
 5000TIP3   OH236414   2.299   1.272  16.037  0.0152 -0.1044  0.4525
 5000TIP3    H136415   2.244   1.204  16.074  0.0749  0.8244  2.4207
 5000TIP3    H236416   2.388   1.247  16.061  0.4751 -1.2952 -2.1999
 5001TIP3   OH236417   6.594   4.905  14.982  0.4689  0.0080 -0.0520
 5001TIP3    H136418   6.536   4.977  15.008  0.8499  0.4292 -0.3428
 5001TIP3    H236419   6.607   4.854  15.062 -1.6010 -1.0474 -0.3141
 5002TIP3   OH236420   0.979   1.838   5.705  0.1677 -0.0666 -0.2168
 5002TIP3    H136421   1.008   1.922   5.741  0.7040  0.1701 -1.1577
 5002TIP3    H236422   0.982   1.778   5.779  1.3824  0.3730  0.1199
 5003TIP3   OH236423   2.113   4.851   1.053  0.1398 -0.4519 -0.0589
 5003TIP3    H136424   2.172   4.778   1.073 -0.9883 -1.0259  1.2866
 5003TIP3    H236425   2.148   4.887   0.971  2.5498 -0.5567  0.8289
 5004TIP3   OH236426   4.276   1.449   5.931  0.1954 -0.2075 -0.5162
 5004TIP3    H136427   4.268   1.520   5.995  0.2074 -1.3552  0.8050
 5004TIP3    H236428   4.280   1.494   5.847  0.5370  1.3777  0.2933
 5005TIP3   OH236429   4.084   3.600  16.602  0.3938  0.1682 -0.1349
 5005TIP3    H136430   4.037   3.518  16.588  1.8875 -0.6357 -0.6593
 5005TIP3    H236431   4.025   3.652  16.657 -1.3362 -0.5539 -1.2200
 5006TIP3   OH236432   4.337   4.438  13.982 -0.7250 -0.0581 -0.5343
 5006TIP3    H136433   4.243   4.454  13.976 -0.6829 -0.0091 -1.1235
 5006TIP3    H236434   4.366   4.489  14.057 -1.3529 -0.9327  0.3231
 5007TIP3   OH236435   0.722   3.022  15.181  0.2050  0.1602  0.3048
 5007TIP3    H136436   0.718   3.115  15.158  0.5452  0.2284  0.5095
 5007TIP3    H236437   0.756   3.021  15.271  1.9672 -0.2189 -0.3212
 5008TIP3   OH236438   5.188   6.046  15.677  0.0672  0.0175 -0.1634
 5008TIP3    H136439   5.109   5.992  15.686  1.0984 -1.4275  0.7099
 5008TIP3    H236440   5.223   6.024  15.591 -0.6230  0.8926 -0.6824
 5009TIP3   OH236441   4.778   1.499   0.569  0.9892 -0.1353  0.3486
 5009TIP3    H136442   4.685   1.476   0.561  0.8016 -0.4086  2.6186
 5009TIP3    H236443   4.810   1.501   0.479 -0.1673 -4.4741 -0.4021
 5010TIP3   OH236444   3.201   0.520   1.155  0.5595 -0.5482  0.1405
 5010TIP3    H136445   3.161   0.438   1.182  0.4262 -0.6759 -0.4294
 5010TIP3    H236446   3.282   0.494   1.110  1.4815 -0.2792  1.5745
 5011TIP3   OH236447   6.524   6.569  12.494  0.3427 -0.1440 -0.3445
 5011TIP3    H136448   6.512   6.663  12.478  0.5538 -0.0671 -0.0726
 5011TIP3    H236449   6.437   6.537  12.517  0.3953  0.1323  0.2721
 5012TIP3   OH236450   5.250   3.738   5.655  0.0326  0.2592  0.0066
 5012TIP3    H136451   5.278   3.829   5.665  0.1191  0.0351  2.1843
 5012TIP3    H236452   5.173   3.730   5.712  0.8209 -1.3511  0.9205
 5013TIP3   OH236453   2.396   6.471  14.725 -0.7005  0.2566 -0.3225
 5013TIP3    H136454   2.365   6.432  14.807 -0.9108  0.9493 -0.0733
 5013TIP3    H236455   2.329   6.535  14.701 -2.5782 -2.3932 -2.9627
 5014TIP3   OH236456   4.751   0.929  16.093  0.2344  0.2765 -0.3451
 5014TIP3    H136457   4.705   0.845  16.092 -4.8295  2.6739 -1.2390
 5014TIP3    H236458   4.743   0.961  16.183 -0.6968  1.0333 -0.6710
 5015TIP3   OH236459   5.789   2.802   4.669  0.1047 -0.6073  0.1783
 5015TIP3    H136460   5.761   2.892   4.655  1.4963 -0.0424  0.7816
 5015TIP3    H236461   5.816   2.772   4.582 -0.3281 -0.4392 -0.0171
 5016TIP3   OH236462   5.173   3.373   5.740 -0.2941  0.3013  0.0224
 5016TIP3    H136463   5.130   3.413   5.665  1.4497 -0.3581 -1.4172
 5016TIP3    H236464   5.124   3.292   5.756 -0.2761  0.1122 -0.8510
 5017TIP3   OH236465   4.679   3.705   4.591 -0.1124  0.4034 -0.2711
 5017TIP3    H136466   4.606   3.758   4.624  0.1178  0.4391  0.1773
 5017TIP3    H236467   4.756   3.761   4.599 -0.1474  0.6670 -1.5063
 5018TIP3   OH236468   4.367   5.045  14.728  0.2466  0.4121  0.1441
 5018TIP3    H136469   4.299   5.103  14.694  0.8103  2.2832  2.0448
 5018TIP3    H236470   4.319   4.970  14.763 -0.6566  0.7285 -0.3796
 5019TIP3   OH236471   2.219   3.241  14.209  0.1626 -0.9247  0.2120
 5019TIP3    H136472   2.174   3.283  14.283  3.5454  1.8967  0.8911
 5019TIP3    H236473   2.244   3.313  14.152  2.7416 -2.3794 -0.6541
 5020TIP3   OH236474   5.331   5.774  14.948 -0.7001  0.3932 -0.3179
 5020TIP3    H136475   5.316   5.865  14.925  2.4901  0.9218 -0.6447
 5020TIP3    H236476   5.420   5.771  14.983 -0.7824 -2.5560 -0.0320
 5021TIP3   OH236477   6.379   1.966   4.464  0.3003 -0.1231  0.3895
 5021TIP3    H136478   6.422   1.890   4.504  0.8185 -1.9791 -3.2722
 5021TIP3    H236479   6.445   2.035   4.465  0.6639 -0.4689  1.6461
 5022TIP3   OH236480   5.484   0.458   2.849 -0.4787  0.2341  0.1919
 5022TIP3    H136481   5.454   0.549   2.857 -3.3392 -0.2618 -2.9024
 5022TIP3    H236482   5.552   0.461   2.782 -1.5818  0.0083 -0.9856
 5023TIP3   OH236483   4.300   5.170  12.992 -0.1306  0.1046  0.1225
 5023TIP3    H136484   4.273   5.259  12.968  1.4430  1.2405  2.2400
 5023TIP3    H236485   4.368   5.147  12.928 -1.7922 -0.4177 -1.5766
 5024TIP3   OH236486   2.692   5.175  14.889  0.1026  0.2940 -0.2204
 5024TIP3    H136487   2.698   5.261  14.849 -0.8539  0.3320 -0.2953
 5024TIP3    H236488   2.671   5.192  14.981  0.5913  0.1537 -0.0767
 5025TIP3   OH236489   0.119   2.972  13.512  0.6622 -0.5472  0.2947
 5025TIP3    H136490   0.160   3.058  13.525  0.8690 -0.7589  1.1221
 5025TIP3    H236491   0.192   2.910  13.517  0.4681 -0.7966  0.0436
 5026TIP3   OH236492   1.033   4.986  16.392  0.6289 -0.1009 -0.2080
 5026TIP3    H136493   1.071   5.073  16.407 -1.0158  0.4044  1.4596
 5026TIP3    H236494   0.975   4.972  16.467  0.6304 -2.5430 -0.5782
 5027TIP3   OH236495   4.045   5.084  11.627  0.0438 -0.5566 -0.0304
 5027TIP3    H136496   4.058   5.064  11.719  0.0413 -0.8700 -0.0946
 5027TIP3    H236497   4.129   5.064  11.586  0.3054  0.3767  0.0292
 5028TIP3   OH236498   6.602   3.484  11.209 -0.4960  0.3546  0.5207
 5028TIP3    H136499   6.685   3.508  11.251  0.0975 -0.4907 -0.1443
 5028TIP3    H236500   6.621   3.403  11.163 -1.3645  0.7936 -0.6648
 5029TIP3   OH236501   3.564   1.241   4.933  1.0317  0.8367 -0.3806
 5029TIP3    H136502   3.498   1.172   4.936  1.0838  0.8196  1.2297
 5029TIP3    H236503   3.620   1.217   4.859  1.8285 -1.6130  0.8805
 5030TIP3   OH236504   3.812   5.024   3.685 -0.6023 -0.0067  0.1608
 5030TIP3    H136505   3.837   5.096   3.743 -2.1048  0.9517 -0.3314
 5030TIP3    H236506   3.786   5.067   3.603 -0.4926 -1.1913 -0.5114
 5031TIP3   OH236507   4.737   6.237  14.811  0.4159 -0.3064 -0.2961
 5031TIP3    H136508   4.648   6.272  14.808  0.6656  0.5945  1.4918
 5031TIP3    H236509   4.780   6.287  14.880  1.5266 -2.4813  0.7112
 5032TIP3   OH236510   2.277   6.346  16.175 -0.1884 -0.8143  0.3342
 5032TIP3    H136511   2.211   6.368  16.110 -0.6182 -0.3065  0.9313
 5032TIP3    H236512   2.277   6.250  16.178 -0.8399 -0.8229  0.2636
 5033TIP3   OH236513   4.740   6.493  16.571 -0.4123  0.0213  0.2973
 5033TIP3    H136514   4.771   6.498  16.661 -1.9217  0.3471  0.8233
 5033TIP3    H236515   4.761   6.404  16.543 -0.9199 -0.4458  1.3532
 5034TIP3   OH236516   1.001   2.479  16.199  0.3312 -0.3083 -0.2673
 5034TIP3    H136517   0.959   2.437  16.274  1.0721 -0.1857  0.2266
 5034TIP3    H236518   0.941   2.550  16.175  1.2236  1.2759  1.8066
 5035TIP3   OH236519   6.167   6.426   0.375 -0.3434 -0.2501  0.1019
 5035TIP3    H136520   6.096   6.392   0.430 -0.6600  0.2540  0.0040
 5035TIP3    H236521   6.123   6.466   0.300  0.0783 -0.7637 -0.4335
 5036TIP3   OH236522   1.120   4.857  11.279 -0.1627  0.4117 -0.3467
 5036TIP3    H136523   1.071   4.929  11.318 -1.4902  0.9790 -2.8649
 5036TIP3    H236524   1.206   4.894  11.259 -0.4270  0.9326 -0.5190
 5037TIP3   OH236525   5.264   6.046  14.905  0.5399  0.4324  0.1244
 5037TIP3    H136526   5.239   6.139  14.903 -3.0086 -0.4052 -1.3372
 5037TIP3    H236527   5.312   6.032  14.824 -1.0327  0.5583 -0.8663
 5038TIP3   OH236528   0.135   5.390   2.520  0.6614 -0.0413 -0.6884
 5038TIP3    H136529   0.171   5.478   2.506  0.9804  0.2666  1.7468
 5038TIP3    H236530   0.054   5.404   2.569  0.9095 -1.1099  0.0487
 5039TIP3   OH236531   1.278   1.075   1.743  0.2108  0.3371  0.0446
 5039TIP3    H136532   1.211   1.028   1.792 -0.1379  0.3244 -0.4399
 5039TIP3    H236533   1.258   1.167   1.756  2.5598  0.5450  3.3891
 5040TIP3   OH236534   6.411   4.295  13.466  0.4762  0.7472 -0.0471
 5040TIP3    H136535   6.410   4.270  13.374 -0.7739  0.3487  0.0432
 5040TIP3    H236536   6.320   4.285  13.494  0.7980  1.0516  1.1804
 5041TIP3   OH236537   5.600   4.907   3.366 -0.0575 -0.0438  0.0329
 5041TIP3    H136538   5.565   4.832   3.317  0.6051  0.2879 -0.9765
 5041TIP3    H236539   5.645   4.867   3.441 -2.1723 -0.5003  1.1277
 5042TIP3   OH236540   5.293   1.088  11.484  0.0502  0.1262 -0.0710
 5042TIP3    H136541   5.208   1.068  11.524  1.0467 -0.5041  1.8727
 5042TIP3    H236542   5.278   1.167  11.433 -1.9436 -0.5788 -0.6577
 5043TIP3   OH236543   2.590   3.195   4.400  0.3163 -0.1502  0.6869
 5043TIP3    H136544   2.651   3.261   4.432  0.8151 -0.6868  0.8656
 5043TIP3    H236545   2.629   3.164   4.318 -1.7173  2.3432 -1.4010
 5044TIP3   OH236546   0.517   4.194   0.377  0.1515 -0.0072 -0.7052
 5044TIP3    H136547   0.571   4.151   0.443  0.6869  0.2825 -0.9459
 5044TIP3    H236548   0.428   4.162   0.393  0.3795 -0.4090 -0.2395
 5045TIP3   OH236549   2.854   4.571  15.585 -0.1899  0.3526 -0.0591
 5045TIP3    H136550   2.838   4.625  15.507  1.0387  1.4027  0.3689
 5045TIP3    H236551   2.865   4.635  15.656 -3.9903 -0.6051  1.6157
 5046TIP3   OH236552   0.569   2.386  15.722 -0.2882  0.3983 -0.1087
 5046TIP3    H136553   0.636   2.401  15.656 -0.7916  1.0235 -0.4963
 5046TIP3    H236554   0.522   2.470  15.728 -0.6808  0.1438  0.5493
 5047TIP3   OH236555   2.648   1.987  12.652  0.2798  0.3710  0.1676
 5047TIP3    H136556   2.566   1.940  12.660  0.8328 -0.7782 -0.5621
 5047TIP3    H236557   2.715   1.921  12.669  1.0553  1.2743  0.7156
 5048TIP3   OH236558   4.516   1.246  16.447 -0.3159 -0.4103 -0.3395
 5048TIP3    H136559   4.429   1.238  16.488  0.1202  0.8975  0.9079
 5048TIP3    H236560   4.549   1.331  16.476  0.6367 -0.0529 -2.3028
 5049TIP3   OH236561   0.251   2.431   2.632 -0.0984  0.0802  0.2162
 5049TIP3    H136562   0.188   2.373   2.674 -0.8131  1.6751  1.4801
 5049TIP3    H236563   0.267   2.392   2.546  0.1165 -2.3909  1.3070
 5050TIP3   OH236564   5.358   0.391  15.685  0.6275  0.6661 -0.4025
 5050TIP3    H136565   5.374   0.475  15.727 -1.8457  1.1449 -0.2866
 5050TIP3    H236566   5.329   0.413  15.596 -1.9630  0.1274  0.2224
 5051TIP3   OH236567   0.501   3.314  14.928  0.6175 -0.1408  0.4496
 5051TIP3    H136568   0.477   3.404  14.905  1.7382  0.0130 -0.2018
 5051TIP3    H236569   0.429   3.284  14.984 -0.0905  0.9376  0.1644
 5052TIP3   OH236570   6.547   0.339   3.676  0.6126  0.7514  0.2834
 5052TIP3    H136571   6.603   0.355   3.751  0.4050  0.4775  0.4977
 5052TIP3    H236572   6.475   0.401   3.685 -0.2023 -0.2877  1.1244
 5053TIP3   OH236573   1.981   3.938   3.430  0.2258  0.2773  0.7475
 5053TIP3    H136574   1.888   3.957   3.447  0.0406 -0.4256  0.5321
 5053TIP3    H236575   1.982   3.848   3.399  0.9404  0.4237  0.3286
 5054TIP3   OH236576   5.393   4.006  14.727  0.3164 -0.2388 -0.0292
 5054TIP3    H136577   5.343   4.040  14.801  0.9734  1.3962 -0.2898
 5054TIP3    H236578   5.410   3.915  14.749 -0.8512 -0.2116  1.0913
 5055TIP3   OH236579   1.266   0.129   2.592  0.6885  0.2251  0.2229
 5055TIP3    H136580   1.205   0.081   2.536  0.2425 -0.3445  1.1833
 5055TIP3    H236581   1.218   0.207   2.620  1.6805  1.7916 -2.0082
 5056TIP3   OH236582   1.361   6.450  15.700  1.0643  0.1779 -0.0291
 5056TIP3    H136583   1.425   6.404  15.755  0.7180 -1.8920 -1.2665
 5056TIP3    H236584   1.390   6.434  15.610 -1.4824 -1.4021 -0.6799
 5057TIP3   OH236585   5.651   5.147   2.663 -0.6520 -0.5247  0.2011
 5057TIP3    H136586   5.631   5.060   2.626  0.9411 -1.3771  1.2390
 5057TIP3    H236587   5.739   5.167   2.631 -1.4761  1.3351 -1.0543
 5058TIP3   OH236588   6.698   4.884   2.790 -0.1028  0.0456 -0.0463
 5058TIP3    H136589   6.690   4.969   2.833 -0.2407 -0.6153  1.2657
 5058TIP3    H236590   6.704   4.821   2.862 -0.6746 -1.1212 -0.9928
 5059TIP3   OH236591   2.792   6.174   3.393 -0.7184 -0.6020  0.4743
 5059TIP3    H136592   2.791   6.080   3.374  1.6866 -0.9003  1.4273
 5059TIP3    H236593   2.854   6.212   3.330  1.0822 -0.3208  2.2761
 5060TIP3   OH236594   4.414   3.229   1.087  0.2217  0.5318  0.3252
 5060TIP3    H136595   4.323   3.247   1.067  0.4231 -0.1685 -1.3518
 5060TIP3    H236596   4.463   3.297   1.041  0.7265 -1.4808 -2.3385
 5061TIP3   OH236597   0.459   6.103   1.176  0.0226 -0.4422  0.0689
 5061TIP3    H136598   0.430   6.191   1.202  0.2265  1.4076 -4.8102
 5061TIP3    H236599   0.387   6.046   1.202 -2.8212  2.1734 -1.3804
 5062TIP3   OH236600   4.869   6.256   0.907  0.0696 -0.1465 -0.7619
 5062TIP3    H136601   4.812   6.215   0.972 -0.6734 -0.3452 -1.5166
 5062TIP3    H236602   4.816   6.328   0.872 -0.3815 -1.2813 -2.5934
 5063TIP3   OH236603   4.188   3.214  15.612 -0.8533 -0.0861 -0.4551
 5063TIP3    H136604   4.204   3.271  15.687 -0.1747  1.2767 -1.5857
 5063TIP3    H236605   4.194   3.125  15.648  1.8083  0.4557  0.6860
 5064TIP3   OH236606   5.759   0.304   1.230 -0.5637 -0.3757 -0.0696
 5064TIP3    H136607   5.667   0.313   1.205 -0.5843  0.1446  0.1727
 5064TIP3    H236608   5.773   0.373   1.295  0.2726  0.2800 -0.9023
 5065TIP3   OH236609   6.302   1.188  11.958 -0.2427  0.1542  0.2396
 5065TIP3    H136610   6.269   1.108  12.000  0.6200  0.0366  0.7306
 5065TIP3    H236611   6.356   1.229  12.025  0.0031  0.7125 -0.2925
 5066TIP3   OH236612   3.696   3.295   0.091 -0.4966 -0.0270  0.1041
 5066TIP3    H136613   3.726   3.257   0.174 -0.4173  1.8970  1.0007
 5066TIP3    H236614   3.604   3.268   0.084 -0.6865  0.3128  1.1447
 5067TIP3   OH236615   6.033   3.780  14.974 -0.1427 -0.5557  0.3475
 5067TIP3    H136616   6.098   3.843  15.006  0.2520 -0.2594 -1.0080
 5067TIP3    H236617   5.977   3.763  15.050  0.1515  0.9098  0.9179
 5068TIP3   OH236618   3.935   1.918   3.188  0.0775  0.1176 -0.2494
 5068TIP3    H136619   4.003   1.985   3.184 -0.2012  0.3753 -0.8898
 5068TIP3    H236620   3.918   1.896   3.096 -1.2021  0.5770 -0.1417
 5069TIP3   OH236621   5.010   1.516  11.187  0.4808  0.4208  0.1490
 5069TIP3    H136622   4.922   1.523  11.150  0.3639  0.5278  0.4376
 5069TIP3    H236623   5.068   1.519  11.112  0.3502  2.4992  0.0801
 5070TIP3   OH236624   0.348   1.209   5.675 -0.3628  0.5293 -0.4460
 5070TIP3    H136625   0.441   1.196   5.695 -0.5142  1.2770  0.8329
 5070TIP3    H236626   0.314   1.121   5.659  0.4390  0.1944 -0.3261
 5071TIP3   OH236627   0.221   2.782  11.283  0.1535  0.0948  0.3863
 5071TIP3    H136628   0.207   2.689  11.300  0.3052  0.1118  0.6074
 5071TIP3    H236629   0.147   2.808  11.228 -1.3518  0.4533  2.4446
 5072TIP3   OH236630   3.031   1.152   0.396  0.1361  0.2928  0.0423
 5072TIP3    H136631   2.998   1.157   0.485  0.5657  0.5832  0.1848
 5072TIP3    H236632   3.083   1.072   0.393 -2.5334 -1.5924 -0.8506
 5073TIP3   OH236633   6.202   3.537  13.236 -0.0217  0.1172 -0.6756
 5073TIP3    H136634   6.153   3.470  13.284 -0.3277  0.3117 -0.7183
 5073TIP3    H236635   6.279   3.490  13.203  1.3264  0.4139  1.7959
 5074TIP3   OH236636   4.413   1.588  10.783  0.1506 -0.1292  0.0418
 5074TIP3    H136637   4.399   1.494  10.795  0.3326 -0.0788  0.7224
 5074TIP3    H236638   4.501   1.603  10.819  0.4734  0.1602 -0.8510
 5075TIP3   OH236639   3.996   4.464  15.401  0.2592 -0.1810  0.3632
 5075TIP3    H136640   3.988   4.370  15.417  0.5724 -0.3777 -0.5908
 5075TIP3    H236641   3.910   4.490  15.368 -0.1672  0.0914  1.6223
 5076TIP3   OH236642   2.963   3.321   3.262  0.7695  0.4625 -0.0542
 5076TIP3    H136643   2.991   3.398   3.213  1.8785  0.2075  0.1440
 5076TIP3    H236644   3.030   3.310   3.329 -1.1110  1.2594  2.0760
 5077TIP3   OH236645   5.346   3.684  17.067  0.0886  0.3721  0.2432
 5077TIP3    H136646   5.255   3.711  17.051  0.3029  0.8728 -0.1438
 5077TIP3    H236647   5.350   3.594  17.037 -0.0549  0.6355 -0.5982
 5078TIP3   OH236648   3.782   1.614  16.567 -0.6944 -0.3279 -0.6051
 5078TIP3    H136649   3.802   1.668  16.490 -1.2134 -0.1521 -0.6179
 5078TIP3    H236650   3.732   1.540  16.532  0.5674 -1.1754 -0.6844
 5079TIP3   OH236651   2.607   1.779  11.959  0.2093  0.0576  0.4730
 5079TIP3    H136652   2.635   1.737  12.040  0.4816 -0.6610  0.0087
 5079TIP3    H236653   2.519   1.743  11.942 -0.4296  1.2230  1.1550
 5080TIP3   OH236654   2.876   3.552   4.239  0.2099 -0.1175  0.9865
 5080TIP3    H136655   2.824   3.615   4.188  0.1492 -1.0104 -0.0918
 5080TIP3    H236656   2.964   3.590   4.242  0.5624 -0.6615 -0.9786
 5081TIP3   OH236657   5.036   4.519   1.425  0.2829 -0.4480  0.0694
 5081TIP3    H136658   5.091   4.476   1.490 -0.7618 -1.8249  0.0971
 5081TIP3    H236659   4.950   4.479   1.436 -0.0872 -0.2499 -1.7173
 5082TIP3   OH236660   6.555   4.736  15.199 -0.1778  0.3410 -0.3597
 5082TIP3    H136661   6.491   4.665  15.186  1.7602 -1.4151 -0.8565
 5082TIP3    H236662   6.552   4.754  15.293 -0.0627 -1.0828 -0.0623
 5083TIP3   OH236663   6.226   3.063   2.953  0.4984  0.2360  0.2080
 5083TIP3    H136664   6.241   2.971   2.933  0.5842  0.3704 -0.3427
 5083TIP3    H236665   6.268   3.076   3.038 -0.3338 -0.4598  0.7454
 5084TIP3   OH236666   5.655   5.350   2.336 -0.1067 -0.7059  0.4288
 5084TIP3    H136667   5.746   5.324   2.322  0.7045  1.6563  0.8624
 5084TIP3    H236668   5.656   5.398   2.419 -1.9538 -1.4188  0.9133
 5085TIP3   OH236669   2.736   6.159  12.852 -0.4008 -0.2353  0.0064
 5085TIP3    H136670   2.687   6.186  12.929 -0.3846 -1.5046  0.4927
 5085TIP3    H236671   2.818   6.125  12.887 -0.9201 -2.0564 -0.4072
 5086TIP3   OH236672   3.527   2.031   5.751 -0.2394  0.4650  0.3157
 5086TIP3    H136673   3.561   2.118   5.731 -0.1636  0.9994  2.5491
 5086TIP3    H236674   3.603   1.983   5.785 -0.0791 -0.8035 -1.6477
 5087TIP3   OH236675   0.492   0.466  13.143 -0.0615  0.1074 -0.2078
 5087TIP3    H136676   0.518   0.381  13.177 -2.1494 -0.6844 -0.4286
 5087TIP3    H236677   0.511   0.461  13.049 -0.9354 -0.4705 -0.3698
 5088TIP3   OH236678   6.264   6.121  11.053 -0.1674 -0.0663 -0.4737
 5088TIP3    H136679   6.265   6.173  10.972  0.9084 -1.3324 -1.3107
 5088TIP3    H236680   6.205   6.048  11.034  0.6386 -0.7559 -0.3981
 5089TIP3   OH236681   1.349   1.864   4.523 -0.7505  0.5956  0.3324
 5089TIP3    H136682   1.367   1.815   4.443 -1.6422  0.8666 -0.0487
 5089TIP3    H236683   1.418   1.930   4.528 -0.2249  0.0572  0.2216
 5090TIP3   OH236684   3.260   5.527  16.814  0.0459 -0.4955 -0.5192
 5090TIP3    H136685   3.325   5.597  16.808 -0.1659 -0.2443  0.0357
 5090TIP3    H236686   3.279   5.484  16.898  0.8348 -1.7808 -1.3152
 5091TIP3   OH236687   2.903   0.547  16.906 -0.2553 -0.1840 -0.7918
 5091TIP3    H136688   2.900   0.480  16.838  1.0579 -1.6958  0.5905
 5091TIP3    H236689   2.989   0.588  16.896 -1.3226  1.9214 -2.1197
 5092TIP3   OH236690   5.382   5.140  13.198 -0.3837  0.1866 -0.4407
 5092TIP3    H136691   5.353   5.077  13.132  1.3257  0.0646 -1.1140
 5092TIP3    H236692   5.448   5.193  13.153 -0.6420  1.4266  0.5937
 5093TIP3   OH236693   0.640   6.455  11.466 -0.0443 -0.4972 -0.2045
 5093TIP3    H136694   0.734   6.449  11.453 -0.0429 -1.3504  0.1983
 5093TIP3    H236695   0.614   6.372  11.505 -0.6566  0.4912  1.6437
 5094TIP3   OH236696   3.013   2.039   4.793 -0.0717 -0.2149 -0.1448
 5094TIP3    H136697   2.949   2.106   4.772  0.9058  0.5122 -0.9133
 5094TIP3    H236698   2.971   1.957   4.767 -0.1647  0.3719 -1.9803
 5095TIP3   OH236699   4.400   4.132  16.169 -0.3801  0.3321 -0.2455
 5095TIP3    H136700   4.371   4.042  16.182 -0.9013  0.4849 -0.3393
 5095TIP3    H236701   4.330   4.186  16.204 -0.0370  0.7054 -0.1169
 5096TIP3   OH236702   4.436   3.956   1.625 -0.0192 -0.1036  0.0850
 5096TIP3    H136703   4.420   3.921   1.538  1.7618  0.3948 -0.5016
 5096TIP3    H236704   4.459   4.048   1.610 -0.0605  0.0869  1.1145
 5097TIP3   OH236705   0.316   1.875  14.058  0.7343  0.8956 -0.3601
 5097TIP3    H136706   0.241   1.929  14.032 -0.4699 -0.5348 -0.0487
 5097TIP3    H236707   0.383   1.937  14.084  0.0555  2.2618 -1.7184
 5098TIP3   OH236708   3.107   5.519  11.731 -0.4845  0.7505  0.3772
 5098TIP3    H136709   3.160   5.441  11.746  0.7902  1.4054 -0.6144
 5098TIP3    H236710   3.134   5.580  11.800 -1.6272  0.2735  1.2782
 5099TIP3   OH236711   0.911   4.223  11.253 -0.0718 -0.0300  0.1380
 5099TIP3    H136712   0.855   4.152  11.285 -0.8469  0.4383 -0.1503
 5099TIP3    H236713   0.878   4.301  11.298 -0.6429  0.5006 -1.1401
 5100TIP3   OH236714   2.147   3.924   2.444 -0.6470 -0.1060  1.2728
 5100TIP3    H136715   2.172   3.853   2.503 -1.0871 -1.8551 -0.5798
 5100TIP3    H236716   2.057   3.946   2.469 -1.4110 -1.9300  0.2816
 5101TIP3   OH236717   4.886   3.985   5.362 -0.6565 -0.4699  0.4087
 5101TIP3    H136718   4.837   3.933   5.425 -0.7528 -0.2580  0.5115
 5101TIP3    H236719   4.925   3.921   5.302 -1.1582 -0.6372  0.2536
 5102TIP3   OH236720   1.307   5.287  12.494 -0.2695 -0.6517 -0.4429
 5102TIP3    H136721   1.300   5.345  12.418  2.3442  0.9116  0.3695
 5102TIP3    H236722   1.316   5.347  12.569  0.7927 -2.0886  0.6393
 5103TIP3   OH236723   1.517   5.672   5.556  1.4103 -0.1018 -0.4529
 5103TIP3    H136724   1.608   5.698   5.542  1.2238  1.2643  0.6712
 5103TIP3    H236725   1.472   5.752   5.582 -0.1176 -0.7659 -0.9161
 5104TIP3   OH236726   0.486   1.326   4.245 -0.1439  0.8398 -0.1632
 5104TIP3    H136727   0.508   1.352   4.334  0.1734 -0.1598  0.0669
 5104TIP3    H236728   0.450   1.238   4.254 -2.0084  1.4891 -0.8126
 5105TIP3   OH236729   3.434   1.652  11.913 -0.1493 -0.2802 -0.0903
 5105TIP3    H136730   3.368   1.582  11.906  0.0851 -0.5691  0.5543
 5105TIP3    H236731   3.512   1.608  11.947 -0.4204  0.5453  1.6959
 5106TIP3   OH236732   3.531   5.174  13.992 -0.6359 -0.7570 -0.5422
 5106TIP3    H136733   3.599   5.124  14.036 -0.6105 -0.3725 -0.1295
 5106TIP3    H236734   3.566   5.193  13.905  0.7010  1.2087  0.3448
 5107TIP3   OH236735   1.783   6.682  12.759  0.7112  0.5351 -0.0846
 5107TIP3    H136736   1.847   6.668  12.690  1.8538  0.2285  0.9983
 5107TIP3    H236737   1.833   6.673  12.841 -0.5357  1.1389  0.7841
 5108TIP3   OH236738   5.966   1.732   0.634  0.4847  0.8906 -0.1973
 5108TIP3    H136739   6.001   1.646   0.610 -0.8011 -0.1910  1.5759
 5108TIP3    H236740   5.876   1.731   0.602 -0.2473  0.6544  1.7287
 5109TIP3   OH236741   5.691   1.413  11.866  0.3371 -0.0598 -0.2556
 5109TIP3    H136742   5.604   1.453  11.862 -0.2244 -1.3032 -0.9733
 5109TIP3    H236743   5.688   1.358  11.944 -0.4424 -2.0606 -1.6114
 5110TIP3   OH236744   2.858   4.765  15.345  0.2625 -0.1455 -0.1744
 5110TIP3    H136745   2.812   4.820  15.281 -0.5947  0.6889  1.1044
 5110TIP3    H236746   2.907   4.702  15.292  0.9979  1.6138 -1.6873
 5111TIP3   OH236747   2.283   5.646  13.031 -0.2979  0.2071 -0.2580
 5111TIP3    H136748   2.267   5.665  12.938 -0.0915  0.2729 -0.2807
 5111TIP3    H236749   2.365   5.596  13.031 -0.3035  0.1986 -0.1108
 5112TIP3   OH236750   3.719   4.646  15.415 -0.1537  0.2826 -0.3882
 5112TIP3    H136751   3.666   4.582  15.368 -1.6948  0.9604  0.3640
 5112TIP3    H236752   3.727   4.610  15.503  0.3824  0.3365 -0.4148
 5113TIP3   OH236753   5.726   2.044   4.252  0.2198  0.4219 -0.0528
 5113TIP3    H136754   5.735   2.030   4.346 -0.0946  0.1974 -0.0516
 5113TIP3    H236755   5.800   2.099   4.228 -1.3265  3.0847  0.8790
 5114TIP3   OH236756   3.052   1.667  13.111  0.1484  0.2242 -0.7746
 5114TIP3    H136757   3.089   1.626  13.032  0.6020 -1.0818  0.0716
 5114TIP3    H236758   3.105   1.632  13.183 -1.6624 -0.4157  0.3290
 5115TIP3   OH236759   2.341   0.262   2.363 -0.0548 -0.4534  0.3729
 5115TIP3    H136760   2.264   0.205   2.361 -0.4343  0.0166 -2.3178
 5115TIP3    H236761   2.333   0.315   2.283  1.7025  1.4610  1.3774
 5116TIP3   OH236762   2.663   6.785  16.649  0.5214 -0.4022 -0.2632
 5116TIP3    H136763   2.580   6.747  16.679 -1.4896  3.0509 -0.8696
 5116TIP3    H236764   2.649   6.803  16.556  1.4986  1.1751 -0.1443
 5117TIP3   OH236765   0.767   4.911   5.649  0.0203 -0.5866 -0.4851
 5117TIP3    H136766   0.834   4.847   5.627  0.4666  0.1675 -1.4372
 5117TIP3    H236767   0.704   4.905   5.577 -0.4852 -0.6855 -0.0391
 5118TIP3   OH236768   5.921   1.837   6.495  0.2545  0.3051  0.2896
 5118TIP3    H136769   5.866   1.836   6.417  0.4875 -1.1389  0.1136
 5118TIP3    H236770   6.004   1.799   6.465  0.2166 -0.6254  1.3023
 5119TIP3   OH236771   0.690   0.144   5.890  0.0175 -0.7358 -0.3174
 5119TIP3    H136772   0.712   0.162   5.982 -2.5687  2.9164 -0.2050
 5119TIP3    H236773   0.755   0.193   5.840 -0.6499  0.2075 -0.2882
 5120TIP3   OH236774   5.998   6.363   2.250 -0.1032  0.4074  0.6413
 5120TIP3    H136775   6.080   6.359   2.200 -0.2791  1.9255  0.1747
 5120TIP3    H236776   5.929   6.365   2.184 -0.2962  3.5286  0.7951
 5121TIP3   OH236777   3.953   3.146   0.518 -0.4422  0.3668  0.7215
 5121TIP3    H136778   3.989   3.160   0.606 -0.1847  0.2004  0.6439
 5121TIP3    H236779   4.028   3.118   0.466 -0.2091  2.2111  0.0013
 5122TIP3   OH236780   4.194   0.517   5.560  0.0231  0.1343 -0.3979
 5122TIP3    H136781   4.130   0.587   5.551 -0.6108 -0.6538 -2.8196
 5122TIP3    H236782   4.144   0.442   5.591 -0.1893 -0.3486 -1.8306
 5123TIP3   OH236783   3.341   5.057   6.397 -0.4475 -0.1803 -0.1611
 5123TIP3    H136784   3.369   5.075   6.487  0.0378  1.4996 -0.6084
 5123TIP3    H236785   3.400   4.988   6.367  1.5493  1.4639 -0.2144
 5124TIP3   OH236786   3.492   0.235   5.575 -0.2573  0.0355  0.0090
 5124TIP3    H136787   3.484   0.157   5.521  0.2502 -1.1834  1.6262
 5124TIP3    H236788   3.439   0.301   5.530  0.0239 -0.9527 -1.8614
 5125TIP3   OH236789   5.982   4.098   1.755  0.1180  0.2947 -0.3663
 5125TIP3    H136790   5.994   4.154   1.678 -0.7952  0.8564 -0.1233
 5125TIP3    H236791   6.056   4.038   1.753  0.2429  0.4561 -1.5482
 5126TIP3   OH236792   2.323   3.096   2.652 -0.3237 -0.0730 -0.3825
 5126TIP3    H136793   2.386   3.070   2.585 -1.5012 -0.0551 -1.5326
 5126TIP3    H236794   2.322   3.192   2.648  0.6773  0.0010  0.7027
 5127TIP3   OH236795   2.202   6.439  13.677 -0.5807 -0.0412  0.3795
 5127TIP3    H136796   2.190   6.507  13.744 -1.5528  0.6743 -0.4793
 5127TIP3    H236797   2.244   6.484  13.604 -1.2928 -0.3304 -0.2248
 5128TIP3   OH236798   3.492   0.051  13.605  0.0929 -0.0185 -0.6844
 5128TIP3    H136799   3.467  -0.017  13.543 -0.6357 -0.9944  0.6502
 5128TIP3    H236800   3.411   0.099  13.622  0.2848  0.2411 -0.4884
 5129TIP3   OH236801   3.574   1.824  16.005  0.1540  0.3057  0.4794
 5129TIP3    H136802   3.481   1.845  15.994  0.1442  0.4781  0.8608
 5129TIP3    H236803   3.603   1.797  15.918 -0.1243  0.7742  0.2363
 5130TIP3   OH236804   4.284   5.696   5.397 -0.7018  0.0987  0.5692
 5130TIP3    H136805   4.231   5.692   5.476 -1.1679 -1.0477  0.2283
 5130TIP3    H236806   4.322   5.609   5.389 -2.7104 -0.6825 -1.7960
 5131TIP3   OH236807   2.722   6.675  15.618 -0.0678  0.0213  0.2245
 5131TIP3    H136808   2.810   6.666  15.583  0.4155  0.7974  1.1817
 5131TIP3    H236809   2.715   6.603  15.682 -0.6591 -0.9006 -0.8325
 5132TIP3   OH236810   6.089   0.661   2.728  0.8644  0.4874  0.0056
 5132TIP3    H136811   6.008   0.610   2.719  1.7905 -0.8654 -1.0713
 5132TIP3    H236812   6.085   0.726   2.659  0.4179  0.8455  0.3601
 5133TIP3   OH236813   2.655   2.698  14.033  0.0443  0.0411 -0.6297
 5133TIP3    H136814   2.608   2.616  14.018  1.0901 -0.8012  0.4874
 5133TIP3    H236815   2.615   2.735  14.112 -0.6547  0.8002 -1.3254
 5134TIP3   OH236816   3.195   2.521  14.315  0.1478 -0.5183 -0.4054
 5134TIP3    H136817   3.197   2.448  14.376 -1.1879 -1.1522 -1.0617
 5134TIP3    H236818   3.262   2.499  14.249 -0.0396 -1.0097 -0.4379
 5135TIP3   OH236819   3.183   3.371   3.440  0.5289  0.0479 -0.4809
 5135TIP3    H136820   3.130   3.433   3.490  0.3488 -0.4563 -0.0341
 5135TIP3    H236821   3.256   3.423   3.407  1.6611  0.0669  1.8190
 5136TIP3   OH236822   2.756   5.772   0.001 -0.2694  0.5496 -0.2764
 5136TIP3    H136823   2.695   5.749  -0.069 -0.9744  1.7263 -0.0859
 5136TIP3    H236824   2.767   5.867  -0.008 -1.8066  1.0787  2.2638
 5137TIP3   OH236825   3.059   6.515   5.264 -0.1164  0.2382  0.0455
 5137TIP3    H136826   3.056   6.555   5.351 -0.4366 -1.4492  0.8475
 5137TIP3    H236827   2.968   6.519   5.233 -0.0115  0.7935 -0.1980
 5138TIP3   OH236828   3.176   4.335  13.781  0.5147 -0.3077 -0.3334
 5138TIP3    H136829   3.090   4.322  13.740  0.9159 -2.0107 -0.7001
 5138TIP3    H236830   3.159   4.396  13.853 -0.8702 -0.0855 -0.8215
 5139TIP3   OH236831   1.735   6.636   5.576  0.0340 -0.6658  0.1258
 5139TIP3    H136832   1.647   6.597   5.579 -0.6498  0.7659 -0.5102
 5139TIP3    H236833   1.737   6.698   5.649  0.0419  0.2253 -0.6121
 5140TIP3   OH236834   5.549   4.081  16.816 -0.7593  0.2504 -0.2681
 5140TIP3    H136835   5.508   3.997  16.835 -0.1666  0.2859  1.3160
 5140TIP3    H236836   5.615   4.091  16.885 -0.7713  1.9817 -0.4791
 5141TIP3   OH236837   6.456   1.292   5.137 -0.3329  0.5511  0.4397
 5141TIP3    H136838   6.387   1.248   5.186 -0.3076  1.0405  0.9325
 5141TIP3    H236839   6.509   1.334   5.204 -0.0102  0.8258  0.0167
 5142TIP3   OH236840   5.363   1.915   4.741  0.3104  0.0781  0.1910
 5142TIP3    H136841   5.364   1.916   4.645  0.3693 -0.1074  0.1905
 5142TIP3    H236842   5.433   1.854   4.765  0.6889  0.5656  0.3574
 5143TIP3   OH236843   0.727   1.685  12.653 -0.1170  0.4854 -0.0642
 5143TIP3    H136844   0.773   1.748  12.598  0.4608  0.0230 -0.1181
 5143TIP3    H236845   0.771   1.602  12.637  0.4704  0.4481  1.5654
 5144TIP3   OH236846   0.719   1.323  14.307  0.1278  0.0422  0.5552
 5144TIP3    H136847   0.753   1.236  14.288  1.4736  0.3697  1.3056
 5144TIP3    H236848   0.658   1.341  14.235 -0.7301 -1.7838  0.7674
 5145TIP3   OH236849   1.998   4.499   0.263  0.4580  0.2102  0.2247
 5145TIP3    H136850   1.993   4.505   0.167  1.5344 -3.0521 -0.1481
 5145TIP3    H236851   1.908   4.489   0.291  0.2138  0.2362 -0.5283
 5146TIP3   OH236852   2.712   2.131  14.449  0.1977 -0.2803 -0.6839
 5146TIP3    H136853   2.710   2.226  14.440 -0.6092 -0.0986  1.0215
 5146TIP3    H236854   2.763   2.116  14.528 -0.5369 -1.2080 -0.3699
 5147TIP3   OH236855   0.204   3.465  15.974  0.3593 -0.0264 -0.0215
 5147TIP3    H136856   0.115   3.454  15.940  0.7355 -1.0119 -0.7320
 5147TIP3    H236857   0.207   3.410  16.052  0.8073 -1.3140 -0.9074
 5148TIP3   OH236858   5.406   6.447  11.391 -0.4829  0.1627 -0.3642
 5148TIP3    H136859   5.462   6.473  11.464  0.2208 -0.8062 -0.5428
 5148TIP3    H236860   5.421   6.515  11.324  0.6121 -0.1610 -0.4721
 5149TIP3   OH236861   4.276   5.820  12.828  0.2986 -0.0137 -0.3610
 5149TIP3    H136862   4.276   5.910  12.860  1.9522 -0.4026  0.9137
 5149TIP3    H236863   4.367   5.805  12.801  0.8467 -2.1671  2.2413
 5150TIP3   OH236864   4.482   0.179  15.137  0.3363  0.0892 -0.3373
 5150TIP3    H136865   4.399   0.207  15.175  1.2484  1.3090  0.8314
 5150TIP3    H236866   4.515   0.257  15.092  0.9500 -0.3220 -0.6066
 5151TIP3   OH236867   6.640   4.400  15.120 -0.6804 -1.0605  0.9528
 5151TIP3    H136868   6.682   4.453  15.188 -0.8767  2.4436 -1.4090
 5151TIP3    H236869   6.712   4.365  15.069 -0.5762 -0.8224  0.9363
 5152TIP3   OH236870   1.654   2.336   0.694 -0.0682  0.2276  0.5221
 5152TIP3    H136871   1.745   2.306   0.692  0.2590  1.0817  1.5189
 5152TIP3    H236872   1.608   2.272   0.748 -0.5043 -1.2346 -1.4452
 5153TIP3   OH236873   3.776   4.556  14.346 -0.5675 -0.2912  0.0317
 5153TIP3    H136874   3.694   4.585  14.388 -0.6603 -0.8917  0.2778
 5153TIP3    H236875   3.752   4.475  14.301 -0.3175  0.0184 -0.6676
 5154TIP3   OH236876   0.875   0.856   1.349 -0.4277  0.1152  0.2021
 5154TIP3    H136877   0.830   0.865   1.433 -1.1393 -0.8290 -0.0620
 5154TIP3    H236878   0.821   0.795   1.300  1.5541 -1.7019  0.1534
 5155TIP3   OH236879   1.925   3.315   5.353 -0.2868 -0.3577 -0.5491
 5155TIP3    H136880   1.940   3.266   5.271  1.2352 -0.6365 -0.1379
 5155TIP3    H236881   1.878   3.253   5.409 -0.0192 -0.7040 -0.6979
 5156TIP3   OH236882   5.148   4.920   2.799  0.0267  0.1364  0.3580
 5156TIP3    H136883   5.141   4.973   2.878 -2.4504  0.9891 -0.3444
 5156TIP3    H236884   5.097   4.842   2.818  0.0991 -0.0308 -0.1175
 5157TIP3   OH236885   0.605   5.115   4.068 -0.3902 -0.0751  0.1970
 5157TIP3    H136886   0.560   5.170   4.132  0.8342  1.5310 -0.2594
 5157TIP3    H236887   0.697   5.142   4.073 -0.0731 -0.7422 -1.3772
 5158TIP3   OH236888   4.080   0.325   5.284 -0.3900  0.3579 -0.2352
 5158TIP3    H136889   4.071   0.230   5.289 -0.4950  0.2164 -2.2655
 5158TIP3    H236890   4.169   0.343   5.314 -0.5626 -0.2998  0.7020
 5159TIP3   OH236891   2.688   2.271   2.884  0.0337  0.4575 -0.1515
 5159TIP3    H136892   2.709   2.248   2.974  1.0318 -0.1000 -0.5118
 5159TIP3    H236893   2.690   2.188   2.836  0.0924  0.8190 -0.7929
 5160TIP3   OH236894   3.527   1.083   5.918  0.0080  0.1771  0.0479
 5160TIP3    H136895   3.469   1.078   5.994 -1.2592  1.1965 -0.8083
 5160TIP3    H236896   3.600   1.138   5.947 -0.9650  1.4038  0.2615
 5161TIP3   OH236897   2.344   3.869  10.982 -0.2787 -0.2571  0.1788
 5161TIP3    H136898   2.351   3.951  10.934 -0.0915 -0.7417 -0.6458
 5161TIP3    H236899   2.257   3.836  10.960  0.2931 -1.1266 -0.9276
 5162TIP3   OH236900   2.685   1.139  11.480 -0.3448  0.2460  0.2306
 5162TIP3    H136901   2.665   1.209  11.542 -0.2098  0.7695 -0.3132
 5162TIP3    H236902   2.712   1.184  11.400  1.1992 -0.4207  0.3433
 5163TIP3   OH236903   1.064   5.467  15.342 -0.4973 -0.3012  0.0685
 5163TIP3    H136904   1.148   5.491  15.382 -0.1609 -0.2656 -0.6369
 5163TIP3    H236905   0.999   5.514  15.393  0.0125  0.6468 -0.1264
 5164TIP3   OH236906   4.095   1.184   0.005  0.3362  0.5597  0.0199
 5164TIP3    H136907   4.176   1.185  -0.045 -0.1118  0.9069 -0.7137
 5164TIP3    H236908   4.100   1.261   0.061  1.0939 -0.1395  0.9392
 5165TIP3   OH236909   6.403   2.832   3.397 -0.1857  0.2009  0.7752
 5165TIP3    H136910   6.460   2.908   3.403 -2.0044  1.5794  1.9507
 5165TIP3    H236911   6.378   2.814   3.488  0.7234 -2.2853  0.6105
 5166TIP3   OH236912   1.243   2.533   0.496 -0.9074 -0.3130  0.0346
 5166TIP3    H136913   1.266   2.590   0.569 -0.7514  0.6887 -0.7744
 5166TIP3    H236914   1.317   2.472   0.489 -0.7668 -0.2027  0.4856
 5167TIP3   OH236915   1.982   1.546  15.502  0.5019  0.0969 -0.4131
 5167TIP3    H136916   1.952   1.455  15.504  1.1483 -0.1076  0.0292
 5167TIP3    H236917   2.000   1.567  15.593  0.7048  0.5557 -0.5582
 5168TIP3   OH236918   6.739   5.828   1.826 -0.4014 -0.1495 -0.2659
 5168TIP3    H136919   6.721   5.811   1.918  0.3078  1.7325  0.2651
 5168TIP3    H236920   6.827   5.793   1.812  0.0955  0.8681  0.1940
 5169TIP3   OH236921   5.149   1.393  12.750 -0.3264 -0.4937 -0.2963
 5169TIP3    H136922   5.100   1.438  12.819 -2.6931 -1.4014 -1.2545
 5169TIP3    H236923   5.214   1.456  12.721 -1.0574  0.8808  0.9398
 5170TIP3   OH236924   6.695   2.756  16.084 -0.2794  0.3786  0.2887
 5170TIP3    H136925   6.786   2.761  16.057 -0.6616 -0.8423 -1.4267
 5170TIP3    H236926   6.697   2.748  16.179  1.2625  2.7316  0.5426
 5171TIP3   OH236927   0.675   3.835  13.601  0.5536  0.4335 -0.2129
 5171TIP3    H136928   0.740   3.902  13.580  1.3881 -0.5025 -0.7020
 5171TIP3    H236929   0.659   3.846  13.695  1.0087  1.0245 -0.1988
 5172TIP3   OH236930   1.191   2.761  11.357  0.2642  0.5538  0.4775
 5172TIP3    H136931   1.183   2.852  11.330 -0.2284  0.3256 -0.1853
 5172TIP3    H236932   1.105   2.723  11.339  1.0658 -0.5770 -1.3347
 5173TIP3   OH236933   1.971   5.323   6.228  0.2583 -0.1765 -0.3128
 5173TIP3    H136934   2.052   5.341   6.180  0.1298 -1.2878 -0.9758
 5173TIP3    H236935   1.960   5.228   6.222 -1.6114  0.0477 -1.0867
 5174TIP3   OH236936   1.752   6.503   0.518 -0.2223 -0.0165 -0.1956
 5174TIP3    H136937   1.688   6.435   0.541  0.5733 -0.3952  0.9701
 5174TIP3    H236938   1.734   6.575   0.578  0.6636 -0.2714  0.3968
 5175TIP3   OH236939   3.873   0.275  12.141  0.1717  0.2063 -0.4435
 5175TIP3    H136940   3.825   0.270  12.058  0.7197  1.1926 -0.8251
 5175TIP3    H236941   3.948   0.331  12.123  0.1010  0.7371  0.8124
 5176TIP3   OH236942   0.610   2.537  11.348  0.3267 -0.2273  0.4393
 5176TIP3    H136943   0.572   2.487  11.420  0.4291 -2.4475 -0.9362
 5176TIP3    H236944   0.633   2.471  11.283 -1.1243  1.7450 -2.2956
 5177TIP3   OH236945   0.153   1.289  10.842  0.0110  0.4265  0.3621
 5177TIP3    H136946   0.100   1.212  10.818 -1.3254 -0.6738  5.5836
 5177TIP3    H236947   0.243   1.258  10.837 -0.2079 -0.0417 -1.6019
 5178TIP3   OH236948   6.548   5.085  11.446  0.0096 -0.4864 -0.2208
 5178TIP3    H136949   6.617   5.077  11.512  0.1493 -0.7124 -0.3936
 5178TIP3    H236950   6.595   5.093  11.363 -0.1563  0.2272 -0.2527
 5179TIP3   OH236951   3.081   2.474  12.113 -1.3847  0.3232  0.1583
 5179TIP3    H136952   3.146   2.460  12.045 -1.5832 -0.2358  0.0742
 5179TIP3    H236953   3.118   2.542  12.170 -0.1901 -0.8337  0.7979
 5180TIP3   OH236954   4.193   2.289   3.375 -0.6837 -1.1233 -0.1696
 5180TIP3    H136955   4.184   2.375   3.335  0.4550  0.2539  2.3549
 5180TIP3    H236956   4.286   2.281   3.395 -0.8589 -2.7151  0.1591
 5181TIP3   OH236957   1.448   2.464   4.436  0.3730  0.1406  0.6132
 5181TIP3    H136958   1.464   2.372   4.418 -1.5636  0.2923 -2.5413
 5181TIP3    H236959   1.361   2.482   4.402  0.5649  3.1194  1.3227
 5182TIP3   OH236960   0.381   4.570  15.009  0.1846 -0.0045  0.1751
 5182TIP3    H136961   0.285   4.570  15.004  0.1955  1.3928 -0.5029
 5182TIP3    H236962   0.409   4.530  14.926  0.1798  1.6618 -0.6664
 5183TIP3   OH236963   6.807   6.155   1.052  0.6970 -0.1887 -0.1973
 5183TIP3    H136964   6.769   6.069   1.071  0.0631  0.2730  0.7398
 5183TIP3    H236965   6.884   6.136   0.998  1.0267 -1.4069  0.6396
 5184TIP3   OH236966   2.183   0.461  15.173 -0.3288  0.5987 -0.8568
 5184TIP3    H136967   2.163   0.472  15.080  0.3735 -2.3417 -1.4568
 5184TIP3    H236968   2.276   0.480  15.180 -0.1204 -0.3342 -1.0082
 5185TIP3   OH236969   2.544   4.100   4.735 -0.3724 -0.1445  0.0889
 5185TIP3    H136970   2.499   4.022   4.703 -1.7522 -0.0230  1.5381
 5185TIP3    H236971   2.573   4.076   4.823 -0.5217  0.8372  0.4221
 5186TIP3   OH236972   1.991   1.468  14.711  0.3366 -0.3714 -0.9727
 5186TIP3    H136973   1.973   1.401  14.777  0.2809  0.4122 -0.1733
 5186TIP3    H236974   2.076   1.504  14.735 -0.0340  0.4556 -0.8595
 5187TIP3   OH236975   1.214   1.752   5.280 -0.0225  0.3889 -0.3462
 5187TIP3    H136976   1.200   1.698   5.201  0.2557 -0.6634  0.3027
 5187TIP3    H236977   1.234   1.839   5.246  3.1368 -0.6687 -1.6003
 5188TIP3   OH236978   5.197   2.366  14.839 -0.2251  0.1161 -0.1646
 5188TIP3    H136979   5.282   2.399  14.809 -0.7798  1.6089 -0.2091
 5188TIP3    H236980   5.217   2.284  14.884  1.2760  0.6192  0.1433
 5189TIP3   OH236981   2.208   1.136   2.759  0.1480 -1.0970  0.2652
 5189TIP3    H136982   2.173   1.097   2.839 -2.5212 -1.7512 -1.1029
 5189TIP3    H236983   2.174   1.080   2.689  0.8888  0.4815 -1.4217
 5190TIP3   OH236984   0.256   3.029  16.070  0.1009  0.3965 -0.3251
 5190TIP3    H136985   0.237   2.938  16.091  1.3316  0.0022 -0.8112
 5190TIP3    H236986   0.328   3.052  16.128 -0.3969  1.1667  0.0035
 5191TIP3   OH236987   3.233   1.559  16.946 -0.0658  0.0028  0.1608
 5191TIP3    H136988   3.161   1.598  16.897  0.6333  0.5193 -0.4938
 5191TIP3    H236989   3.248   1.474  16.903  2.1164  1.4503 -2.1958
 5192TIP3   OH236990   4.581   3.360   3.228 -0.1352  0.3613  0.3040
 5192TIP3    H136991   4.556   3.321   3.144  0.5904  2.3545 -0.9094
 5192TIP3    H236992   4.602   3.285   3.284  0.7804 -1.0176 -1.7409
 5193TIP3   OH236993   4.802   6.688   4.437 -0.4924 -0.2235 -0.3937
 5193TIP3    H136994   4.723   6.718   4.392 -0.7893 -1.0506 -0.4468
 5193TIP3    H236995   4.785   6.595   4.456  0.6144 -0.5066 -0.7162
 5194TIP3   OH236996   0.134   4.290   3.173 -0.3433  0.5463 -0.4776
 5194TIP3    H136997   0.101   4.380   3.168 -0.7243  0.3777 -1.2012
 5194TIP3    H236998   0.055   4.236   3.174 -0.1025  0.1767 -1.0725
 5195TIP3   OH236999   1.837   2.425  12.959  0.9318 -0.3794 -0.0823
 5195TIP3    H137000   1.787   2.428  13.040  0.9883 -3.2262  0.1606
 5195TIP3    H237001   1.793   2.359  12.906  2.7796 -0.9695 -0.9727
 5196TIP3   OH237002   5.295   3.996  15.842 -0.0879  0.8317  0.4858
 5196TIP3    H137003   5.287   3.903  15.863  0.2185  0.5926 -0.4221
 5196TIP3    H237004   5.236   4.039  15.904 -2.3418 -0.1883 -0.8239
 5197TIP3   OH237005   4.417   5.717   0.462  0.8034 -0.1544 -0.2500
 5197TIP3    H137006   4.327   5.738   0.436  1.2600  1.2905 -0.7426
 5197TIP3    H237007   4.459   5.690   0.380  1.1559  0.4566 -0.2781
 5198TIP3   OH237008   6.328   3.697   1.386 -0.2966 -0.4589  0.0569
 5198TIP3    H137009   6.268   3.769   1.368  1.3924  0.5050 -2.2057
 5198TIP3    H237010   6.321   3.640   1.309  0.3443 -1.3159  0.6065
 5199TIP3   OH237011   2.565   5.195  12.129 -0.1564 -0.2212 -0.2538
 5199TIP3    H137012   2.543   5.283  12.099 -0.5896 -0.2974 -0.1663
 5199TIP3    H237013   2.650   5.205  12.171 -1.2196  0.6341  1.8562
 5200TIP3   OH237014   3.550   2.205  13.288 -0.3490 -0.3267 -0.4594
 5200TIP3    H137015   3.577   2.264  13.360 -0.6713  0.7113 -1.1628
 5200TIP3    H237016   3.476   2.157  13.324 -0.9242  0.6559 -0.3018
 5201TIP3   OH237017   5.710   0.251  11.791 -0.0606  0.1919  0.2402
 5201TIP3    H137018   5.692   0.333  11.746  0.9559 -0.4018 -1.3481
 5201TIP3    H237019   5.721   0.276  11.883  3.3633  2.3879 -0.5964
 5202TIP3   OH237020   3.917   0.461  13.432  0.2222 -0.4860 -0.5743
 5202TIP3    H137021   4.006   0.439  13.459  0.2412 -0.9490 -1.0078
 5202TIP3    H237022   3.866   0.383  13.453 -0.0225 -0.3343 -0.6052
 5203TIP3   OH237023   0.712   2.929  16.248 -0.4034  0.1297  0.3763
 5203TIP3    H137024   0.727   3.023  16.252  0.9475  0.0657 -1.8698
 5203TIP3    H237025   0.691   2.911  16.157  0.8891 -1.9352  0.4253
 5204TIP3   OH237026   1.514   4.937  11.453  0.5141  0.4220 -0.6675
 5204TIP3    H137027   1.511   5.017  11.506  0.6331  0.1999 -0.3263
 5204TIP3    H237028   1.461   4.958  11.376  0.0790  0.6363 -0.3151
 5205TIP3   OH237029   0.742   5.465  13.528 -0.2073 -0.1639 -0.2478
 5205TIP3    H137030   0.680   5.526  13.568 -0.1866  0.1878 -0.7414
 5205TIP3    H237031   0.796   5.434  13.601  2.5581  3.5593 -0.4339
 5206TIP3   OH237032   6.317   1.471   1.557 -0.4534  0.4432  0.1454
 5206TIP3    H137033   6.311   1.514   1.471  0.5852  0.5322  0.1040
 5206TIP3    H237034   6.281   1.384   1.543 -1.6580  0.9358 -0.0142
 5207TIP3   OH237035   4.133   3.267   2.582 -0.3469 -0.2974  0.5482
 5207TIP3    H137036   4.162   3.325   2.652  2.7806 -0.6169 -0.3563
 5207TIP3    H237037   4.196   3.195   2.582 -1.5454 -1.4434 -1.2033
 5208TIP3   OH237038   0.796   2.426  15.443  0.0985  0.1840 -0.0311
 5208TIP3    H137039   0.860   2.364  15.477 -0.1909  1.2456  2.7851
 5208TIP3    H237040   0.842   2.475  15.375  2.3288  0.8809  1.8710
 5209TIP3   OH237041   4.926   0.538  12.794  0.0118 -0.2422  0.1988
 5209TIP3    H137042   4.852   0.593  12.768  0.2163  1.6691  3.0837
 5209TIP3    H237043   4.891   0.449  12.795 -1.7447  0.4005 -0.1460
 5210TIP3   OH237044   2.816   3.008  16.135 -0.7602 -0.4978  0.6068
 5210TIP3    H137045   2.798   3.059  16.214 -0.1391 -0.4808  0.7449
 5210TIP3    H237046   2.781   2.921  16.154  0.0948 -0.7235  1.2296
 5211TIP3   OH237047   1.676   2.244   0.983 -0.5062 -0.2734  0.5931
 5211TIP3    H137048   1.582   2.260   0.979 -0.7396  0.4475  4.7705
 5211TIP3    H237049   1.685   2.165   1.036  1.2753  0.0162  0.7953
 5212TIP3   OH237050   2.988   1.857  15.493  0.7438 -1.2940  1.1492
 5212TIP3    H137051   2.988   1.927  15.558  1.4630 -0.2759  0.1077
 5212TIP3    H237052   2.924   1.885  15.427  1.3553 -1.3726  0.5025
 5213TIP3   OH237053   3.395   5.809  12.841 -0.2704  0.7939  0.5183
 5213TIP3    H137054   3.348   5.754  12.778  1.4268  0.3196 -0.3965
 5213TIP3    H237055   3.463   5.752  12.876  1.1092  2.1008  0.0511
 5214TIP3   OH237056   2.468   1.987  15.284  0.1159 -0.2838 -0.3514
 5214TIP3    H137057   2.413   2.041  15.341  1.0895  0.1421  0.2099
 5214TIP3    H237058   2.439   2.007  15.195 -0.1535  0.4676 -0.0983
 5215TIP3   OH237059   2.858   3.071  17.159  0.2021 -0.0347 -0.1522
 5215TIP3    H137060   2.768   3.097  17.141 -0.0521 -0.0069  1.0457
 5215TIP3    H237061   2.867   2.986  17.117 -0.2369  0.1574 -0.6563
 5216TIP3   OH237062   0.087   5.261  12.380  0.2710 -0.2874 -0.0072
 5216TIP3    H137063   0.004   5.252  12.333  0.2992 -1.4899  0.1409
 5216TIP3    H237064   0.091   5.184  12.436  0.7462  0.5755  1.1907
 5217TIP3   OH237065   6.031   4.118   0.980  0.2972 -0.8617  0.2709
 5217TIP3    H137066   6.104   4.065   1.014  0.9973  0.0397  0.2268
 5217TIP3    H237067   5.960   4.104   1.042 -0.3988 -3.7609 -1.0302
 5218TIP3   OH237068   3.952   6.641   0.853  0.4473  0.4557 -0.2192
 5218TIP3    H137069   3.866   6.679   0.868 -0.1594 -0.3571 -1.4827
 5218TIP3    H237070   4.013   6.706   0.887 -0.6729  0.6221  1.5920
 5219TIP3   OH237071   6.421   5.430   1.931 -0.1325 -0.2743  0.0631
 5219TIP3    H137072   6.369   5.508   1.913 -0.5189 -0.1514  1.5810
 5219TIP3    H237073   6.389   5.398   2.015  0.8250 -1.3953  0.0324
 5220TIP3   OH237074   6.544   2.586  15.249 -0.1298 -0.2698 -0.4306
 5220TIP3    H137075   6.477   2.563  15.313  0.4288 -1.0101 -0.1084
 5220TIP3    H237076   6.505   2.563  15.164 -1.7954  2.7869 -0.6454
 5221TIP3   OH237077   2.929   0.163  15.227  0.6082  0.3342 -0.0874
 5221TIP3    H137078   2.950   0.205  15.311 -0.1596 -0.2793  0.4163
 5221TIP3    H237079   2.937   0.234  15.163  2.7630  0.4745  0.2586
 5222TIP3   OH237080   2.483   1.411   2.910  0.3241  0.4360 -0.7239
 5222TIP3    H137081   2.542   1.485   2.922  0.5506  0.4925 -2.0531
 5222TIP3    H237082   2.398   1.443   2.938  0.6895  0.7185  0.1076
 5223TIP3   OH237083   2.075   3.898  15.423  0.1633  0.2750 -0.3199
 5223TIP3    H137084   2.101   3.821  15.473 -1.5234 -0.6229 -0.7599
 5223TIP3    H237085   2.005   3.867  15.366  0.0679  1.9386 -1.1691
 5224TIP3   OH237086   3.352   0.986  15.359  0.0330  0.1226  0.0402
 5224TIP3    H137087   3.258   0.975  15.366  0.1623 -0.2240  1.6825
 5224TIP3    H237088   3.381   0.913  15.304 -0.6665  0.3563 -0.6494
 5225TIP3   OH237089   6.454   6.627   3.846  0.3017  0.1446  0.5230
 5225TIP3    H137090   6.525   6.690   3.836  0.0776  0.0530 -2.4972
 5225TIP3    H237091   6.466   6.592   3.934  1.4567  3.1027  1.7007
 5226TIP3   OH237092   5.148   5.751   4.227  0.1938  0.1424 -0.2898
 5226TIP3    H137093   5.219   5.687   4.234  0.9164  0.9735  0.1952
 5226TIP3    H237094   5.164   5.796   4.145 -1.3021 -1.4052 -1.5105
 5227TIP3   OH237095   0.967   3.531  14.825  0.5679  0.0315 -0.0561
 5227TIP3    H137096   0.927   3.557  14.908  0.2683 -0.8086  0.0662
 5227TIP3    H237097   0.898   3.482  14.780  0.4395  1.1893 -1.1717
 5228TIP3   OH237098   1.306   1.701   0.460 -0.1238 -0.6216  0.3864
 5228TIP3    H137099   1.216   1.715   0.490 -0.0204 -2.6402  1.9204
 5228TIP3    H237100   1.354   1.678   0.540  1.3094 -1.4645 -0.6688
 5229TIP3   OH237101   2.989   1.775   5.644 -0.4618  0.0887 -0.0450
 5229TIP3    H137102   3.057   1.743   5.585 -1.5150 -0.9052 -0.7674
 5229TIP3    H237103   3.036   1.803   5.722  0.5548 -3.6302  0.8550
 5230TIP3   OH237104   2.443   0.683   3.676 -0.1662 -0.5390 -0.4448
 5230TIP3    H137105   2.351   0.657   3.669 -0.2674 -0.0712 -0.9368
 5230TIP3    H237106   2.491   0.613   3.632 -0.3426 -0.4445 -0.7894
 5231TIP3   OH237107   0.701   5.802   6.545 -0.2882 -0.0272  0.5401
 5231TIP3    H137108   0.676   5.873   6.604  2.1032 -0.4702  2.2187
 5231TIP3    H237109   0.627   5.741   6.548  0.3541 -0.9213  4.6272
 5232TIP3   OH237110   3.408   3.812  16.938 -0.0838 -0.4272  0.0030
 5232TIP3    H137111   3.486   3.859  16.965  0.6368 -1.3088 -0.4891
 5232TIP3    H237112   3.378   3.767  17.017 -0.2414  0.1164  0.2521
 5233TIP3   OH237113   6.619   6.440   3.662  0.3043  0.0817 -0.1351
 5233TIP3    H137114   6.551   6.500   3.694  0.8937 -0.0035  1.3533
 5233TIP3    H237115   6.699   6.471   3.704  0.5530 -1.9927  1.0498
 5234TIP3   OH237116   2.957   6.514   0.357 -1.2027  0.0001 -0.1162
 5234TIP3    H137117   2.948   6.452   0.430  1.0603 -1.0508 -0.6459
 5234TIP3    H237118   2.934   6.463   0.279 -0.3945  0.1500 -0.4567
 5235TIP3   OH237119   4.055   4.025   5.659  0.4097  0.4699  0.2236
 5235TIP3    H137120   4.027   3.938   5.632  2.2794 -0.2364  0.4418
 5235TIP3    H237121   4.112   4.056   5.588  2.6039  0.0066  1.6853
 5236TIP3   OH237122   2.679   5.789  15.407 -0.1485  0.0786 -0.4143
 5236TIP3    H137123   2.629   5.780  15.488  2.8829  0.0620  1.6252
 5236TIP3    H237124   2.653   5.874  15.372 -1.3279  0.2208  0.7486
 5237TIP3   OH237125   5.726   2.190   1.353  0.6066  0.2917  0.0656
 5237TIP3    H137126   5.682   2.172   1.435  2.5074 -0.9436  0.8868
 5237TIP3    H237127   5.805   2.237   1.378 -0.1552  2.4574 -1.3522
 5238TIP3   OH237128   4.611   3.654   0.669 -0.2917  0.2035  0.1287
 5238TIP3    H137129   4.611   3.559   0.680 -1.0703  0.2014  0.1314
 5238TIP3    H237130   4.680   3.670   0.604 -0.8727 -0.4582 -0.6614
 5239TIP3   OH237131   6.225   3.559   3.711  0.4551  0.0137 -0.5634
 5239TIP3    H137132   6.197   3.646   3.737 -0.3838 -0.6754  0.9682
 5239TIP3    H237133   6.289   3.574   3.641  0.6937  1.8648  0.0051
 5240TIP3   OH237134   0.616   2.673   4.900 -0.2161  0.0736  0.0161
 5240TIP3    H137135   0.630   2.660   4.993 -0.5959  0.1142  0.0796
 5240TIP3    H237136   0.541   2.618   4.879  0.0700 -0.1911 -0.3321
 5241TIP3   OH237137   2.828   3.979  12.019 -0.6266  0.0535  0.1980
 5241TIP3    H137138   2.911   3.999  12.063  0.1405 -1.3063 -0.5565
 5241TIP3    H237139   2.791   4.065  11.998  0.7191  0.6931  0.3149
 5242TIP3   OH237140   5.726   2.755   0.493  0.3321 -0.5743  0.4837
 5242TIP3    H137141   5.679   2.725   0.415  1.0929 -1.0550  0.2008
 5242TIP3    H237142   5.783   2.682   0.517  1.8886  0.4334  0.0465
 5243TIP3   OH237143   6.529   0.715   4.008 -0.8541 -0.4943  0.0226
 5243TIP3    H137144   6.475   0.793   4.020 -0.8298 -0.4594 -0.1028
 5243TIP3    H237145   6.559   0.719   3.918 -1.9420 -1.3425 -0.3951
 5244TIP3   OH237146   3.055   0.536  16.603  0.1289  0.0131 -0.6288
 5244TIP3    H137147   2.963   0.522  16.624  0.0015 -0.0294 -1.1829
 5244TIP3    H237148   3.092   0.577  16.681 -0.0285 -1.2724  0.1582
 5245TIP3   OH237149   2.540   2.091  16.898 -0.4575  0.1640  0.0004
 5245TIP3    H137150   2.585   2.042  16.967 -0.4162  0.8439  0.4586
 5245TIP3    H237151   2.604   2.096  16.827 -0.3818 -0.2507  0.0358
 5246TIP3   OH237152   2.176   0.152   2.691 -0.3012  0.4384 -0.0805
 5246TIP3    H137153   2.130   0.155   2.775 -1.4505 -2.0660 -0.5134
 5246TIP3    H237154   2.147   0.230   2.645 -0.3120  1.4207  1.4991
 5247TIP3   OH237155   3.759   1.806  13.059 -0.0929 -0.0463  0.2916
 5247TIP3    H137156   3.690   1.740  13.051  0.5648 -0.8433  0.9428
 5247TIP3    H237157   3.713   1.886  13.085 -0.7045 -0.7636  1.5005
 5248TIP3   OH237158   0.280   2.151  15.462 -0.0701  0.3892 -0.0522
 5248TIP3    H137159   0.221   2.154  15.386 -1.1837  0.6507  0.8049
 5248TIP3    H237160   0.316   2.240  15.467  1.5341 -0.1251 -1.4102
 5249TIP3   OH237161   5.487   4.067   1.796  0.1214 -0.6228 -0.5999
 5249TIP3    H137162   5.514   4.152   1.762 -1.1208 -0.5982 -1.6028
 5249TIP3    H237163   5.398   4.055   1.762 -1.3669 -0.4834  2.8856
 5250TIP3   OH237164   1.984   0.422   0.119  0.1153  0.0681 -0.6207
 5250TIP3    H137165   1.910   0.384   0.071 -0.0888  1.2159 -1.2423
 5250TIP3    H237166   2.051   0.439   0.053  0.2146  0.7436 -0.3621
 5251TIP3   OH237167   4.139   2.966   4.996  0.2809 -0.1123 -0.1639
 5251TIP3    H137168   4.137   3.051   5.039  2.8828  1.4596 -2.7595
 5251TIP3    H237169   4.119   2.903   5.065 -0.4635  2.4849  2.1551
 5252TIP3   OH237170   0.499   0.188  15.129 -0.6727 -0.1727 -0.8415
 5252TIP3    H137171   0.576   0.195  15.185 -1.3457 -1.1620  0.2440
 5252TIP3    H237172   0.490   0.274  15.089  1.6076 -0.3129 -1.8256
 5253TIP3   OH237173   6.541   6.550  12.835 -0.1288 -0.5207 -0.3031
 5253TIP3    H137174   6.566   6.459  12.854 -0.5139 -0.1180  2.5885
 5253TIP3    H237175   6.620   6.600  12.852  0.0043 -0.2518 -1.6273
 5254TIP3   OH237176   3.335   4.640   4.854 -0.1210 -0.0910  0.1583
 5254TIP3    H137177   3.391   4.586   4.798 -0.0327 -0.4744  0.6138
 5254TIP3    H237178   3.385   4.721   4.866  0.0612 -0.1864  0.0563
 5255TIP3   OH237179   0.013   6.622  15.310  0.3683 -0.3323  0.0481
 5255TIP3    H137180  -0.035   6.544  15.339 -1.7009  0.5631 -0.7183
 5255TIP3    H237181   0.067   6.647  15.384 -1.0229 -0.9297  1.3081
 5256TIP3   OH237182   4.534   2.373   0.914  0.3502 -1.6002 -0.2046
 5256TIP3    H137183   4.584   2.422   0.849 -0.3515  0.4588  0.7474
 5256TIP3    H237184   4.450   2.356   0.871  0.3557 -1.3958 -0.2963
 5257TIP3   OH237185   4.431   3.881   5.498  0.0687  0.3528  0.1441
 5257TIP3    H137186   4.360   3.836   5.451  0.7568 -0.6862  0.0668
 5257TIP3    H237187   4.482   3.923   5.429 -1.3495  2.4984  0.3021
 5258TIP3   OH237188   4.854   6.243  13.368 -0.3676 -0.5547  0.0928
 5258TIP3    H137189   4.895   6.261  13.284 -2.0189 -2.3800 -1.1953
 5258TIP3    H237190   4.917   6.188  13.415 -0.3939 -1.5302 -0.9705
 5259TIP3   OH237191   1.336   2.636   3.138  0.1913  0.0307  0.3901
 5259TIP3    H137192   1.388   2.652   3.058  1.8121 -1.2250  1.1276
 5259TIP3    H237193   1.249   2.669   3.117  0.0321 -1.9353 -2.6119
 5260TIP3   OH237194   3.496   0.009  13.282  0.1466 -0.0129 -0.1060
 5260TIP3    H137195   3.561   0.011  13.352  1.1989  1.0623 -1.0758
 5260TIP3    H237196   3.412  -0.002  13.328  0.9490 -1.0104  1.1895
 5261TIP3   OH237197   5.848   6.665  15.098  0.8231  0.6544  0.1574
 5261TIP3    H137198   5.893   6.750  15.092  0.6005  0.9773  2.4165
 5261TIP3    H237199   5.759   6.687  15.123  1.0093 -0.2714  1.7219
 5262TIP3   OH237200   0.114   4.943  16.685 -0.4342  0.1686  0.0288
 5262TIP3    H137201   0.133   4.850  16.669 -0.2511  0.2339 -0.1376
 5262TIP3    H237202   0.098   4.979  16.597  1.8032  0.8065 -0.1642
 5263TIP3   OH237203   2.906   4.629  16.069 -0.0714 -0.1723  0.4476
 5263TIP3    H137204   2.856   4.689  16.124  0.7416  0.3199  0.6803
 5263TIP3    H237205   2.964   4.685  16.019 -1.5936 -0.5094 -1.8349
 5264TIP3   OH237206   2.293   4.549  13.628  0.0918  0.2779  0.5770
 5264TIP3    H137207   2.238   4.483  13.669  0.3434  0.1917  0.7794
 5264TIP3    H237208   2.232   4.609  13.586 -0.1337 -0.1088  0.3527
 5265TIP3   OH237209   2.122   2.505  16.931 -0.1205 -0.4781 -0.2450
 5265TIP3    H137210   2.069   2.574  16.971  0.5884  0.5981 -1.1064
 5265TIP3    H237211   2.059   2.448  16.887 -1.0268 -2.1304  2.8668
 5266TIP3   OH237212   1.051   1.467   3.340 -0.6002  0.3185  0.1245
 5266TIP3    H137213   1.016   1.501   3.258 -0.7864  0.0440  0.0893
 5266TIP3    H237214   1.120   1.529   3.364 -1.5969  1.2837  0.5875
 5267TIP3   OH237215   0.845   5.175   3.828  0.0148  0.0475  0.5787
 5267TIP3    H137216   0.935   5.165   3.798 -0.0701  1.0659 -0.0962
 5267TIP3    H237217   0.851   5.176   3.924  0.5453 -1.1843  0.5739
 5268TIP3   OH237218   6.737   5.937  15.501 -0.6864 -0.5649  0.0803
 5268TIP3    H137219   6.742   5.973  15.412 -0.8238 -0.5968  0.0594
 5268TIP3    H237220   6.792   5.995  15.553  1.8518 -2.2462 -0.5552
 5269TIP3   OH237221   3.558   5.943   1.689  0.7715 -0.6561 -0.6915
 5269TIP3    H137222   3.541   5.925   1.781  0.3110  1.1434 -0.3881
 5269TIP3    H237223   3.632   6.004   1.690 -0.8050  1.3717 -1.3232
 5270TIP3   OH237224   0.967   1.037   5.917 -0.1292 -0.0657  0.2089
 5270TIP3    H137225   0.954   1.131   5.924  1.4489  0.1676  0.3388
 5270TIP3    H237226   1.062   1.025   5.923 -0.1141 -1.4977 -1.9067
 5271TIP3   OH237227   6.244   6.770  15.104 -0.0852  0.1445 -0.2839
 5271TIP3    H137228   6.198   6.778  15.187 -1.4311 -1.1499 -0.8821
 5271TIP3    H237229   6.244   6.859  15.068  2.2198  1.1565  1.9130
 5272TIP3   OH237230   5.441   3.705   1.891  0.3334  0.2976 -0.1942
 5272TIP3    H137231   5.530   3.736   1.877  1.3611 -2.3387 -0.1340
 5272TIP3    H237232   5.419   3.659   1.809 -0.6551  0.2552  0.0866
 5273TIP3   OH237233   6.034   4.963  14.084 -0.3839  0.7987 -0.2419
 5273TIP3    H137234   6.122   4.926  14.090 -1.0793 -0.9303  0.0022
 5273TIP3    H237235   6.026   4.995  13.994 -0.6949 -2.3652 -1.4590
 5274TIP3   OH237236   6.465   4.429   1.784 -0.3496  0.5700 -0.0526
 5274TIP3    H137237   6.493   4.420   1.693  0.1749  0.2272  0.1413
 5274TIP3    H237238   6.540   4.401   1.835 -0.8357  0.2293  0.4865
 5275TIP3   OH237239   5.116   0.626   4.879  0.1143  0.0168 -0.0010
 5275TIP3    H137240   5.116   0.674   4.962  0.6617 -0.8582  0.5306
 5275TIP3    H237241   5.093   0.536   4.904 -0.7024 -0.0452 -0.9402
 5276TIP3   OH237242   0.610   1.232  14.555  0.7611 -0.3573 -0.6398
 5276TIP3    H137243   0.664   1.164  14.595  1.4652 -1.3452 -3.0565
 5276TIP3    H237244   0.649   1.246  14.469 -0.0442  2.3508 -0.6542
 5277TIP3   OH237245   5.315   3.901  11.800  0.5686  0.2990  0.0922
 5277TIP3    H137246   5.299   3.930  11.889  0.5325  0.0603  0.1636
 5277TIP3    H237247   5.348   3.979  11.755  0.0743  0.5578  0.1731
 5278TIP3   OH237248   2.716   5.949  14.576  0.5151 -0.4113 -0.2095
 5278TIP3    H137249   2.663   5.910  14.645 -0.0592 -0.1734 -0.5059
 5278TIP3    H237250   2.781   6.002  14.622 -0.6159  0.7265  0.1456
 5279TIP3   OH237251   0.468   2.974  14.428 -0.6476  0.2395 -0.6870
 5279TIP3    H137252   0.496   3.054  14.474 -1.9705  1.6689 -2.2283
 5279TIP3    H237253   0.400   2.937  14.484  2.4410 -2.0367  1.9532
 5280TIP3   OH237254   0.444   0.853  12.749 -0.5484 -0.0100  0.1316
 5280TIP3    H137255   0.496   0.773  12.759 -0.5372 -0.1625 -1.0269
 5280TIP3    H237256   0.432   0.885  12.839 -2.1658 -2.3093  0.8342
 5281TIP3   OH237257   2.654   1.251   0.432  0.5727  0.1694 -0.3874
 5281TIP3    H137258   2.609   1.183   0.482 -0.6633  1.6395  0.5781
 5281TIP3    H237259   2.727   1.205   0.390  0.8567 -1.4136  1.6584
 5282TIP3   OH237260   4.099   5.335  12.093 -0.2628 -0.1500  0.8323
 5282TIP3    H137261   4.112   5.331  11.998  0.5608  0.0697  0.9224
 5282TIP3    H237262   4.132   5.251  12.125  0.2855  0.1194  0.9975
 5283TIP3   OH237263   5.328   1.696  13.518  0.5714 -0.3027 -0.0562
 5283TIP3    H137264   5.357   1.636  13.586 -0.3751 -0.3280  0.3439
 5283TIP3    H237265   5.233   1.684  13.514  0.2523  1.6693  0.5349
 5284TIP3   OH237266   2.719   1.156  12.524 -0.7608 -0.0930 -0.3237
 5284TIP3    H137267   2.766   1.206  12.591 -0.3983 -1.5130  0.5266
 5284TIP3    H237268   2.675   1.222  12.471  1.4855  1.2432 -0.6205
 5285TIP3   OH237269   5.493   5.055   1.948  0.2554  0.9429  0.2736
 5285TIP3    H137270   5.512   5.137   1.994  0.5325  1.0702 -0.0613
 5285TIP3    H237271   5.572   5.037   1.897  0.6479 -0.1542  1.2401
 5286TIP3   OH237272   4.676   1.581  16.292  0.0159  0.1798 -0.1564
 5286TIP3    H137273   4.764   1.606  16.262  0.4746 -1.1534  0.0418
 5286TIP3    H237274   4.650   1.509  16.235 -0.7512  0.2419  0.1018
 5287TIP3   OH237275   1.300   3.199   5.231 -0.1559  0.1804 -0.3376
 5287TIP3    H137276   1.280   3.229   5.320  0.7348  2.0338 -0.7184
 5287TIP3    H237277   1.354   3.269   5.193  0.9894 -1.3740 -1.7456
 5288TIP3   OH237278   5.583   6.028   5.768  0.3135  0.0079  0.2073
 5288TIP3    H137279   5.590   5.940   5.805  0.5461  0.8520  2.3198
 5288TIP3    H237280   5.658   6.075   5.806 -0.7494  1.5574  0.4532
 5289TIP3   OH237281   2.162   2.903   2.590 -0.6850  0.4084 -0.0890
 5289TIP3    H137282   2.232   2.965   2.610 -0.6073  0.1583  0.4333
 5289TIP3    H237283   2.182   2.872   2.502 -1.0258  1.5269 -0.5784
 5290TIP3   OH237284   0.438   1.352   3.729  0.2803 -0.6201 -0.1687
 5290TIP3    H137285   0.410   1.431   3.776  1.6051  0.0953 -0.5173
 5290TIP3    H237286   0.482   1.386   3.651  1.9133 -1.6505  0.2682
 5291TIP3   OH237287   4.191   5.656   1.146  0.4449  0.1211  0.3962
 5291TIP3    H137288   4.167   5.745   1.120 -0.5080  0.1664  1.3541
 5291TIP3    H237289   4.214   5.612   1.065 -2.2899  0.2780 -0.5473
 5292TIP3   OH237290   1.177   6.124  16.590  0.4592 -0.0686  0.8301
 5292TIP3    H137291   1.128   6.042  16.586 -0.7375  0.6526 -1.2726
 5292TIP3    H237292   1.176   6.149  16.682 -1.1446 -1.2752  1.1756
 5293TIP3   OH237293   3.720   5.826  16.617 -0.1867 -0.1559 -0.3653
 5293TIP3    H137294   3.781   5.899  16.616  0.3175 -0.5475  0.3872
 5293TIP3    H237295   3.641   5.861  16.659 -0.1800  0.1283 -0.5898
 5294TIP3   OH237296   2.474   0.552   5.123 -0.5285 -0.2865 -0.3244
 5294TIP3    H137297   2.513   0.471   5.155  0.9612  1.3966  2.6829
 5294TIP3    H237298   2.535   0.584   5.056 -1.7845 -2.1285 -2.4770
 5295TIP3   OH237299   5.922   2.706  15.653 -0.2664  0.1274 -0.2935
 5295TIP3    H137300   5.869   2.759  15.713 -0.9627  1.7846 -2.2492
 5295TIP3    H237301   6.012   2.716  15.685 -0.4830  1.8893 -0.1247
 5296TIP3   OH237302   6.243   5.700   5.097  0.3145 -0.3254 -0.0643
 5296TIP3    H137303   6.188   5.644   5.043  0.1388 -0.4962  0.2863
 5296TIP3    H237304   6.318   5.722   5.042 -0.6019  0.7635 -0.9290
 5297TIP3   OH237305   5.332   1.122  15.532 -0.3153 -0.2301 -0.0165
 5297TIP3    H137306   5.314   1.213  15.508  0.5468 -0.1896 -0.5390
 5297TIP3    H237307   5.359   1.127  15.624 -1.7382 -0.1572  0.4289
 5298TIP3   OH237308   5.100   5.214  13.220 -0.0138 -0.0203  0.3447
 5298TIP3    H137309   5.139   5.283  13.275  1.8355 -1.4409  0.9035
 5298TIP3    H237310   5.174   5.178  13.171 -0.8992 -1.7737  0.2496
 5299TIP3   OH237311   0.759   5.299  16.912  0.3074 -0.4429 -0.4478
 5299TIP3    H137312   0.673   5.269  16.882 -0.4186 -0.1685  1.2346
 5299TIP3    H237313   0.766   5.265  17.001  0.6046  2.0702  0.5539
 5300TIP3   OH237314   1.732   4.971  15.411 -0.2369 -0.2340 -0.3255
 5300TIP3    H137315   1.761   4.881  15.426 -1.5600 -0.6385 -0.1043
 5300TIP3    H237316   1.662   4.964  15.347  0.4745  0.7811 -1.2660
 5301TIP3   OH237317   4.156   3.287   0.090  1.3035  0.1506  0.4397
 5301TIP3    H137318   4.160   3.210   0.033 -1.3453  1.0875 -1.1519
 5301TIP3    H237319   4.189   3.359   0.036 -0.7238  0.9511  0.1941
 5302TIP3   OH237320   1.701   3.877  13.568 -0.8850  0.0418 -0.1503
 5302TIP3    H137321   1.763   3.930  13.517 -0.8342 -0.5541 -0.7249
 5302TIP3    H237322   1.653   3.826  13.502 -1.5302  0.0113  0.3348
 5303TIP3   OH237323   5.843   4.194  10.664  0.2732 -0.7652 -0.2756
 5303TIP3    H137324   5.921   4.167  10.713 -0.0978 -0.3274  0.5943
 5303TIP3    H237325   5.862   4.283  10.635  0.4035 -0.9425 -0.7360
 5304TIP3   OH237326   1.958   5.100  15.858  0.2558  0.1437 -0.3156
 5304TIP3    H137327   1.882   5.126  15.806  0.4454  1.0535 -0.1578
 5304TIP3    H237328   1.936   5.125  15.947  1.0236  1.1107 -0.3714
 5305TIP3   OH237329   4.157   5.551  12.518 -0.2052  0.5610  0.0212
 5305TIP3    H137330   4.139   5.644  12.529 -2.2929  0.4245 -1.6563
 5305TIP3    H237331   4.090   5.521  12.457  0.9570 -1.8697 -0.1560
 5306TIP3   OH237332   1.452   4.433   0.469  0.0001  0.2202 -0.0824
 5306TIP3    H137333   1.536   4.479   0.458  0.4998 -0.0890  2.0304
 5306TIP3    H237334   1.393   4.478   0.408  1.5005  0.9229 -1.0967
 5307TIP3   OH237335   4.255   1.586  14.372  0.5551  0.8313 -0.0740
 5307TIP3    H137336   4.252   1.650  14.444 -0.4825  0.5320  0.1689
 5307TIP3    H237337   4.169   1.544  14.375  0.8960  0.0705 -0.8248
 5308TIP3   OH237338   1.025   1.244  13.709 -0.1273  0.3533 -0.3221
 5308TIP3    H137339   1.114   1.278  13.704  0.1094  0.0009  1.2637
 5308TIP3    H237340   0.970   1.322  13.700  0.2618  0.4504 -2.5092
 5309TIP3   OH237341   3.171   1.701  16.319  0.2869  0.3551  0.0213
 5309TIP3    H137342   3.183   1.766  16.249  1.3577  1.0991  0.8537
 5309TIP3    H237343   3.150   1.753  16.396  1.6710 -0.2072  0.8258
 5310TIP3   OH237344   4.005   0.466  11.668  0.2022 -0.9079  0.1636
 5310TIP3    H137345   3.979   0.521  11.594  1.1484 -1.8317 -0.8902
 5310TIP3    H237346   4.023   0.529  11.739  0.2912  0.0708 -0.6997
 5311TIP3   OH237347   1.323   1.922   5.886 -0.7269  0.5225  0.0111
 5311TIP3    H137348   1.228   1.933   5.878 -1.1869 -1.5441  1.7002
 5311TIP3    H237349   1.342   1.845   5.833 -0.4863 -0.6432  1.6901
 5312TIP3   OH237350   4.906   6.682  12.426  0.1179  0.1931 -0.0068
 5312TIP3    H137351   4.833   6.661  12.484 -1.7967  2.5287 -1.3611
 5312TIP3    H237352   4.909   6.778  12.426  2.7713  0.1807 -0.5813
 5313TIP3   OH237353   0.938   5.429   4.962 -0.3222 -0.1553 -0.6672
 5313TIP3    H137354   0.954   5.460   5.052 -1.1543 -0.5844 -0.3520
 5313TIP3    H237355   0.874   5.491   4.927 -1.1342 -0.8330 -0.4284
 5314TIP3   OH237356   0.821   1.544   1.529  0.5883 -0.0943 -0.3459
 5314TIP3    H137357   0.772   1.471   1.566  0.0262 -1.1608 -2.9783
 5314TIP3    H237358   0.782   1.622   1.569 -0.3681 -1.1039  0.7753
 5315TIP3   OH237359   0.677   5.593  14.945 -0.2302  0.2887 -0.1342
 5315TIP3    H137360   0.677   5.583  15.040  2.4911  0.3696 -0.0457
 5315TIP3    H237361   0.740   5.663  14.928 -1.3150  0.9037 -1.9968
 5316TIP3   OH237362   0.353   4.988   0.838  0.0457 -0.0533 -0.0928
 5316TIP3    H137363   0.359   4.894   0.857  0.6318 -0.0424 -0.2190
 5316TIP3    H237364   0.341   5.029   0.923 -0.6078 -0.2676 -0.0710
 5317TIP3   OH237365   5.529   2.003  13.778 -0.3641  0.0813 -0.2007
 5317TIP3    H137366   5.564   1.916  13.759  0.4565  0.0780  1.2327
 5317TIP3    H237367   5.600   2.049  13.822  0.1718  2.4328 -3.2119
 5318TIP3   OH237368   4.674   5.512   1.840 -0.4613  0.2363 -0.3757
 5318TIP3    H137369   4.744   5.577   1.829 -0.1277 -0.0508 -0.0023
 5318TIP3    H237370   4.596   5.563   1.862 -0.2263  0.5182 -0.1935
 5319TIP3   OH237371   6.625   6.140   3.684 -0.1351 -0.3363 -1.1588
 5319TIP3    H137372   6.586   6.081   3.619 -0.9981 -1.5305  0.3778
 5319TIP3    H237373   6.608   6.228   3.650 -1.6823 -0.9098 -1.9451
 5320TIP3   OH237374   0.802   2.462  13.986 -0.5026 -0.4852 -0.2688
 5320TIP3    H137375   0.862   2.452  13.912  2.3321 -0.4798  1.8599
 5320TIP3    H237376   0.757   2.545  13.970  0.5434 -0.1500 -1.6308
 5321TIP3   OH237377   5.147   5.706   2.850 -0.0974  0.4814 -0.1394
 5321TIP3    H137378   5.098   5.788   2.839  0.8190  1.4377  2.1820
 5321TIP3    H237379   5.081   5.641   2.875 -0.8171  0.4838 -1.8950
 5322TIP3   OH237380   1.875   3.805  15.222  0.2389  0.6969 -0.4453
 5322TIP3    H137381   1.809   3.875  15.220  0.9061  1.5228  2.0606
 5322TIP3    H237382   1.824   3.724  15.218 -0.9840  1.3149  1.3377
 5323TIP3   OH237383   4.510   0.765  12.413  0.2867  0.9510 -0.5576
 5323TIP3    H137384   4.595   0.806  12.397  0.7075  0.3758  0.1136
 5323TIP3    H237385   4.456   0.835  12.451  0.3922  1.3707 -1.1780
 5324TIP3   OH237386   2.211   2.468  13.105  0.6688 -0.5240  0.2673
 5324TIP3    H137387   2.179   2.417  13.030  0.5694  2.0336 -1.5315
 5324TIP3    H237388   2.299   2.435  13.119  1.5667  0.3853 -2.4974
 5325TIP3   OH237389   4.414   6.755   4.298 -0.3166 -0.2873  0.3330
 5325TIP3    H137390   4.332   6.726   4.258 -0.8315  0.9983  0.4042
 5325TIP3    H237391   4.474   6.682   4.285 -1.0132 -0.6500 -1.1230
 5326TIP3   OH237392   3.249   0.742  16.532 -1.1161  0.3123  0.7189
 5326TIP3    H137393   3.237   0.758  16.626 -1.1935 -0.2441  0.8067
 5326TIP3    H237394   3.209   0.657  16.517  0.7321 -0.5906  0.5899
 5327TIP3   OH237395   4.578   2.124   4.396 -0.2348  0.3752 -0.2788
 5327TIP3    H137396   4.505   2.084   4.442 -0.2094 -0.0689 -0.6138
 5327TIP3    H237397   4.558   2.217   4.396 -0.1154  0.4175  0.8305
 5328TIP3   OH237398   1.597   4.038  11.932 -0.2650  0.2143 -0.4366
 5328TIP3    H137399   1.584   4.016  12.025 -2.4525  2.4862 -0.0873
 5328TIP3    H237400   1.652   3.967  11.898  1.3945 -0.2406  2.7717
 5329TIP3   OH237401   4.586   0.105  14.161 -0.0184  0.3993 -0.3777
 5329TIP3    H137402   4.524   0.038  14.192  0.6318  0.3922  0.9669
 5329TIP3    H237403   4.555   0.187  14.199  0.5221  0.4686 -0.0658
 5330TIP3   OH237404   1.146   2.710   1.839 -0.3631  0.0337  0.3638
 5330TIP3    H137405   1.114   2.784   1.890 -1.4821 -1.1629  1.4878
 5330TIP3    H237406   1.206   2.748   1.776 -0.8966  1.8855  0.9161
 5331TIP3   OH237407   0.605   2.909   4.654  0.0706  0.2597  0.2853
 5331TIP3    H137408   0.679   2.879   4.707 -0.7715 -0.2571  1.1890
 5331TIP3    H237409   0.542   2.944   4.717 -0.8854 -0.2192 -0.3730
 5332TIP3   OH237410   5.153   5.158  12.874  0.5739  0.2110  0.1824
 5332TIP3    H137411   5.147   5.110  12.791 -0.4678 -0.8680  0.8520
 5332TIP3    H237412   5.063   5.165  12.905  0.9572  0.4933  1.2833
 5333TIP3   OH237413   0.955   0.659   5.443 -0.4648 -0.1786 -0.3950
 5333TIP3    H137414   0.871   0.638   5.402 -0.4576 -0.9743 -0.0269
 5333TIP3    H237415   1.004   0.577   5.439 -0.0097  0.0674  0.1164
 5334TIP3   OH237416   6.635   0.167   1.948 -0.2174 -0.0998 -0.2960
 5334TIP3    H137417   6.644   0.248   1.998  0.7347  0.7080 -1.7069
 5334TIP3    H237418   6.579   0.111   2.002  0.5140  0.8296  1.5118
 5335TIP3   OH237419   3.338   0.422  12.103  0.1989  0.3558 -0.6669
 5335TIP3    H137420   3.390   0.363  12.049  1.6501  0.9871 -0.0114
 5335TIP3    H237421   3.270   0.366  12.142  0.5337 -0.5345 -1.3385
 5336TIP3   OH237422   6.161   2.858  13.249  0.2949 -0.1728 -0.5395
 5336TIP3    H137423   6.165   2.905  13.165 -0.8409  1.1141  0.0957
 5336TIP3    H237424   6.174   2.766  13.225  0.4714  0.2203 -2.0714
 5337TIP3   OH237425   5.534   4.860  16.534 -0.1608 -0.0823  0.5535
 5337TIP3    H137426   5.597   4.809  16.585  0.6312  0.8225  0.5209
 5337TIP3    H237427   5.569   4.859  16.445 -0.1945  0.4270  0.5333
 5338TIP3   OH237428   4.510   3.070   1.305 -0.7392  0.2300  0.5321
 5338TIP3    H137429   4.503   3.107   1.217  0.6044 -0.2055  0.2224
 5338TIP3    H237430   4.471   2.983   1.298 -2.1542  0.8140  0.7971
 5339TIP3   OH237431   3.140   3.105   5.492  0.2654  0.2187 -0.2135
 5339TIP3    H137432   3.195   3.104   5.414 -0.5768 -2.4701 -0.8862
 5339TIP3    H237433   3.195   3.142   5.561  1.2921  1.9173 -1.8622
 5340TIP3   OH237434   1.808   3.544  15.830  0.3175 -0.0718 -0.6653
 5340TIP3    H137435   1.727   3.594  15.835  0.9510  0.9246  0.1582
 5340TIP3    H237436   1.785   3.456  15.861 -0.0344  0.7686  1.6551
 5341TIP3   OH237437   3.395   5.847   1.900  0.1289  0.0969  0.2952
 5341TIP3    H137438   3.342   5.794   1.840  0.8842  0.4214 -0.6724
 5341TIP3    H237439   3.344   5.928   1.911  0.4078  0.3969 -0.6103
 5342TIP3   OH237440   2.342   0.148  11.405 -0.1270  0.4664 -0.0991
 5342TIP3    H137441   2.295   0.067  11.421  3.1217 -1.5111  0.4190
 5342TIP3    H237442   2.396   0.129  11.328  1.3876  1.7676  0.5815
 5343TIP3   OH237443   4.090   2.110   5.401 -0.1209 -0.4112 -0.6865
 5343TIP3    H137444   4.169   2.072   5.439  0.2337  1.7813  0.9858
 5343TIP3    H237445   4.118   2.139   5.314  0.4683 -1.0518 -0.7202
 5344TIP3   OH237446   3.108   4.821  11.197  0.1334  0.2272 -0.1731
 5344TIP3    H137447   3.091   4.743  11.249 -1.5811  1.3611  1.0759
 5344TIP3    H237448   3.177   4.867  11.245 -0.0406  0.2931  0.0161
 5345TIP3   OH237449   4.395   6.530  11.863  0.4746 -0.0178 -0.0818
 5345TIP3    H137450   4.315   6.551  11.910 -0.3463 -0.8864 -1.0178
 5345TIP3    H237451   4.456   6.499  11.930 -0.0535  0.4407  0.6114
 5346TIP3   OH237452   0.860   2.743   2.587 -0.4477  0.2425  0.3472
 5346TIP3    H137453   0.782   2.735   2.642 -0.7311  0.5209 -0.0065
 5346TIP3    H237454   0.921   2.795   2.639 -0.0244 -0.9725  1.1228
 5347TIP3   OH237455   2.832   5.050  14.374 -0.7181 -0.3338 -0.4878
 5347TIP3    H137456   2.920   5.083  14.396 -1.3068  0.7816  0.2601
 5347TIP3    H237457   2.849   4.981  14.309  0.6988  0.0014 -0.5243
 5348TIP3   OH237458   5.819   2.944  14.492 -0.1027 -0.4222  0.3562
 5348TIP3    H137459   5.880   2.871  14.493 -0.1162 -0.4457 -0.2025
 5348TIP3    H237460   5.734   2.905  14.513 -0.3890 -0.8442 -1.4103
 5349TIP3   OH237461   3.226   5.483   4.720  0.3528  0.4097 -0.2717
 5349TIP3    H137462   3.170   5.561   4.719 -0.2706 -0.0301 -1.1095
 5349TIP3    H237463   3.229   5.455   4.628 -1.2234 -1.8041  0.2778
 5350TIP3   OH237464   2.404   1.887   2.493 -0.0337  0.0169 -0.0970
 5350TIP3    H137465   2.349   1.912   2.568  1.2509 -0.5773  1.0965
 5350TIP3    H237466   2.361   1.809   2.458 -1.1426  0.8128 -0.5638
 5351TIP3   OH237467   2.155   6.700  11.013  0.0511 -0.4048 -0.2591
 5351TIP3    H137468   2.118   6.657  10.936  0.0020  0.5797 -0.7903
 5351TIP3    H237469   2.250   6.701  10.997  0.0161  0.0686 -0.4541
 5352TIP3   OH237470   4.987   2.429  13.714  0.1117  0.2743 -0.4783
 5352TIP3    H137471   4.979   2.399  13.804  0.7593  0.9241 -0.1948
 5352TIP3    H237472   4.980   2.524  13.720  1.7419  0.4382 -0.9226
 5353TIP3   OH237473   3.082   3.253  12.627  0.1932 -0.2906  0.4984
 5353TIP3    H137474   3.019   3.197  12.671  1.3170 -1.3125  0.8448
 5353TIP3    H237475   3.129   3.297  12.698 -0.3397  0.7190  0.2387
 5354TIP3   OH237476   3.943   0.151   5.849  0.4592 -0.1281 -0.0969
 5354TIP3    H137477   4.017   0.141   5.908  0.2409  0.6399  0.3265
 5354TIP3    H237478   3.906   0.063   5.841  2.5646 -0.9255 -1.8815
 5355TIP3   OH237479   1.792   2.516   0.430  0.7990 -0.1921 -0.4618
 5355TIP3    H137480   1.802   2.507   0.524 -0.9500 -0.5305 -0.2699
 5355TIP3    H237481   1.863   2.465   0.392  0.6611 -1.2583  0.6779
 5356TIP3   OH237482   0.503   6.500   5.642 -0.3092  0.3393 -0.6773
 5356TIP3    H137483   0.537   6.461   5.723  0.6437 -0.3671 -1.3917
 5356TIP3    H237484   0.528   6.593   5.648  2.5628 -0.2702 -1.5089
 5357TIP3   OH237485   6.811   2.898  16.470 -0.5338 -0.3038 -0.1379
 5357TIP3    H137486   6.811   2.908  16.565 -2.3498  0.2560 -0.1782
 5357TIP3    H237487   6.878   2.960  16.440 -1.8485  1.5393  0.6044
 5358TIP3   OH237488   4.196   2.410   1.485  0.3481  0.0600 -0.1621
 5358TIP3    H137489   4.199   2.496   1.444  1.2898  0.6728  1.1339
 5358TIP3    H237490   4.120   2.413   1.543  1.1511  0.5044  0.8843
 5359TIP3   OH237491   5.654   4.107   4.374 -0.3094  0.1087 -0.2439
 5359TIP3    H137492   5.653   4.198   4.344 -1.7661  0.4349  0.6857
 5359TIP3    H237493   5.735   4.100   4.424 -0.6694  1.2359  0.5652
 5360TIP3   OH237494   1.277   6.276   0.379  0.3698 -0.0539 -0.0846
 5360TIP3    H137495   1.228   6.259   0.298 -1.7133 -2.0329  1.4668
 5360TIP3    H237496   1.297   6.370   0.375 -1.4469  0.3412 -1.9481
 5361TIP3   OH237497   3.703   1.412  14.003 -0.1820 -0.4606  0.0882
 5361TIP3    H137498   3.790   1.438  13.973 -1.0553  1.6983 -0.7405
 5361TIP3    H237499   3.671   1.352  13.935 -1.0644  2.2761 -2.0824
 5362TIP3   OH237500   0.301   3.580  15.233  0.2550 -0.7449 -0.3084
 5362TIP3    H137501   0.299   3.674  15.216  2.7941 -1.0233 -3.1228
 5362TIP3    H237502   0.330   3.572  15.324  3.4604  1.3596 -0.9646
 5363TIP3   OH237503   4.247   1.182  16.495  0.3649 -0.1483  0.5760
 5363TIP3    H137504   4.238   1.156  16.403 -1.9921 -1.1317  1.0214
 5363TIP3    H237505   4.207   1.111  16.545  0.2400  1.0605  2.2854
 5364TIP3   OH237506   0.729   0.744  11.608 -0.2384  0.1505  0.2310
 5364TIP3    H137507   0.729   0.821  11.665 -0.1509 -1.5939  2.7477
 5364TIP3    H237508   0.643   0.746  11.565 -0.9547  0.7655  1.6052
 5365TIP3   OH237509   0.522   3.944   3.000 -1.2391 -0.1658  0.3112
 5365TIP3    H137510   0.440   3.963   3.044 -2.4714 -2.5230 -0.8031
 5365TIP3    H237511   0.504   3.867   2.946  1.4564 -0.2250 -0.6886
 5366TIP3   OH237512   1.578   0.621   1.048 -0.7051  0.1863 -0.0111
 5366TIP3    H137513   1.646   0.559   1.073  0.0329 -0.0398 -2.4079
 5366TIP3    H237514   1.588   0.693   1.111  2.3309  0.5415 -0.7096
 5367TIP3   OH237515   0.187   2.829   4.377 -0.0667 -0.1662 -0.5760
 5367TIP3    H137516   0.255   2.798   4.437 -0.1543 -2.7135 -1.6951
 5367TIP3    H237517   0.141   2.896   4.428  1.8381  0.0525  1.0198
 5368TIP3   OH237518   1.920   5.796   6.339 -0.0258 -0.0864  0.4493
 5368TIP3    H137519   1.849   5.788   6.402  0.8252  0.2388  1.4748
 5368TIP3    H237520   1.990   5.742   6.374  0.0473 -0.9018 -0.8669
 5369TIP3   OH237521   0.422   2.970  13.414  0.2178 -0.0025  0.0971
 5369TIP3    H137522   0.436   3.031  13.486  1.6099  0.7707 -0.7740
 5369TIP3    H237523   0.401   3.026  13.339  2.2812 -0.4475 -0.9138
 5370TIP3   OH237524   0.334   4.104   5.602 -0.0507 -0.2053 -0.3174
 5370TIP3    H137525   0.420   4.081   5.637 -0.4921 -0.3932  0.6780
 5370TIP3    H237526   0.293   4.020   5.581  0.9563 -0.0794 -3.2791
 5371TIP3   OH237527   3.496   0.547  15.912  0.2945 -0.3080  0.4237
 5371TIP3    H137528   3.457   0.467  15.877  1.3098 -0.4159 -0.4986
 5371TIP3    H237529   3.556   0.577  15.844  1.5117  0.0887  1.6166
 5372TIP3   OH237530   3.311   1.415   4.606  0.2516 -0.0935 -0.3454
 5372TIP3    H137531   3.235   1.395   4.660  2.0740 -0.0139  2.4656
 5372TIP3    H237532   3.277   1.469   4.535 -2.4271 -0.8450  0.2847
 5373TIP3   OH237533   3.777   3.186   0.924 -0.0039 -0.3006 -0.6604
 5373TIP3    H137534   3.768   3.268   0.874  0.1151  0.9941  1.3431
 5373TIP3    H237535   3.872   3.171   0.927 -0.0712 -1.0566 -1.8226
 5374TIP3   OH237536   5.658   4.832  16.246  0.3492  0.3426 -0.1389
 5374TIP3    H137537   5.729   4.768  16.249 -1.7205 -2.0837  1.4370
 5374TIP3    H237538   5.635   4.837  16.153  0.5870 -1.2681 -0.3227
 5375TIP3   OH237539   4.820   1.935  16.059 -0.3123 -0.0438  0.7957
 5375TIP3    H137540   4.844   2.020  16.097  0.7421  0.2722 -0.4968
 5375TIP3    H237541   4.724   1.934  16.061 -0.3853  1.6182 -0.0368
 5376TIP3   OH237542   5.615   0.837   2.622 -0.0446  0.1482 -0.6967
 5376TIP3    H137543   5.620   0.826   2.528  0.2714 -1.1258 -0.5461
 5376TIP3    H237544   5.531   0.882   2.637  0.0315  0.6024 -1.5841
 5377TIP3   OH237545   2.511   5.195   0.440 -0.1055  0.4526  0.3332
 5377TIP3    H137546   2.580   5.259   0.458 -0.1793  0.2771  1.2738
 5377TIP3    H237547   2.451   5.202   0.514  0.8344 -1.9493  1.4345
 5378TIP3   OH237548   0.126   1.523  10.295 -0.5085 -0.2178  0.0573
 5378TIP3    H137549   0.154   1.554  10.208  0.5805 -1.8109 -0.2060
 5378TIP3    H237550   0.151   1.431  10.296 -0.5025 -0.2290  2.0842
 5379TIP3   OH237551   0.906   5.499  11.304 -0.0936  0.2289 -0.0860
 5379TIP3    H137552   0.931   5.532  11.390 -1.4550 -0.0263  0.4425
 5379TIP3    H237553   0.858   5.571  11.263  0.9788  0.5325 -0.8670
 5380TIP3   OH237554   3.021   4.486  14.536 -0.3310  0.2345  0.0219
 5380TIP3    H137555   3.107   4.529  14.534 -0.3634  0.4075  1.3811
 5380TIP3    H237556   2.967   4.538  14.476  1.1670 -1.4510 -2.9916
 5381TIP3   OH237557   5.281   3.324  12.013  0.0968 -0.0622 -0.0049
 5381TIP3    H137558   5.359   3.294  12.060 -1.5062  1.1224  3.8285
 5381TIP3    H237559   5.234   3.243  11.993  0.1827 -0.6167  1.8311
 5382TIP3   OH237560   0.574   5.607   3.774  0.0168 -0.0069 -0.0320
 5382TIP3    H137561   0.575   5.693   3.817 -1.1620 -0.1404  0.2722
 5382TIP3    H237562   0.665   5.595   3.744  0.0165  1.7313 -0.8456
 5383TIP3   OH237563   3.474   1.455   2.639 -0.2068 -0.8428 -0.3433
 5383TIP3    H137564   3.431   1.433   2.721  1.0269  0.2610  0.6284
 5383TIP3    H237565   3.551   1.398   2.635  2.0352  1.8086  1.3473
 5384TIP3   OH237566   1.300   2.162  13.992 -0.3915  0.0750 -0.4534
 5384TIP3    H137567   1.325   2.237  14.046 -1.3382 -1.1197  1.7384
 5384TIP3    H237568   1.369   2.097  14.008 -1.5664 -0.9330  0.7721
 5385TIP3   OH237569   3.167   5.322  15.262  0.4200 -0.1870 -0.3050
 5385TIP3    H137570   3.073   5.331  15.245 -0.0975 -2.1247  1.0838
 5385TIP3    H237571   3.185   5.381  15.335 -0.3527 -1.6231  1.1241
 5386TIP3   OH237572   3.329   5.777   0.727  0.0501  0.2512 -0.0803
 5386TIP3    H137573   3.391   5.759   0.798  0.8121  0.0272 -0.7901
 5386TIP3    H237574   3.266   5.706   0.732 -0.3053  0.6105  0.8011
 5387TIP3   OH237575   4.274   3.269   3.031 -0.1523 -0.2090  0.5008
 5387TIP3    H137576   4.200   3.216   3.000 -1.6488  2.4557 -0.8667
 5387TIP3    H237577   4.234   3.333   3.090  1.4697 -0.1492  1.5762
 5388TIP3   OH237578   0.444   3.588  15.490  0.2573  0.0817  0.1160
 5388TIP3    H137579   0.434   3.676  15.524  1.8394  0.4988 -0.4245
 5388TIP3    H237580   0.411   3.531  15.560  0.1615  1.0486  0.8759
 5389TIP3   OH237581   0.490   4.993  12.350  0.0431 -0.0157  0.0057
 5389TIP3    H137582   0.460   4.946  12.429  0.1375  1.4366  0.9347
 5389TIP3    H237583   0.430   4.964  12.281 -1.4481  0.3248  1.1025
 5390TIP3   OH237584   1.711   2.276  12.437 -0.1884 -0.1907  0.5797
 5390TIP3    H137585   1.681   2.230  12.516 -1.7782 -1.2228 -0.5754
 5390TIP3    H237586   1.643   2.341  12.420  0.5390  0.5587  0.4737
 5391TIP3   OH237587   2.191   6.806  15.996 -0.7272 -0.2427  0.1119
 5391TIP3    H137588   2.286   6.814  16.011 -0.7835 -0.0869  0.3897
 5391TIP3    H237589   2.184   6.768  15.908 -0.3933 -0.9860  0.3945
 5392TIP3   OH237590   3.362   3.020   5.870  0.0498  0.1984 -0.5798
 5392TIP3    H137591   3.414   2.964   5.813 -0.9810 -1.2401 -0.1701
 5392TIP3    H237592   3.406   3.016   5.955 -1.2476 -1.9318  0.0711
 5393TIP3   OH237593   3.653   6.606  16.152 -0.9916 -0.4254  0.3361
 5393TIP3    H137594   3.559   6.613  16.170 -0.9437 -3.2400  2.3727
 5393TIP3    H237595   3.670   6.512  16.153  1.9853  0.0348  0.7937
 5394TIP3   OH237596   5.446   3.029   5.710  0.1868 -0.9179 -0.4802
 5394TIP3    H137597   5.505   3.103   5.697 -0.7205 -0.5259 -2.8872
 5394TIP3    H237598   5.486   2.957   5.661 -1.4042 -0.5526 -2.4382
 5395TIP3   OH237599   5.269   1.268   4.896 -0.5055 -0.3431 -0.3651
 5395TIP3    H137600   5.185   1.239   4.860 -0.3380  0.8248 -1.8027
 5395TIP3    H237601   5.319   1.296   4.820  0.6935  0.2426  0.6027
 5396TIP3   OH237602   3.760   0.199   4.602 -0.7055 -0.2314 -0.7864
 5396TIP3    H137603   3.728   0.267   4.543 -1.6981 -0.6281 -0.7132
 5396TIP3    H237604   3.684   0.176   4.656  0.2387  0.3326  0.8509
 5397TIP3   OH237605   4.404   5.676  12.459  0.2208 -0.7490 -0.2640
 5397TIP3    H137606   4.317   5.640  12.477 -0.5659  1.0720 -0.1646
 5397TIP3    H237607   4.445   5.683  12.545  0.4758 -1.5529 -0.3060
 5398TIP3   OH237608   4.860   1.834  15.540 -0.5621 -0.8618  0.0154
 5398TIP3    H137609   4.906   1.915  15.518 -0.4734 -0.5837  1.1613
 5398TIP3    H237610   4.769   1.851  15.516 -0.2852 -0.9922 -1.1731
 5399TIP3   OH237611   5.745   2.434  10.790  0.2986 -0.5439  0.3770
 5399TIP3    H137612   5.699   2.364  10.744  2.4641 -0.9955 -1.2311
 5399TIP3    H237613   5.758   2.502  10.724  1.5694 -0.2727  0.8738
 5400TIP3   OH237614   5.325   0.078   5.462  0.1839  0.1563 -0.3228
 5400TIP3    H137615   5.282   0.141   5.520  1.3372  0.5500  0.1331
 5400TIP3    H237616   5.418   0.098   5.471  0.4133 -0.1408 -1.9138
 5401TIP3   OH237617   2.108   3.768  13.566 -0.3339  0.0149  0.3343
 5401TIP3    H137618   2.158   3.686  13.562 -4.0120 -2.4467 -0.9544
 5401TIP3    H237619   2.172   3.836  13.544  2.4930 -2.7420 -0.7878
 5402TIP3   OH237620   5.843   6.245  16.126  0.0765 -0.1402  0.0353
 5402TIP3    H137621   5.828   6.177  16.193  0.1236  0.5276  0.7419
 5402TIP3    H237622   5.760   6.293  16.124  0.1447 -0.0384 -0.2493
 5403TIP3   OH237623   6.426   6.441   5.768  0.0473 -0.2596  0.2136
 5403TIP3    H137624   6.485   6.408   5.700 -2.1321 -1.9138 -1.0319
 5403TIP3    H237625   6.390   6.362   5.808 -1.7848  0.6308  0.4482
 5404TIP3   OH237626   3.083   4.012   5.898 -0.4581  0.0281  0.3122
 5404TIP3    H137627   3.102   4.086   5.956 -1.0442  0.2998  0.1642
 5404TIP3    H237628   3.129   3.938   5.938  0.1143  0.4647  0.4750
 5405TIP3   OH237629   0.049   2.648   5.730 -0.4390 -0.2786  0.3533
 5405TIP3    H137630  -0.044   2.669   5.725 -0.4742 -0.2342  1.1432
 5405TIP3    H237631   0.052   2.553   5.743 -0.3564 -0.3486 -0.1475
 5406TIP3   OH237632   3.925   4.941   1.816  0.3343  0.6020 -0.2752
 5406TIP3    H137633   3.922   4.854   1.854 -0.8257 -0.1945 -2.0621
 5406TIP3    H237634   3.907   4.928   1.723 -0.9556  2.8379 -0.4330
 5407TIP3   OH237635   6.018   0.015  11.907  0.3885 -0.4051 -0.3088
 5407TIP3    H137636   6.058  -0.046  11.845 -0.0110  0.4602 -1.4317
 5407TIP3    H237637   6.059  -0.007  11.991  0.8701 -1.6522 -0.8487
 5408TIP3   OH237638   4.823   1.249   0.401  0.0424  0.7994  0.0074
 5408TIP3    H137639   4.853   1.340   0.398 -1.6435  1.5379  2.1703
 5408TIP3    H237640   4.743   1.248   0.349  1.3798 -0.1503 -2.1871
 5409TIP3   OH237641   0.442   2.460   0.347 -0.1103 -0.5253 -0.2344
 5409TIP3    H137642   0.426   2.463   0.252 -1.9380  0.4781  0.0597
 5409TIP3    H237643   0.464   2.550   0.370 -0.3084 -0.6312  0.3764
 5410TIP3   OH237644   2.524   4.167  11.774  0.4513  0.8587 -0.0066
 5410TIP3    H137645   2.450   4.144  11.830 -1.0812  0.6087 -2.0047
 5410TIP3    H237646   2.547   4.085  11.729 -0.9725  1.7201 -2.5633
 5411TIP3   OH237647   0.800   1.220   3.184  0.0030 -0.1528  0.3391
 5411TIP3    H137648   0.760   1.206   3.099 -1.1637  0.8358  0.6898
 5411TIP3    H237649   0.894   1.226   3.166 -0.1454 -0.7631 -0.7434
 5412TIP3   OH237650   6.195   3.288   0.458  0.3544  0.2471 -0.0704
 5412TIP3    H137651   6.132   3.282   0.530 -0.8872  1.3905 -1.0132
 5412TIP3    H237652   6.238   3.202   0.456 -1.3608 -0.6609  0.4486
 5413TIP3   OH237653   4.918   5.862  14.450  0.1218 -0.4980  0.2686
 5413TIP3    H137654   4.907   5.939  14.505 -0.7075 -0.9668  0.7818
 5413TIP3    H237655   4.842   5.807  14.469  0.3034 -1.1053 -0.6469
 5414TIP3   OH237656   5.625   2.827   4.247  0.4730  0.0426 -0.2448
 5414TIP3    H137657   5.555   2.866   4.299 -1.5201 -1.7125 -1.4544
 5414TIP3    H237658   5.688   2.898   4.234 -0.6472  1.4522  1.6011
 5415TIP3   OH237659   1.875   4.944   2.868 -0.2834  0.1795  0.0165
 5415TIP3    H137660   1.825   5.025   2.866  0.1974  0.5065  0.5847
 5415TIP3    H237661   1.963   4.969   2.840 -0.5130 -0.4555 -1.3158
 5416TIP3   OH237662   0.851   1.823   2.621  0.1166 -0.0178 -0.1323
 5416TIP3    H137663   0.800   1.866   2.690  0.0009  0.1350 -0.3122
 5416TIP3    H237664   0.867   1.892   2.557  2.6861  0.6501  1.0539
 5417TIP3   OH237665   5.943   1.051  16.131 -0.0093 -0.2762  0.1233
 5417TIP3    H137666   5.874   1.094  16.181  1.3748  2.6711 -0.3281
 5417TIP3    H237667   5.902   1.030  16.047 -1.3588 -2.1214  1.1565
 5418TIP3   OH237668   0.586   0.628   0.698  0.4074 -0.3148  0.0624
 5418TIP3    H137669   0.500   0.630   0.741 -0.4187  0.3139 -1.5063
 5418TIP3    H237670   0.644   0.586   0.761 -0.3875  1.8068  2.3455
 5419TIP3   OH237671   3.630   4.587   5.712  0.1721 -0.2972 -0.4082
 5419TIP3    H137672   3.554   4.637   5.684  1.2934  1.1781 -0.9597
 5419TIP3    H237673   3.629   4.592   5.807  0.3052  0.8803 -0.4533
 5420TIP3   OH237674   2.853   0.024   6.338  0.7745 -0.3937  0.4713
 5420TIP3    H137675   2.826   0.078   6.413  0.7806 -1.2044  1.0663
 5420TIP3    H237676   2.889  -0.056   6.377  0.3429 -1.0321 -0.4042
 5421TIP3   OH237677   0.221   0.568   5.031 -0.0825  0.7137 -0.2507
 5421TIP3    H137678   0.143   0.599   5.077 -1.2071 -0.3682 -1.3488
 5421TIP3    H237679   0.187   0.510   4.963  1.6212  1.1039 -1.4862
 5422TIP3   OH237680   0.506   1.565  15.942  0.7281 -0.5849 -0.3402
 5422TIP3    H137681   0.547   1.480  15.958 -2.2584 -1.8402  1.7858
 5422TIP3    H237682   0.477   1.594  16.029 -1.2248  0.9778 -1.4204
 5423TIP3   OH237683   6.615   0.289  11.931  0.4069  0.2365  0.1779
 5423TIP3    H137684   6.664   0.213  11.962  0.7173  0.3771  0.0420
 5423TIP3    H237685   6.611   0.347  12.007  0.4739  0.2329  0.1849
 5424TIP3   OH237686   0.408   0.947  11.618  0.3514 -0.1309  0.3334
 5424TIP3    H137687   0.479   0.908  11.567  0.5241  0.2975  0.2456
 5424TIP3    H237688   0.329   0.927  11.569  0.5639  0.6957 -0.3597
 5425TIP3   OH237689   2.194   0.762   5.637 -0.2879  0.0578 -0.4429
 5425TIP3    H137690   2.196   0.838   5.694  0.0608  0.1854 -0.6236
 5425TIP3    H237691   2.286   0.738   5.625 -0.3492  0.0630 -0.9877
 5426TIP3   OH237692   5.374   3.912   2.180  0.1269  0.0470  0.0267
 5426TIP3    H137693   5.435   3.889   2.110  0.2957  2.4822 -0.7421
 5426TIP3    H237694   5.306   3.964   2.136 -1.7089 -1.3028  1.1218
 5427TIP3   OH237695   0.581   1.711   6.138  0.2781 -0.3230  0.4707
 5427TIP3    H137696   0.675   1.717   6.126  0.0214  1.6060 -1.0788
 5427TIP3    H237697   0.558   1.784   6.194 -0.3327 -0.6626  0.6775
 5428TIP3   OH237698   0.365   3.577  12.153  0.1779  0.1028 -0.7672
 5428TIP3    H137699   0.346   3.498  12.204  2.0768  0.6334  0.8677
 5428TIP3    H237700   0.320   3.647  12.200  0.1963  0.3015 -1.0429
 5429TIP3   OH237701   4.295   4.472   1.142  0.1814 -0.1220 -0.5016
 5429TIP3    H137702   4.258   4.393   1.181 -0.1865 -0.4814 -1.5492
 5429TIP3    H237703   4.379   4.484   1.187 -1.3785  1.0527  2.3713
 5430TIP3   OH237704   2.089   4.749  15.220  0.0620 -0.3446  0.3234
 5430TIP3    H137705   2.089   4.670  15.165 -0.2584  0.1780 -0.4376
 5430TIP3    H237706   2.065   4.717  15.307 -1.4073 -0.9187 -0.2579
 5431TIP3   OH237707   3.551   4.949  12.877  0.2748 -0.0627 -0.1095
 5431TIP3    H137708   3.558   4.880  12.943  2.0011 -0.0793 -0.2547
 5431TIP3    H237709   3.493   5.014  12.916  0.0749 -0.7620  0.7899
 5432TIP3   OH237710   5.733   2.710  13.546 -0.0792 -0.0082  0.3113
 5432TIP3    H137711   5.711   2.676  13.460 -0.3143  0.5673  0.1352
 5432TIP3    H237712   5.716   2.804  13.539 -0.9812 -0.0804  1.2517
 5433TIP3   OH237713   6.392   1.384   0.907  0.4078 -0.1699  0.2956
 5433TIP3    H137714   6.349   1.338   0.835  0.4227 -0.1041  0.2451
 5433TIP3    H237715   6.393   1.320   0.978  1.2678 -0.5737 -0.0713
 5434TIP3   OH237716   6.756   0.149   2.806  0.2620  0.7183 -0.3813
 5434TIP3    H137717   6.681   0.204   2.783 -0.4154 -0.0588 -0.1131
 5434TIP3    H237718   6.776   0.101   2.726 -0.4233 -0.0745 -0.0977
 5435TIP3   OH237719   1.886   0.538  10.834 -0.1013  0.1773  0.1288
 5435TIP3    H137720   1.957   0.503  10.781 -0.9986 -0.6179 -0.5920
 5435TIP3    H237721   1.829   0.462  10.851 -0.4554  0.6622  1.2221
 5436TIP3   OH237722   1.021   1.901  15.613 -0.2193  0.1746 -0.0782
 5436TIP3    H137723   1.109   1.905  15.577 -0.5311 -0.2100 -0.8992
 5436TIP3    H237724   0.967   1.949  15.550 -1.0510 -1.9054 -1.0206
 5437TIP3   OH237725   2.276   2.013  13.596 -0.9178 -0.3264 -0.0784
 5437TIP3    H137726   2.293   2.060  13.677  0.3117  0.3264 -0.6914
 5437TIP3    H237727   2.193   2.050  13.564 -0.1972  1.1518 -0.3216
 5438TIP3   OH237728   2.987   5.291  12.532  0.5668  0.1259 -0.2068
 5438TIP3    H137729   3.081   5.290  12.514  0.5861  3.3056 -0.7740
 5438TIP3    H237730   2.960   5.381  12.514 -2.9019 -1.0280 -1.5070
 5439TIP3   OH237731   2.420   2.085  14.126 -0.6554 -0.0349 -0.4468
 5439TIP3    H137732   2.483   2.056  14.060 -2.7502  0.4414 -2.8245
 5439TIP3    H237733   2.413   2.011  14.186 -0.8990 -1.8093 -2.5205
 5440TIP3   OH237734   2.278   5.436   2.867  0.7090  0.0975  0.7034
 5440TIP3    H137735   2.347   5.503   2.866  1.3327 -0.5389  0.7261
 5440TIP3    H237736   2.207   5.476   2.918 -0.4063  2.1794 -2.2426
 5441TIP3   OH237737   6.775   2.613   3.394 -0.2054  0.2319  0.4073
 5441TIP3    H137738   6.770   2.706   3.374  3.3347  0.6600  0.7894
 5441TIP3    H237739   6.746   2.607   3.485 -0.6413  0.9415  0.3243
 5442TIP3   OH237740   1.424   5.253   5.862  0.0251  0.6238 -0.2867
 5442TIP3    H137741   1.444   5.303   5.783 -1.1740  1.5020 -0.0689
 5442TIP3    H237742   1.338   5.286   5.890  0.0180 -0.3079  0.8753
 5443TIP3   OH237743   2.050   2.312  12.716  0.0673  0.0832  0.2229
 5443TIP3    H137744   2.016   2.399  12.692  0.4569  0.1075 -0.2783
 5443TIP3    H237745   2.126   2.331  12.772 -0.1341  0.0564  0.5024
 5444TIP3   OH237746   4.016   0.638  16.156  0.3150  0.0912 -0.4403
 5444TIP3    H137747   3.940   0.609  16.105 -0.2239  0.8154 -0.0644
 5444TIP3    H237748   3.983   0.646  16.245  0.3755  2.0714 -0.5593
 5445TIP3   OH237749   0.028   4.409   2.481  0.2308  0.0066 -0.2304
 5445TIP3    H137750  -0.041   4.470   2.504 -0.3628 -0.5417 -0.5284
 5445TIP3    H237751  -0.018   4.332   2.447  0.9701 -0.4881 -0.1389
 5446TIP3   OH237752   2.970   6.682  10.657 -0.0781 -0.4508 -0.0811
 5446TIP3    H137753   2.935   6.765  10.624  0.2576 -0.1533  0.3133
 5446TIP3    H237754   2.950   6.619  10.588 -1.2467 -0.2545  0.0549
 5447TIP3   OH237755   1.683   6.646   4.967  0.7610  0.3568 -0.3048
 5447TIP3    H137756   1.626   6.575   4.937 -1.0761  0.5873  2.3030
 5447TIP3    H237757   1.633   6.726   4.951  2.0462  0.9623 -1.5300
 5448TIP3   OH237758   1.168   3.842  13.520 -0.4710 -0.2797  0.1711
 5448TIP3    H137759   1.091   3.830  13.464 -1.4042  0.3238  1.2866
 5448TIP3    H237760   1.137   3.897  13.592  1.8628  3.0804 -1.1364
 5449TIP3   OH237761   4.655   6.374   1.513 -0.2060  0.2348  0.1482
 5449TIP3    H137762   4.671   6.351   1.421 -0.9615 -3.5332  0.8107
 5449TIP3    H237763   4.588   6.442   1.509  2.0255  2.5532 -2.0613
 5450TIP3   OH237764   6.317   6.369   6.360 -0.0291 -0.0358  0.4487
 5450TIP3    H137765   6.255   6.318   6.411  0.4127 -0.5948  0.4313
 5450TIP3    H237766   6.263   6.428   6.307 -0.6407 -1.7093 -0.8658
 5451TIP3   OH237767   0.418   5.536  11.935  0.1274  0.2370 -0.4926
 5451TIP3    H137768   0.379   5.450  11.949 -1.5429  0.9833 -0.2403
 5451TIP3    H237769   0.344   5.591  11.909  0.6717  2.1585  1.7451
 5452TIP3   OH237770   5.263   6.028  13.367  0.1445 -0.3895  0.0997
 5452TIP3    H137771   5.341   6.039  13.312 -0.3247 -1.8877 -0.9375
 5452TIP3    H237772   5.292   5.973  13.440  0.5970  1.0199  1.0243
 5453TIP3   OH237773   3.200   4.349   4.525  0.3505  0.2621 -0.2576
 5453TIP3    H137774   3.147   4.300   4.588  1.8571  0.8234  1.5204
 5453TIP3    H237775   3.207   4.290   4.450 -2.7286  0.1671 -0.6131
 5454TIP3   OH237776   3.418   0.638  10.696  0.0928 -0.0499 -0.0007
 5454TIP3    H137777   3.433   0.644  10.601  0.7953  0.8208  0.1469
 5454TIP3    H237778   3.412   0.730  10.725 -0.8668 -0.3156  0.6914
 5455TIP3   OH237779   5.960   6.812   3.720  0.0721 -0.4560  0.0299
 5455TIP3    H137780   6.038   6.796   3.772  0.9819  0.7710 -0.9082
 5455TIP3    H237781   5.958   6.906   3.707 -1.2694 -0.5229 -0.4326
 5456TIP3   OH237782   1.724   1.428  17.048 -0.2083 -0.2050  0.7790
 5456TIP3    H137783   1.778   1.354  17.076  0.9249  0.1256 -0.4232
 5456TIP3    H237784   1.760   1.503  17.094 -1.0252 -0.2923  1.5945
 5457TIP3   OH237785   4.535   0.178   3.910  0.3568  0.2616 -0.9418
 5457TIP3    H137786   4.529   0.201   4.002  1.1636  0.4091 -0.9210
 5457TIP3    H237787   4.614   0.124   3.904 -1.5994 -2.8886 -0.9036
 5458TIP3   OH237788   5.239   2.256  14.123  0.2385  0.1923 -0.2222
 5458TIP3    H137789   5.221   2.348  14.104 -0.7995 -0.2847 -1.6972
 5458TIP3    H237790   5.199   2.241  14.209 -0.4616  0.8683 -0.4209
 5459TIP3   OH237791   4.376   4.523  14.233 -0.1836  0.1725  0.1053
 5459TIP3    H137792   4.326   4.460  14.286  0.8672 -0.4286  0.4053
 5459TIP3    H237793   4.467   4.498  14.245  0.0894 -1.6815 -3.9648
 5460TIP3   OH237794   1.761   3.126   3.001 -0.0578  0.3108 -0.0582
 5460TIP3    H137795   1.708   3.121   3.081  0.7314  2.1808  0.6297
 5460TIP3    H237796   1.850   3.104   3.030 -0.1586 -1.4299 -0.9367
 5461TIP3   OH237797   6.216   0.475  14.343  0.2155 -0.2548  0.5490
 5461TIP3    H137798   6.311   0.466  14.332  0.6627  0.6758  2.9638
 5461TIP3    H237799   6.201   0.569  14.342 -0.1642 -0.2142  3.2032
 5462TIP3   OH237800   3.611   0.813   0.348  0.0050 -0.1921 -0.1045
 5462TIP3    H137801   3.672   0.771   0.409  2.5497 -0.5255 -2.6499
 5462TIP3    H237802   3.647   0.795   0.261 -3.2246  0.5272 -1.7673
 5463TIP3   OH237803   6.313   2.234  15.153 -0.0876  0.3594  0.1625
 5463TIP3    H137804   6.221   2.219  15.130  0.5124 -0.7746 -1.6684
 5463TIP3    H237805   6.313   2.238  15.249 -1.8939 -0.7728  0.2560
 5464TIP3   OH237806   3.588   4.396   1.619  0.0878 -0.3676 -0.1395
 5464TIP3    H137807   3.660   4.422   1.562 -0.0473  1.7156  0.5600
 5464TIP3    H237808   3.613   4.428   1.706 -0.7843 -1.3885  0.5174
 5465TIP3   OH237809   1.978   1.525   2.497 -0.2635  0.5254 -0.8469
 5465TIP3    H137810   1.915   1.478   2.444  0.0326  2.2847 -2.8959
 5465TIP3    H237811   1.999   1.465   2.569 -3.2428 -0.6260 -0.7889
 5466TIP3   OH237812   5.630   3.184  11.276  0.2549  0.0671 -0.6252
 5466TIP3    H137813   5.593   3.203  11.362 -1.9095 -0.5513 -1.3663
 5466TIP3    H237814   5.576   3.234  11.215  1.6897  0.4049 -1.6658
 5467TIP3   OH237815   0.265   4.763  14.711 -0.4054  0.0526  0.0901
 5467TIP3    H137816   0.266   4.676  14.673  1.0664  0.6713 -1.4220
 5467TIP3    H237817   0.221   4.817  14.646  0.1667  0.7328  0.2512
 5468TIP3   OH237818   2.910   0.568  12.231  0.4732 -0.4380  0.6253
 5468TIP3    H137819   2.855   0.519  12.293 -0.1115  0.6810  1.0154
 5468TIP3    H237820   2.883   0.659  12.241  0.9027 -0.1298 -0.7386
 5469TIP3   OH237821   0.664   5.638  16.969 -0.1405 -0.0392 -0.1564
 5469TIP3    H137822   0.668   5.551  16.931  0.3229 -0.0571 -0.0689
 5469TIP3    H237823   0.613   5.690  16.906  1.4678  0.1990 -1.3248
 5470TIP3   OH237824   2.372   1.756  15.361 -0.6150  0.0948 -0.4209
 5470TIP3    H137825   2.398   1.846  15.341 -0.3478 -0.1479 -1.2086
 5470TIP3    H237826   2.303   1.765  15.427 -0.5168  0.8699 -0.4136
 5471TIP3   OH237827   0.485   0.216   0.705  0.2669  0.3058  0.4144
 5471TIP3    H137828   0.573   0.183   0.687  0.2079 -0.3704  1.2799
 5471TIP3    H237829   0.487   0.239   0.798  0.2123  2.5236 -0.0786
 5472TIP3   OH237830   1.371   2.654   2.863  0.2016 -0.2371  0.2649
 5472TIP3    H137831   1.415   2.696   2.789  1.5318 -1.7759  0.1119
 5472TIP3    H237832   1.279   2.679   2.854  0.2242 -0.7825 -2.2454
 5473TIP3   OH237833   4.702   3.838  15.102 -1.1599 -0.7153  0.4505
 5473TIP3    H137834   4.702   3.782  15.179  1.5772 -0.6585  0.6128
 5473TIP3    H237835   4.715   3.777  15.029  1.9011 -0.4299  0.6348
 5474TIP3   OH237836   2.276   2.617  14.823 -0.1965 -0.4929 -0.1002
 5474TIP3    H137837   2.335   2.546  14.850 -0.8893 -1.1157 -0.1775
 5474TIP3    H237838   2.334   2.691  14.803  0.5423 -1.0433 -0.0319
 5475TIP3   OH237839   2.314   1.637   0.815  0.4477  0.3051  0.3251
 5475TIP3    H137840   2.327   1.571   0.747  1.0182 -1.7429  2.2950
 5475TIP3    H237841   2.242   1.603   0.868  1.2826  0.8212  1.8611
 5476TIP3   OH237842   0.550   5.104  15.600 -0.4590  0.0656 -0.3094
 5476TIP3    H137843   0.643   5.090  15.616 -0.1707  0.7601 -1.3208
 5476TIP3    H237844   0.514   5.016  15.588 -0.1216 -0.2741  0.9674
 5477TIP3   OH237845   1.689   3.585   5.508  0.2761  0.1410 -0.1905
 5477TIP3    H137846   1.753   3.575   5.437  0.1395 -2.3703 -0.0243
 5477TIP3    H237847   1.609   3.546   5.474 -0.1870  0.1650  0.8442
 5478TIP3   OH237848   4.393   2.972   4.203  0.1719 -0.3070 -0.2598
 5478TIP3    H137849   4.447   2.966   4.124  0.0675 -0.5059 -0.3166
 5478TIP3    H237850   4.440   3.032   4.260 -0.2083  0.5661 -0.8396
 5479TIP3   OH237851   3.921   2.364   4.548 -0.2786 -0.1854 -0.0411
 5479TIP3    H137852   4.014   2.360   4.527  0.3341 -0.1629  2.3689
 5479TIP3    H237853   3.904   2.285   4.599 -0.8300  1.1721  2.0303
 5480TIP3   OH237854   0.665   1.517   2.223  0.0405 -0.1638 -0.5384
 5480TIP3    H137855   0.727   1.457   2.265 -0.9233 -0.3972  0.6380
 5480TIP3    H237856   0.684   1.603   2.262  0.0320 -0.1240 -0.6228
 5481TIP3   OH237857   0.668   4.564   2.428  0.0170 -0.6152 -0.3709
 5481TIP3    H137858   0.747   4.539   2.380  0.1128 -1.1305  0.0538
 5481TIP3    H237859   0.596   4.534   2.373  0.1048  0.1085 -0.8974
 5482TIP3   OH237860   2.019   2.767  12.308 -0.1698 -0.0134  0.2968
 5482TIP3    H137861   1.926   2.757  12.288 -0.1069 -1.5160  0.6587
 5482TIP3    H237862   2.037   2.700  12.374  1.6576 -1.2572 -1.3754
 5483TIP3   OH237863   5.208   3.642  11.149  0.0137  0.2226 -0.1090
 5483TIP3    H137864   5.228   3.548  11.157 -1.7040 -0.2528 -0.8820
 5483TIP3    H237865   5.286   3.686  11.184  0.6617 -1.4861  0.7337
 5484TIP3   OH237866   5.326   6.443   2.463  0.4751 -0.0430 -0.0891
 5484TIP3    H137867   5.341   6.360   2.507  0.1778 -0.4575 -0.7439
 5484TIP3    H237868   5.341   6.510   2.530 -0.9410 -0.6870  0.9212
 5485TIP3   OH237869   3.513   5.790   0.959 -0.4476 -0.0691  0.0112
 5485TIP3    H137870   3.439   5.770   1.017 -1.1788 -3.0439 -1.7419
 5485TIP3    H237871   3.578   5.722   0.979 -0.1627 -0.3344 -1.6674
 5486TIP3   OH237872   1.730   6.204   0.760 -0.1228 -0.2867 -0.1957
 5486TIP3    H137873   1.734   6.129   0.819 -1.2233 -1.2898 -1.3576
 5486TIP3    H237874   1.685   6.172   0.683 -0.7954  1.6374 -0.6511
 5487TIP3   OH237875   2.674   5.850   1.877  0.0427  0.8116 -0.4779
 5487TIP3    H137876   2.749   5.863   1.819  1.3913 -0.6480  0.8152
 5487TIP3    H237877   2.680   5.758   1.903 -1.8934  0.8159  0.1064
 5488TIP3   OH237878   2.105   6.587  16.202 -0.4264 -0.0098 -0.8402
 5488TIP3    H137879   2.196   6.560  16.215  0.2002  1.7736 -1.2074
 5488TIP3    H237880   2.111   6.662  16.143 -2.2397 -0.5114 -1.6963
 5489TIP3   OH237881   1.238   1.196  16.111 -0.3235 -0.0453 -0.0267
 5489TIP3    H137882   1.196   1.226  16.031  0.1820 -0.2541 -0.3755
 5489TIP3    H237883   1.331   1.208  16.095 -0.2713  1.1700  1.0422
 5490TIP3   OH237884   4.948   5.503   2.770 -0.0318  0.1627 -0.3597
 5490TIP3    H137885   5.007   5.435   2.804 -1.5087 -1.0650 -0.1737
 5490TIP3    H237886   4.905   5.538   2.848 -0.2720  0.3623 -0.5844
 5491TIP3   OH237887   0.321   0.473   4.344 -0.3598  0.1754 -0.1997
 5491TIP3    H137888   0.305   0.556   4.298  0.2208  0.4250  0.0386
 5491TIP3    H237889   0.361   0.499   4.427 -1.1581 -0.2863  0.3493
 5492TIP3   OH237890   0.942   5.009   1.326 -0.3515 -0.5570 -0.5437
 5492TIP3    H137891   0.999   5.025   1.401  0.8904  0.7390 -1.7056
 5492TIP3    H237892   0.982   5.058   1.254 -1.2016 -2.1792 -2.2133
 5493TIP3   OH237893   0.946   5.772   0.580  0.7983 -0.2447 -0.2289
 5493TIP3    H137894   0.898   5.699   0.541  1.7894 -0.8199 -0.4032
 5493TIP3    H237895   0.944   5.841   0.514 -0.9560  0.2702  0.3019
 5494TIP3   OH237896   0.553   4.353  15.751  0.3049 -0.6146  0.1881
 5494TIP3    H137897   0.559   4.302  15.832  2.0964  1.0965  1.2119
 5494TIP3    H237898   0.463   4.384  15.750  0.2159 -0.7453  1.4926
 5495TIP3   OH237899   6.031   1.347   5.777  0.5921  0.2070  0.3017
 5495TIP3    H137900   5.975   1.423   5.760  0.9576  0.2483 -0.8000
 5495TIP3    H237901   6.097   1.379   5.839 -1.2453 -0.1539  2.5745
 5496TIP3   OH237902   4.779   2.464  16.037  0.0119 -0.1424  0.3068
 5496TIP3    H137903   4.695   2.473  16.082 -0.4432 -3.5598  0.3966
 5496TIP3    H237904   4.836   2.529  16.078 -1.6153 -0.1547  2.7792
 5497TIP3   OH237905   5.124   6.688   1.307 -0.1406 -0.4696 -0.6440
 5497TIP3    H137906   5.173   6.648   1.379  0.1606  0.6806 -0.1877
 5497TIP3    H237907   5.045   6.634   1.299 -0.4440 -0.3219  0.9145
 5498TIP3   OH237908   6.422   2.277   0.624  0.0008  0.4008 -0.0035
 5498TIP3    H137909   6.416   2.196   0.575  0.9254 -0.8358  1.8122
 5498TIP3    H237910   6.409   2.346   0.559  0.9626 -1.1265 -1.9046
 5499TIP3   OH237911   4.390   0.150   0.747  0.4476 -0.7150  0.0511
 5499TIP3    H137912   4.406   0.146   0.842 -0.8873 -2.0183  0.2581
 5499TIP3    H237913   4.334   0.226   0.735 -1.6106 -2.0484  0.7163
 5500TIP3   OH237914   1.314   5.841   1.888 -0.1006  0.2145 -0.2339
 5500TIP3    H137915   1.380   5.807   1.828  0.2486  1.2967 -0.4758
 5500TIP3    H237916   1.342   5.809   1.974 -0.2050 -0.7350 -0.5459
 5501TIP3   OH237917   6.209   5.075  12.227  0.5227 -0.0945 -0.4279
 5501TIP3    H137918   6.157   5.117  12.159  0.7977  0.2621 -0.4187
 5501TIP3    H237919   6.179   5.116  12.308 -0.4852 -1.1814 -0.2113
 5502TIP3   OH237920   6.058   1.948  11.448 -0.3018  0.8720 -0.3708
 5502TIP3    H137921   5.964   1.960  11.434 -0.5148 -1.5107 -1.6282
 5502TIP3    H237922   6.093   1.932  11.360  0.8642 -0.4885  0.3051
 5503TIP3   OH237923   1.199   5.605   5.369  0.4410  0.2430  0.0824
 5503TIP3    H137924   1.241   5.562   5.444 -1.6249  0.3339  1.3612
 5503TIP3    H237925   1.272   5.632   5.314  1.9595 -1.9325  0.8722
 5504TIP3   OH237926   6.474   3.430   2.134 -0.1795 -0.1719 -0.0951
 5504TIP3    H137927   6.448   3.475   2.214 -0.4931 -0.2322 -0.1587
 5504TIP3    H237928   6.392   3.421   2.084 -0.1379 -0.8838 -0.0450
 5505TIP3   OH237929   5.135   4.569   3.630  0.0255 -0.0987  0.0147
 5505TIP3    H137930   5.082   4.621   3.690  0.9741  0.8750  0.0429
 5505TIP3    H237931   5.090   4.575   3.546  0.7701  1.8673 -0.2918
 5506TIP3   OH237932   5.912   2.897  16.047 -0.1458 -0.6645  0.1571
 5506TIP3    H137933   5.933   2.890  16.140 -0.0541  2.9162  0.5740
 5506TIP3    H237934   5.992   2.933  16.008 -1.1446  0.7722 -0.6710
 5507TIP3   OH237935   1.579   6.171  12.729  0.1850  0.0676  0.7536
 5507TIP3    H137936   1.498   6.125  12.751  1.6304 -2.4548  1.2067
 5507TIP3    H237937   1.595   6.229  12.803 -1.3725  0.9250  0.4618
 5508TIP3   OH237938   6.411   3.080  11.984 -0.1870 -0.3391 -0.0832
 5508TIP3    H137939   6.501   3.107  11.963  0.2128 -2.2161 -0.9761
 5508TIP3    H237940   6.374   3.155  12.030  1.9395  0.3585  0.6109
 5509TIP3   OH237941   2.979   2.999  16.654 -0.7496  0.1876 -0.1237
 5509TIP3    H137942   2.914   2.964  16.593  0.7868 -2.5570 -0.3366
 5509TIP3    H237943   3.057   3.013  16.601 -0.3285  0.8102  0.6377
 5510TIP3   OH237944   0.351   4.744  16.916  0.0242 -0.1658 -0.2239
 5510TIP3    H137945   0.271   4.692  16.914  0.4332 -0.8583  0.9423
 5510TIP3    H237946   0.417   4.688  16.875  0.1860 -0.0758 -0.0895
 5511TIP3   OH237947   3.208   5.260   0.199 -0.1700 -0.5652 -0.2129
 5511TIP3    H137948   3.208   5.280   0.292 -0.9100 -2.9790  0.3871
 5511TIP3    H237949   3.187   5.166   0.195 -3.0920  0.0481 -2.9083
 5512TIP3   OH237950   4.574   1.691   0.453  0.0742  0.3235  0.3473
 5512TIP3    H137951   4.600   1.758   0.516 -2.0603  1.7089 -0.1206
 5512TIP3    H237952   4.558   1.739   0.372  1.1908 -1.1979 -0.8270
 5513TIP3   OH237953   4.132   1.587   4.763 -0.6216 -0.1095  0.0623
 5513TIP3    H137954   4.098   1.570   4.851 -0.3572  0.2574  0.2398
 5513TIP3    H237955   4.102   1.513   4.711  0.2042 -0.9358  0.7299
 5514TIP3   OH237956   1.072   3.898   0.681  0.0663  0.0192  0.7618
 5514TIP3    H137957   1.135   3.845   0.633 -0.6547 -0.3735  0.2327
 5514TIP3    H237958   1.078   3.985   0.641 -1.4697 -0.6294 -0.9718
 5515TIP3   OH237959   0.117   5.911   0.379  0.0169 -0.5094  0.0859
 5515TIP3    H137960   0.053   5.858   0.332 -1.3514 -0.6706  1.9992
 5515TIP3    H237961   0.201   5.870   0.360 -0.7252 -1.7877 -0.5529
 5516TIP3   OH237962   1.771   1.139  14.234  0.2527 -0.4417 -0.4761
 5516TIP3    H137963   1.768   1.195  14.156 -3.0809  0.2998  0.0381
 5516TIP3    H237964   1.750   1.197  14.307 -3.6682 -2.2026  0.0436
 5517TIP3   OH237965   5.710   5.154  13.313  0.7455 -0.3171  0.1810
 5517TIP3    H137966   5.743   5.243  13.297  1.8082 -0.6897  0.2093
 5517TIP3    H237967   5.785   5.107  13.350 -0.0556 -0.9895  1.0076
 5518TIP3   OH237968   0.581   4.061  16.764  0.1404  0.2059 -0.0475
 5518TIP3    H137969   0.516   4.005  16.720  0.9410 -1.6972  1.0402
 5518TIP3    H237970   0.532   4.099  16.838  0.3240 -1.7353  1.1564
 5519TIP3   OH237971   6.409   4.312   4.125  0.2008  0.8548  0.2600
 5519TIP3    H137972   6.465   4.375   4.170 -0.0575  0.7827  0.6883
 5519TIP3    H237973   6.466   4.236   4.111  0.1167  0.6420  1.0185
 5520TIP3   OH237974   4.266   1.208   4.991  0.6384  0.2026  0.0701
 5520TIP3    H137975   4.332   1.276   5.004 -1.4151  2.1253  1.0303
 5520TIP3    H237976   4.303   1.130   5.034  2.8608  0.7413 -0.7039
 5521TIP3   OH237977   5.365   1.565  12.873 -0.0318  0.6467 -0.2866
 5521TIP3    H137978   5.312   1.644  12.888 -0.0624  0.2234  2.2351
 5521TIP3    H237979   5.318   1.496  12.921  1.1256 -0.4432 -0.6834
 5522TIP3   OH237980   2.551   6.000  14.325  0.0136 -0.2069 -0.1537
 5522TIP3    H137981   2.588   5.997  14.413 -1.0028  1.0833  0.3470
 5522TIP3    H237982   2.556   6.092  14.300  1.1697 -0.6792 -1.8620
 5523TIP3   OH237983   2.739   4.493  11.021 -0.2241  0.0932  0.1613
 5523TIP3    H137984   2.665   4.469  11.077  0.2593 -2.7162 -0.2966
 5523TIP3    H237985   2.704   4.490  10.932  0.0839  0.2884  0.0304
 5524TIP3   OH237986   2.403   4.869   4.005 -0.1272 -0.0846  0.6643
 5524TIP3    H137987   2.402   4.807   3.932 -0.0288  0.1422  0.4695
 5524TIP3    H237988   2.443   4.948   3.969  2.5669 -0.8607  1.7079
 5525TIP3   OH237989   6.000   1.947  11.068  0.0707  0.2935  0.0631
 5525TIP3    H137990   6.090   1.978  11.059  0.2086 -0.0947  0.1043
 5525TIP3    H237991   5.996   1.868  11.015 -0.2169  0.2459  0.1520
 5526TIP3   OH237992   5.800   5.469   3.374  0.2382 -0.2529 -0.1979
 5526TIP3    H137993   5.796   5.538   3.440  2.7925 -1.3240  1.2166
 5526TIP3    H237994   5.837   5.513   3.297 -0.2071  0.4096 -0.0468
 5527TIP3   OH237995   2.536   5.860   6.122 -0.5290 -0.2774 -0.6689
 5527TIP3    H137996   2.462   5.815   6.162  0.1887  1.0589  2.4786
 5527TIP3    H237997   2.604   5.793   6.113 -0.8150 -0.6878  0.1479
 5528TIP3   OH237998   5.680   4.271   0.162 -0.0324 -0.2919 -0.3461
 5528TIP3    H137999   5.748   4.338   0.152  1.5248 -1.5534  1.1544
 5528TIP3    H238000   5.616   4.311   0.221  1.0881 -0.2019  0.8752
 5529TIP3   OH238001   2.532   2.380  16.887 -0.1262  0.6563  0.5136
 5529TIP3    H138002   2.583   2.372  16.967 -0.3921 -0.9197  0.5696
 5529TIP3    H238003   2.508   2.290  16.865  1.0286  0.8784 -2.0454
 5530TIP3   OH238004   0.680   3.518  12.683 -0.2939 -0.6093  0.3676
 5530TIP3    H138005   0.762   3.523  12.634 -0.0553  0.0587  0.8156
 5530TIP3    H238006   0.691   3.443  12.741 -0.2839 -0.9538 -0.0828
 5531TIP3   OH238007   4.769   3.859  12.545  0.2536 -0.3082 -0.4637
 5531TIP3    H138008   4.851   3.862  12.593  0.0269 -2.8735  0.2181
 5531TIP3    H238009   4.785   3.798  12.473  0.0944  2.2206 -2.8016
 5532TIP3   OH238010   4.945   3.429  14.542 -0.7701 -0.2882 -0.4223
 5532TIP3    H138011   4.902   3.345  14.562  0.0656 -0.3081  1.5620
 5532TIP3    H238012   5.035   3.405  14.524  0.1691  0.3100  2.8545
 5533TIP3   OH238013   5.597   2.911   6.108  0.2049 -0.7760 -0.4166
 5533TIP3    H138014   5.633   3.000   6.110  1.4773 -1.2787  0.7776
 5533TIP3    H238015   5.582   2.889   6.200 -0.1898 -1.7685 -0.7067
 5534TIP3   OH238016   4.915   4.006   2.754  0.2527  0.1770 -0.0308
 5534TIP3    H138017   4.835   4.001   2.702 -0.0847  2.8208  0.1232
 5534TIP3    H238018   4.985   4.006   2.689 -0.1271  2.4465 -0.5131
 5535TIP3   OH238019   2.561   0.877  15.742  0.1561  0.2587 -0.7526
 5535TIP3    H138020   2.518   0.935  15.679  3.1597  2.9955 -0.5363
 5535TIP3    H238021   2.633   0.837  15.693 -1.3357 -2.8512 -0.6588
 5536TIP3   OH238022   4.389   5.913  12.223 -0.0089  0.5097  0.1435
 5536TIP3    H138023   4.478   5.927  12.191 -0.1010 -0.6932 -0.7114
 5536TIP3    H238024   4.374   5.985  12.284  1.9939  0.0598  1.2618
 5537TIP3   OH238025   1.181   1.652   4.330  0.3472  0.0758  0.3801
 5537TIP3    H138026   1.188   1.583   4.264 -0.9737 -1.3891  1.6999
 5537TIP3    H238027   1.105   1.704   4.302  0.2874 -0.0455  0.3174
 5538TIP3   OH238028   2.580   6.445   5.861  0.2832 -0.5341  0.2947
 5538TIP3    H138029   2.511   6.418   5.922 -0.0737  0.4869  0.3659
 5538TIP3    H238030   2.594   6.369   5.805 -2.0848 -0.2573 -0.8086
 5539TIP3   OH238031   5.425   0.262  12.437  0.1838 -0.3725  0.0301
 5539TIP3    H138032   5.345   0.210  12.441  0.5462 -0.8520  1.3838
 5539TIP3    H238033   5.428   0.310  12.519  0.1801  1.3575 -0.9345
 5540TIP3   OH238034   1.091   6.688   3.112  0.2035 -0.3801  0.3235
 5540TIP3    H138035   1.109   6.600   3.078 -2.0213 -0.7294 -0.1299
 5540TIP3    H238036   1.164   6.741   3.082  0.9928 -1.8219 -0.4323
 5541TIP3   OH238037   5.148   3.749  15.059 -0.1164 -0.5759 -0.1533
 5541TIP3    H138038   5.075   3.734  14.998 -0.4046  0.8875 -0.2031
 5541TIP3    H238039   5.113   3.810  15.124 -0.1392 -2.9144  2.1549
 5542TIP3   OH238040   0.437   4.196   4.704  0.1134  0.1889 -1.1312
 5542TIP3    H138041   0.410   4.179   4.795 -1.5626  2.4018 -1.1553
 5542TIP3    H238042   0.528   4.225   4.712 -0.1369  0.7549 -0.0932
 5543TIP3   OH238043   6.619   1.904   2.435  0.2673 -0.5197  0.2688
 5543TIP3    H138044   6.677   1.916   2.360  0.4207 -0.3788  0.4086
 5543TIP3    H238045   6.651   1.824   2.477 -0.6260 -1.3263 -0.5465
 5544TIP3   OH238046   5.481   6.350  15.253  0.1702 -0.3195  0.0414
 5544TIP3    H138047   5.459   6.405  15.328  0.5516  0.3763 -0.3447
 5544TIP3    H238048   5.396   6.320  15.219  0.0067 -0.9019  0.9279
 5545TIP3   OH238049   3.108   6.351  12.686  0.3064  0.3314  0.7392
 5545TIP3    H138050   3.050   6.427  12.692 -0.2321  0.3148 -2.4805
 5545TIP3    H238051   3.139   6.352  12.596  1.6703 -2.3149  1.0918
 5546TIP3   OH238052   4.152   3.978  12.886 -0.1106 -0.2458  0.2033
 5546TIP3    H138053   4.068   4.015  12.861 -0.0344 -1.6964 -2.6271
 5546TIP3    H238054   4.138   3.941  12.973 -2.2302  0.0208  0.0137
 5547TIP3   OH238055   0.345   5.380   2.766 -0.5436 -1.0222  0.1671
 5547TIP3    H138056   0.410   5.414   2.705  0.6957 -3.6731 -0.1570
 5547TIP3    H238057   0.262   5.385   2.719 -0.3901  1.0274  0.0153
 5548TIP3   OH238058   2.231   6.147   3.169 -0.3773 -0.2895  0.6391
 5548TIP3    H138059   2.172   6.153   3.094 -0.5333 -0.9735  0.7009
 5548TIP3    H238060   2.202   6.069   3.216 -0.1404  0.0097  1.2928
 5549TIP3   OH238061   2.502   5.027  15.447 -0.1941 -0.1004  0.0740
 5549TIP3    H138062   2.437   4.956  15.454 -0.7103  0.3352 -0.2095
 5549TIP3    H238063   2.577   4.996  15.498 -0.0934 -1.2084 -0.7046
 5550TIP3   OH238064   5.745   4.164  12.569  0.5210  0.1436  0.3317
 5550TIP3    H138065   5.699   4.081  12.583 -1.8247  1.2642 -0.2213
 5550TIP3    H238066   5.739   4.209  12.653  0.7784  0.2390  0.3004
 5551TIP3   OH238067   2.465   4.817  15.735 -0.2474  1.1774 -0.1425
 5551TIP3    H138068   2.472   4.738  15.789  0.7458  0.3554 -1.4320
 5551TIP3    H238069   2.419   4.788  15.656  0.0022  1.9290 -0.5653
 5552TIP3   OH238070   4.437   3.425  13.467 -0.0298 -0.1980  0.3501
 5552TIP3    H138071   4.357   3.379  13.492  0.5494 -0.9861  0.8065
 5552TIP3    H238072   4.454   3.484  13.540  0.5032 -0.9706  0.8650
 5553TIP3   OH238073   5.979   6.495  15.980  0.4798  0.7021  0.0535
 5553TIP3    H138074   5.945   6.424  15.926  2.3605  0.2812 -0.6778
 5553TIP3    H238075   5.997   6.454  16.065  0.2463  0.6453  0.0753
 5554TIP3   OH238076   6.720   6.439  15.041 -0.4739 -0.1227 -0.0529
 5554TIP3    H138077   6.772   6.396  14.973  1.1120  0.2819  0.8320
 5554TIP3    H238078   6.637   6.392  15.041  0.3781 -1.7162 -0.6397
 5555TIP3   OH238079   1.704   2.784   6.511  0.1832 -0.5537  0.3780
 5555TIP3    H138080   1.727   2.829   6.429 -0.3771  1.9330  1.4884
 5555TIP3    H238081   1.610   2.799   6.521  0.0904 -1.5226  1.1021
 5556TIP3   OH238082   5.950   2.201  13.387  0.2368  0.4846 -0.0834
 5556TIP3    H138083   5.989   2.114  13.390 -0.5850  0.1126  0.1632
 5556TIP3    H238084   6.017   2.259  13.422  1.2615  0.1362 -1.4017
 5557TIP3   OH238085   3.217   5.249  10.222  0.0803 -0.5127 -0.8886
 5557TIP3    H138086   3.244   5.216  10.308 -1.2302 -0.2419 -0.3605
 5557TIP3    H238087   3.214   5.171  10.166  1.2012 -0.6536 -0.7764
 5558TIP3   OH238088   3.976   2.635  16.437 -0.1059 -0.1485  0.0042
 5558TIP3    H138089   3.944   2.568  16.498  1.1018 -1.2303 -0.5118
 5558TIP3    H238090   3.975   2.592  16.351 -0.1180  0.7806 -0.4686
 5559TIP3   OH238091   5.611   4.012   5.595 -0.1932  0.4275  0.1394
 5559TIP3    H138092   5.530   3.964   5.579  0.2689 -0.3633  0.1287
 5559TIP3    H238093   5.652   4.020   5.509  0.0817  0.1960  0.2446
 5560TIP3   OH238094   0.607   2.183  15.393  0.6207  0.0531 -0.0723
 5560TIP3    H138095   0.641   2.185  15.303  3.9722 -0.1563  1.0545
 5560TIP3    H238096   0.617   2.273  15.424  0.8589 -0.1676  0.5136
 5561TIP3   OH238097   3.355   3.114  11.614  0.6820 -0.5848 -0.0742
 5561TIP3    H138098   3.446   3.135  11.592  0.9827 -2.2257 -0.5944
 5561TIP3    H238099   3.361   3.064  11.696  0.0627  0.8277  0.8591
 5562TIP3   OH238100   5.930   4.118  11.317  0.1830  0.2567  0.2899
 5562TIP3    H138101   5.863   4.186  11.324  0.2965  0.2570  1.4980
 5562TIP3    H238102   5.885   4.037  11.338  0.1100 -0.0325 -0.8946
 5563TIP3   OH238103   2.084   5.905  12.603 -0.8694  0.7497 -0.3605
 5563TIP3    H138104   2.035   5.983  12.579 -1.6036  0.3301 -0.2330
 5563TIP3    H238105   2.059   5.888  12.694  1.2293  1.8365  0.4929
 5564TIP3   OH238106   4.473   0.949  16.229  0.4514 -0.3831 -0.0503
 5564TIP3    H138107   4.530   0.884  16.271  0.8015 -0.8427 -1.1950
 5564TIP3    H238108   4.518   1.032  16.242  0.4241 -0.4785  0.6934
 5565TIP3   OH238109   3.381   3.616   0.968  0.3074 -0.7379  0.0398
 5565TIP3    H138110   3.430   3.688   0.930 -0.1965 -0.8817 -0.9090
 5565TIP3    H238111   3.371   3.640   1.060 -0.7724  0.9387 -0.4773
 5566TIP3   OH238112   2.559   5.783  14.793  0.5517 -0.1258 -0.0364
 5566TIP3    H138113   2.534   5.732  14.870 -0.9802 -0.3407 -0.6358
 5566TIP3    H238114   2.477   5.825  14.764  1.2846  0.6989 -0.9955
 5567TIP3   OH238115   2.979   3.921   1.441 -0.1752 -1.0094  0.3258
 5567TIP3    H138116   2.964   3.857   1.510 -0.1088 -0.5748  0.7470
 5567TIP3    H238117   3.073   3.939   1.445 -0.4942  0.5040  1.4502
 5568TIP3   OH238118   6.281   5.789   2.606  0.0762  0.1128  0.2186
 5568TIP3    H138119   6.319   5.846   2.539 -0.4412 -1.6857 -1.6850
 5568TIP3    H238120   6.315   5.702   2.585 -3.4061 -1.2374 -0.3450
 5569TIP3   OH238121   2.615   3.687   3.181 -0.0112  0.6820 -0.9562
 5569TIP3    H138122   2.622   3.649   3.269 -0.1986 -0.4464 -1.4058
 5569TIP3    H238123   2.619   3.611   3.122  0.0507  1.4158 -1.9203
 5570TIP3   OH238124   1.811   5.897   1.812  0.5685  0.3277  0.1800
 5570TIP3    H138125   1.847   5.984   1.828  1.6062  0.3047 -1.7407
 5570TIP3    H238126   1.841   5.874   1.724  0.2776 -1.9599  0.6149
 5571TIP3   OH238127   1.472   4.842  13.481  0.5248  1.3727  0.2595
 5571TIP3    H138128   1.529   4.873  13.550  0.2282  2.2251  0.1364
 5571TIP3    H238129   1.528   4.788  13.425  0.4010 -0.7380  2.0464
 5572TIP3   OH238130   6.743   3.483   4.091 -0.2224  0.0018 -0.0546
 5572TIP3    H138131   6.668   3.435   4.126  0.2975 -2.6253 -2.2271
 5572TIP3    H238132   6.709   3.525   4.011 -0.0005  1.0368  0.3844
 5573TIP3   OH238133   0.201   1.258  10.277 -0.0121 -0.0051  0.3289
 5573TIP3    H138134   0.222   1.180  10.225 -0.0896  0.6157 -0.6651
 5573TIP3    H238135   0.231   1.236  10.365  1.6124 -0.4926 -0.2902
 5574TIP3   OH238136   2.778   3.477  11.625 -0.0574 -0.5889 -0.2644
 5574TIP3    H138137   2.816   3.552  11.580 -0.4735  0.3797  0.9235
 5574TIP3    H238138   2.812   3.400  11.578  1.0956  0.3058 -0.9475
 5575TIP3   OH238139   3.962   5.173   1.561  0.8363 -0.0872 -0.7040
 5575TIP3    H138140   3.922   5.241   1.507  0.9667 -0.5221 -1.3606
 5575TIP3    H238141   3.977   5.100   1.500 -1.8895 -1.8068  0.4692
 5576TIP3   OH238142   1.070   3.092  15.527 -0.0600 -0.2049 -0.7515
 5576TIP3    H138143   1.094   3.101  15.619  0.7931  0.7169 -1.0499
 5576TIP3    H238144   1.150   3.110  15.479 -0.1561 -1.9855 -1.6672
 5577TIP3   OH238145   0.115   0.896   1.786 -0.4936 -0.4179  0.2779
 5577TIP3    H138146   0.042   0.860   1.837 -0.3534  0.6697  1.2892
 5577TIP3    H238147   0.087   0.985   1.764  0.7475  0.2255  1.1973
 5578TIP3   OH238148   0.717   2.858  17.060 -0.4147 -0.2062  0.1231
 5578TIP3    H138149   0.755   2.770  17.056  2.2433  0.8977 -0.6382
 5578TIP3    H238150   0.760   2.899  17.135 -0.1547  1.0623 -0.6884
 5579TIP3   OH238151   0.509   4.683  15.261  0.3981  0.4162  0.2981
 5579TIP3    H138152   0.465   4.656  15.181  2.5567  0.3496 -0.9403
 5579TIP3    H238153   0.527   4.601  15.307  1.5525  0.1870 -0.5103
 5580TIP3   OH238154   2.686   0.972   1.284 -0.0465 -0.1848  0.4909
 5580TIP3    H138155   2.727   0.986   1.199 -0.3509 -0.6478  0.2670
 5580TIP3    H238156   2.629   1.048   1.295 -0.7783 -0.6145 -0.1832
 5581TIP3   OH238157   3.811   1.451  12.264  0.5561 -0.3320  0.0237
 5581TIP3    H138158   3.882   1.388  12.252 -0.8054 -2.3343  1.7376
 5581TIP3    H238159   3.785   1.474  12.175  1.8652 -1.2851 -0.6536
 5582TIP3   OH238160   2.848   4.433   5.073 -0.3834  0.5012 -0.0733
 5582TIP3    H138161   2.810   4.506   5.121 -1.7967 -0.0368 -0.3148
 5582TIP3    H238162   2.817   4.444   4.983 -0.4336 -0.2503 -0.1607
 5583TIP3   OH238163   3.030   3.478   0.566  1.4546  0.1720 -0.0846
 5583TIP3    H138164   3.044   3.550   0.503  2.8246 -1.3416 -1.6195
 5583TIP3    H238165   3.026   3.399   0.512 -0.8096 -0.8976  1.4871
 5584TIP3   OH238166   1.405   6.648  13.112 -0.1363 -0.1827 -0.9642
 5584TIP3    H138167   1.493   6.650  13.150 -0.0791 -0.5500 -1.0808
 5584TIP3    H238168   1.410   6.706  13.036 -0.4909  1.3180  0.0971
 5585TIP3   OH238169   6.357   1.176   1.124 -0.3690  0.3819  0.1590
 5585TIP3    H138170   6.397   1.124   1.054 -0.8156 -1.1141  0.9794
 5585TIP3    H238171   6.318   1.111   1.183 -1.2771  1.6725  1.0260
 5586TIP3   OH238172   3.383   0.085  14.897  0.0684  0.0015  0.3161
 5586TIP3    H138173   3.404   0.179  14.897  2.0329 -0.3914 -0.8004
 5586TIP3    H238174   3.294   0.081  14.932  0.1615  2.2247  0.9776
 5587TIP3   OH238175   1.786   0.830   4.205 -0.0551  0.2720 -0.4009
 5587TIP3    H138176   1.796   0.807   4.112  0.8685 -0.4801 -0.1248
 5587TIP3    H238177   1.691   0.834   4.218 -0.2007  0.0146 -1.2925
 5588TIP3   OH238178   1.745   4.467  15.679  0.1138 -0.3491 -0.1076
 5588TIP3    H138179   1.828   4.508  15.705  0.2780 -1.5648  1.4436
 5588TIP3    H238180   1.762   4.431  15.592  0.6328  0.9771 -0.5709
 5589TIP3   OH238181   0.185   4.311   1.115  0.2711  0.2501 -0.3881
 5589TIP3    H138182   0.180   4.368   1.038 -0.1563  1.5985  0.6082
 5589TIP3    H238183   0.159   4.366   1.188 -1.4100 -1.5383  0.4855
 5590TIP3   OH238184   3.323   4.644  13.798 -0.2545 -0.4899 -0.1709
 5590TIP3    H138185   3.264   4.616  13.868  0.6961  1.8461  1.7072
 5590TIP3    H238186   3.270   4.701  13.743 -0.2212  0.2592  0.5507
 5591TIP3   OH238187   6.428   1.150  14.614 -0.0515  0.3939  0.3764
 5591TIP3    H138188   6.400   1.214  14.679 -0.1037  0.8420 -0.0816
 5591TIP3    H238189   6.472   1.082  14.665  0.7795  1.2218  0.7907
 5592TIP3   OH238190   4.675   6.283   1.812 -0.0942  0.4862 -0.0413
 5592TIP3    H138191   4.585   6.273   1.844 -0.0811 -3.0439 -0.8038
 5592TIP3    H238192   4.665   6.303   1.719 -0.0323  1.2890  0.1095
 5593TIP3   OH238193   2.628   2.915   0.848  0.5167 -0.2719  0.0471
 5593TIP3    H138194   2.563   2.966   0.799  0.3493 -0.8715 -0.3681
 5593TIP3    H238195   2.575   2.855   0.901  0.6941 -2.5895 -2.2225
 5594TIP3   OH238196   2.057   5.429   3.488 -0.4036  0.2245  0.1777
 5594TIP3    H138197   1.980   5.433   3.431 -0.5257  0.2329  0.3422
 5594TIP3    H238198   2.023   5.453   3.575 -0.0599  1.0429  0.0955
 5595TIP3   OH238199   1.967   3.594   2.491  0.5625 -0.6553  0.2250
 5595TIP3    H138200   1.955   3.680   2.531  0.1265 -0.8719  0.5723
 5595TIP3    H238201   2.040   3.605   2.431  0.9798 -0.2240  0.8078
 5596TIP3   OH238202   4.760   3.237   1.037  0.4991  0.0462  0.0330
 5596TIP3    H138203   4.731   3.147   1.047  0.4603  0.1038  0.4823
 5596TIP3    H238204   4.853   3.230   1.013  0.7282 -0.1074  0.9225
 5597TIP3   OH238205   2.581   1.458  15.873 -0.2348 -0.1274  0.0055
 5597TIP3    H138206   2.551   1.535  15.921 -0.2494  0.6948 -1.2496
 5597TIP3    H238207   2.557   1.476  15.782  0.3352 -1.3383 -0.4154
 5598TIP3   OH238208   3.999   4.265  14.379  0.0607  0.1742  0.0074
 5598TIP3    H138209   4.027   4.199  14.316  2.3466 -1.1560  2.2204
 5598TIP3    H238210   3.926   4.226  14.426 -0.0067  0.1382 -0.1275
 5599TIP3   OH238211   3.322   6.076   1.556 -0.2405  0.4449 -0.3349
 5599TIP3    H138212   3.370   6.009   1.605 -1.8000  0.0698  0.7635
 5599TIP3    H238213   3.237   6.036   1.536 -1.6056  2.3480  1.1853
 5600TIP3   OH238214   3.676   4.373  16.347  0.4426  0.3683 -0.8588
 5600TIP3    H138215   3.769   4.394  16.351  0.7821 -0.6982 -2.3263
 5600TIP3    H238216   3.666   4.295  16.402 -0.4303  2.7691  2.7875
 5601TIP3   OH238217   0.000   5.247   4.358  0.2454 -0.1471  0.3134
 5601TIP3    H138218   0.042   5.298   4.427  3.7179 -0.4216 -1.3659
 5601TIP3    H238219   0.007   5.156   4.389 -0.3621 -0.1036  0.5985
 5602TIP3   OH238220   3.393   2.795   3.440 -0.2446  0.7805 -0.1295
 5602TIP3    H138221   3.426   2.809   3.351 -0.7772  0.2301 -0.4221
 5602TIP3    H238222   3.303   2.828   3.438 -0.1282  1.1348  0.3188
 5603TIP3   OH238223   4.429   5.919   4.944 -0.0109  0.4772 -0.0240
 5603TIP3    H138224   4.457   5.888   5.030 -1.2852  0.1147  0.2770
 5603TIP3    H238225   4.495   5.885   4.884 -0.6773 -1.8408  0.4384
 5604TIP3   OH238226   2.105   1.229  15.845  0.1270  0.1998 -0.4551
 5604TIP3    H138227   2.144   1.227  15.932  0.2932  0.3344 -0.5251
 5604TIP3    H238228   2.034   1.294  15.851  0.4295  0.5424 -0.5403
 5605TIP3   OH238229   5.448   2.189  13.306 -0.5851 -0.2161 -0.3910
 5605TIP3    H138230   5.381   2.231  13.251 -0.6557 -1.4561 -1.2895
 5605TIP3    H238231   5.399   2.139  13.371 -0.6052 -2.1386 -1.8165
 5606TIP3   OH238232   0.507   3.271  11.911 -0.2031 -0.2327 -0.1190
 5606TIP3    H138233   0.573   3.247  11.845  0.9028  1.3745  0.3376
 5606TIP3    H238234   0.552   3.262  11.995 -0.7983  0.2096  0.2551
 5607TIP3   OH238235   1.726   2.619   3.316  0.2303  0.2579  0.5894
 5607TIP3    H138236   1.788   2.660   3.377 -0.3540  2.0400  0.0480
 5607TIP3    H238237   1.752   2.653   3.230 -1.1680  0.6253  0.2966
 5608TIP3   OH238238   0.413   1.683  17.063  0.1552  0.2741 -0.7670
 5608TIP3    H138239   0.415   1.640  16.977 -1.6336  1.3324 -1.3812
 5608TIP3    H238240   0.442   1.615  17.124 -1.9326 -1.6418 -1.7828
 5609TIP3   OH238241   2.623   6.385   2.368 -0.0026 -0.0422 -0.6193
 5609TIP3    H138242   2.610   6.390   2.463 -0.7763  0.7624 -0.7518
 5609TIP3    H238243   2.625   6.476   2.340  0.9177 -0.2595 -1.2964
 5610TIP3   OH238244   5.277   1.355  16.639 -0.4402 -0.1225 -0.0130
 5610TIP3    H138245   5.266   1.376  16.732 -0.0591 -0.8497  0.2074
 5610TIP3    H238246   5.298   1.439  16.598  4.4541 -0.3640  1.3484
 5611TIP3   OH238247   2.268   5.847  16.470 -0.5150  0.0154  0.5432
 5611TIP3    H138248   2.175   5.857  16.450 -0.2700  3.0388  0.4162
 5611TIP3    H238249   2.271   5.836  16.565 -1.0152 -0.2711  0.5273
 5612TIP3   OH238250   4.501   4.508   3.254 -0.2676  0.2542 -0.0205
 5612TIP3    H138251   4.568   4.529   3.189  0.4764  0.6663  0.8585
 5612TIP3    H238252   4.545   4.452   3.317 -0.0784  2.3412  1.7937
 5613TIP3   OH238253   0.862   4.909   0.060  0.0686 -0.5173 -0.4014
 5613TIP3    H138254   0.901   4.830   0.023 -1.2302  0.0962 -3.4126
 5613TIP3    H238255   0.779   4.880   0.097 -0.4886 -0.6095 -1.6551
 5614TIP3   OH238256   3.099   5.291   3.165 -0.0519 -0.3713 -0.2926
 5614TIP3    H138257   3.100   5.361   3.099 -0.4413 -0.3223 -0.2496
 5614TIP3    H238258   3.086   5.336   3.248  1.3814 -0.3539 -0.0665
 5615TIP3   OH238259   6.545   3.929  11.671 -0.2589  0.1183  0.1676
 5615TIP3    H138260   6.629   3.943  11.626 -0.4650  0.3761 -0.1383
 5615TIP3    H238261   6.494   4.007  11.651 -0.6223 -0.0967  0.2483
 5616TIP3   OH238262   0.592   5.296  12.710 -0.3692  0.1325 -0.5889
 5616TIP3    H138263   0.505   5.278  12.675  0.1483  1.8239 -3.0555
 5616TIP3    H238264   0.596   5.392  12.716  0.9807  0.0348  0.4076
 5617TIP3   OH238265   1.985   1.277  11.052  0.1179  0.1886  0.7295
 5617TIP3    H138266   2.055   1.225  11.090  0.4216  0.7625  0.9755
 5617TIP3    H238267   1.942   1.219  10.989 -0.3625 -0.7629  1.9076
 5618TIP3   OH238268   1.920   1.704   4.790  0.5568  0.1810 -0.2057
 5618TIP3    H138269   1.998   1.742   4.829  0.3604 -0.0855  0.4604
 5618TIP3    H238270   1.881   1.775   4.739  1.0443  0.4106 -0.2616
 5619TIP3   OH238271   6.130   0.521  15.359 -0.3114 -0.4088 -0.2263
 5619TIP3    H138272   6.142   0.609  15.395 -1.9198 -0.0021 -0.6254
 5619TIP3    H238273   6.175   0.463  15.421  1.5446  0.7414 -0.4185
 5620TIP3   OH238274   6.651   5.275   6.069 -0.2065  0.2732 -0.3959
 5620TIP3    H138275   6.746   5.275   6.083 -0.0132  0.3057 -1.6136
 5620TIP3    H238276   6.615   5.297   6.155  0.7814 -1.9320  0.6678
 5621TIP3   OH238277   5.202   4.150  16.915 -0.3012  0.6505 -0.0493
 5621TIP3    H138278   5.170   4.132  17.003  1.2651  0.0813  0.4309
 5621TIP3    H238279   5.172   4.076  16.863  0.7028 -0.1973  0.5348
 5622TIP3   OH238280   3.780   3.473  14.978 -0.1733  0.5116 -0.3058
 5622TIP3    H138281   3.855   3.461  14.920 -0.4100 -1.5577 -0.2696
 5622TIP3    H238282   3.711   3.508  14.921 -0.8177 -2.7166 -1.7349
 5623TIP3   OH238283   2.013   4.762   0.024  0.3581 -0.4495 -0.0497
 5623TIP3    H138284   1.970   4.678   0.006  1.3703 -1.1822  0.7661
 5623TIP3    H238285   2.088   4.764  -0.036  0.8901 -0.5976  0.5918
 5624TIP3   OH238286   5.874   5.122   0.091 -0.3531  0.3623 -0.1882
 5624TIP3    H138287   5.779   5.112   0.098 -0.3834  1.4632  1.9222
 5624TIP3    H238288   5.891   5.125  -0.003 -2.1946 -1.4516 -0.6593
 5625TIP3   OH238289   6.021   0.012  15.583  0.2546 -0.3059 -0.2228
 5625TIP3    H138290   5.987   0.087  15.632  0.4022 -0.0874 -0.4529
 5625TIP3    H238291   6.094  -0.020  15.636 -1.6473 -2.1554  1.4215
 5626TIP3   OH238292   6.422   2.190   0.891  0.0982 -1.0545  0.3210
 5626TIP3    H138293   6.330   2.195   0.918  0.2020 -2.3570  0.9654
 5626TIP3    H238294   6.419   2.198   0.796 -0.6442 -0.7086  0.3648
 5627TIP3   OH238295   2.688   6.132   2.390  0.5686  0.1032 -1.0205
 5627TIP3    H138296   2.674   6.226   2.373  2.5618  1.1066  1.9973
 5627TIP3    H238297   2.612   6.105   2.441  1.3297  0.9089  0.5939
 5628TIP3   OH238298   1.598   6.096  11.178 -0.7142 -0.2951 -0.1620
 5628TIP3    H138299   1.535   6.085  11.249 -0.7482  0.2926 -0.1027
 5628TIP3    H238300   1.565   6.038  11.109 -2.4992  1.4796 -0.9148
 5629TIP3   OH238301   0.927   3.149  13.603 -0.0151 -0.4048 -0.5828
 5629TIP3    H138302   1.006   3.105  13.637  0.9404 -0.4821 -2.7601
 5629TIP3    H238303   0.951   3.241  13.596 -0.8971 -0.0403  0.8095
 5630TIP3   OH238304   0.069   4.123   5.310  0.0510  0.1808 -0.2838
 5630TIP3    H138305  -0.026   4.114   5.311  0.1894 -1.6092 -0.3014
 5630TIP3    H238306   0.097   4.074   5.232  1.1706 -1.8918  1.3187
 5631TIP3   OH238307   1.823   6.756   4.271  0.1929 -0.3770  0.1292
 5631TIP3    H138308   1.735   6.721   4.265  0.7426 -1.7426 -0.3600
 5631TIP3    H238309   1.847   6.780   4.182  0.3872 -0.2003  0.2262
 5632TIP3   OH238310   4.698   1.127  13.384 -0.0551  0.5594  0.1233
 5632TIP3    H138311   4.648   1.046  13.372  0.6957  0.0241  0.4765
 5632TIP3    H238312   4.742   1.141  13.300  0.2202  0.3082  0.2226
 5633TIP3   OH238313   5.572   1.106   1.183 -0.2255 -0.2494  0.0177
 5633TIP3    H138314   5.515   1.182   1.175 -1.9431 -1.6095 -2.1500
 5633TIP3    H238315   5.618   1.102   1.099  2.3316  0.1597  1.2967
 5634TIP3   OH238316   4.801   6.561   1.029  0.0402 -0.1342 -0.7903
 5634TIP3    H138317   4.708   6.540   1.043  0.0521  0.1267 -0.3042
 5634TIP3    H238318   4.813   6.647   1.070  0.9728 -1.0669  1.0133
 5635TIP3   OH238319   5.142   5.851  12.639  0.1392 -0.1563 -0.4969
 5635TIP3    H138320   5.236   5.850  12.622  0.2406  0.3891 -0.0293
 5635TIP3    H238321   5.120   5.761  12.661  0.4495 -0.3942 -1.1431
 5636TIP3   OH238322   6.727   4.123   5.041 -0.2598  0.0826  0.0226
 5636TIP3    H138323   6.670   4.094   5.112 -1.2632 -0.9789 -1.1612
 5636TIP3    H238324   6.667   4.154   4.973  0.6554  0.6390 -0.5553
 5637TIP3   OH238325   3.297   2.958   6.457  0.4309 -0.1731  0.2803
 5637TIP3    H138326   3.289   3.053   6.445  0.4918 -0.4305 -2.4681
 5637TIP3    H238327   3.379   2.947   6.505  0.0772  1.1715  1.2446
 5638TIP3   OH238328   3.469   6.597  14.197 -0.0894 -0.3600 -0.0673
 5638TIP3    H138329   3.397   6.659  14.187 -1.5316 -1.5621  2.2036
 5638TIP3    H238330   3.450   6.527  14.134 -0.9996 -0.7027  0.5629
 5639TIP3   OH238331   4.764   0.312  12.342  0.0624 -0.3985  1.0269
 5639TIP3    H138332   4.732   0.401  12.357 -2.0032 -0.5505 -1.6484
 5639TIP3    H238333   4.796   0.314  12.252  1.3697 -2.0396  1.4183
 5640TIP3   OH238334   5.264   5.270  15.158 -0.0326 -0.3202 -0.2970
 5640TIP3    H138335   5.253   5.209  15.085 -0.7001 -1.8104  0.9634
 5640TIP3    H238336   5.290   5.214  15.232  1.5618  1.2378  0.4225
 5641TIP3   OH238337   0.408   3.365  14.046 -0.0963 -0.0242 -0.0528
 5641TIP3    H138338   0.393   3.281  14.090  1.3829 -1.3674 -1.9214
 5641TIP3    H238339   0.334   3.420  14.072 -0.9973 -1.8163  1.4063
 5642TIP3   OH238340   0.664   0.380   4.352  0.0990 -0.0702 -0.8383
 5642TIP3    H138341   0.739   0.350   4.300  0.1735 -0.0338 -0.7532
 5642TIP3    H238342   0.686   0.469   4.378  0.7982 -0.6250  0.5985
 5643TIP3   OH238343   4.535   1.475  14.511  0.2832 -0.0942 -0.0278
 5643TIP3    H138344   4.451   1.430  14.507  0.4788 -0.5628  0.8526
 5643TIP3    H238345   4.565   1.460  14.600  1.4175 -0.1460 -0.4078
 5644TIP3   OH238346   3.473   5.416   0.849  0.0650  0.6287 -0.3962
 5644TIP3    H138347   3.463   5.386   0.758 -1.7204  1.1260 -0.4105
 5644TIP3    H238348   3.548   5.475   0.847  1.5663 -1.2137 -1.0291
 5645TIP3   OH238349   5.810   1.525  12.159 -0.1908 -0.6134 -0.3985
 5645TIP3    H138350   5.882   1.470  12.192  1.7318  2.9057  1.9814
 5645TIP3    H238351   5.731   1.486  12.196  1.2074 -1.1216  2.2806
 5646TIP3   OH238352   4.012   5.138  14.159  1.1898  0.4184 -0.4084
 5646TIP3    H138353   3.939   5.184  14.118  0.1977  1.0805  1.9597
 5646TIP3    H238354   4.078   5.205  14.174  1.6975  0.1088 -1.1666
 5647TIP3   OH238355   4.835   1.716   4.831  0.3021 -0.0564  0.3499
 5647TIP3    H138356   4.921   1.673   4.834  1.5793  2.3174  0.5191
 5647TIP3    H238357   4.773   1.647   4.853  1.8618 -2.4973 -2.2864
 5648TIP3   OH238358   3.595   1.861   5.038  0.1130  0.4550  0.0259
 5648TIP3    H138359   3.659   1.917   5.081  1.0435  1.0824 -2.0135
 5648TIP3    H238360   3.596   1.779   5.088  2.9635  0.2400 -0.2178
 5649TIP3   OH238361   3.678   3.883  14.419  0.1619 -0.0468  0.5737
 5649TIP3    H138362   3.699   3.922  14.334  1.5783  1.4792  1.5713
 5649TIP3    H238363   3.708   3.792  14.411 -0.1911 -0.0685 -0.7054
 5650TIP3   OH238364   1.502   6.217  16.071 -0.3473 -0.4649 -0.5254
 5650TIP3    H138365   1.451   6.260  16.140  1.1696 -2.5910  2.1081
 5650TIP3    H238366   1.467   6.128  16.068  1.6632 -1.3034 -0.2194
 5651TIP3   OH238367   4.807   1.916  12.124 -0.3215 -0.9300  0.0471
 5651TIP3    H138368   4.863   1.972  12.178  0.5009 -0.4209 -1.2958
 5651TIP3    H238369   4.794   1.966  12.043 -1.4007 -1.7406 -0.3033
 5652TIP3   OH238370   5.090   6.779  13.682 -0.0678  0.0037  0.0923
 5652TIP3    H138371   5.164   6.723  13.658  0.0069 -0.5978  1.6375
 5652TIP3    H238372   5.105   6.801  13.774 -0.6037  1.8061 -0.2157
 5653TIP3   OH238373   4.176   4.822  14.657 -0.1734  0.3109  0.2410
 5653TIP3    H138374   4.129   4.759  14.602  2.5656 -2.2234  0.5240
 5653TIP3    H238375   4.230   4.872  14.596 -0.9687  1.1134  0.1868
 5654TIP3   OH238376   1.680   6.543  11.506  0.1083 -0.1222 -0.0333
 5654TIP3    H138377   1.766   6.544  11.462 -0.2283 -2.3030 -0.8497
 5654TIP3    H238378   1.700   6.563  11.597  1.8160 -2.3569  0.1836
 5655TIP3   OH238379   4.210   4.415   5.333  1.3987  0.2149  0.0158
 5655TIP3    H138380   4.246   4.451   5.414  4.6216  0.5084 -1.3965
 5655TIP3    H238381   4.257   4.460   5.263  0.7582 -2.0045 -1.9903
 5656TIP3   OH238382   6.005   4.978   1.810  0.2618  0.2119  0.0899
 5656TIP3    H138383   5.935   4.926   1.850  0.4727  0.0575  0.2636
 5656TIP3    H238384   6.078   4.972   1.873  0.3446  0.5771  0.0297
 5657TIP3   OH238385   2.443   6.143   1.709  0.3155 -0.2221  0.1059
 5657TIP3    H138386   2.443   6.072   1.774 -0.4263 -0.2867  0.0444
 5657TIP3    H238387   2.477   6.219   1.757 -1.9128  0.2037  1.1389
 5658TIP3   OH238388   1.772   0.783   2.087 -0.3700  0.1818  0.1074
 5658TIP3    H138389   1.733   0.715   2.032  0.4901  0.6409 -1.1245
 5658TIP3    H238390   1.750   0.865   2.042  1.1393  0.5083 -0.0867
 5659TIP3   OH238391   1.036   0.024  12.096 -0.3208 -0.7493 -0.2689
 5659TIP3    H138392   0.968  -0.030  12.135 -1.5137  1.2064  0.5099
 5659TIP3    H238393   1.032   0.004  12.002 -2.4577 -0.2416 -0.3468
 5660TIP3   OH238394   2.171   6.591  15.021  0.2145  0.3110 -0.0820
 5660TIP3    H138395   2.086   6.631  15.041  1.0682  1.4496  1.5830
 5660TIP3    H238396   2.235   6.651  15.060  1.6670 -1.8557  1.0684
 5661TIP3   OH238397   2.450   4.812  16.193 -0.1321 -0.0074  0.4418
 5661TIP3    H138398   2.417   4.837  16.107  1.0041 -0.3657 -0.1134
 5661TIP3    H238399   2.470   4.895  16.236  1.2042  0.1406 -0.4239
 5662TIP3   OH238400   2.009   3.974   4.758 -0.1350  0.0256 -0.0797
 5662TIP3    H138401   1.950   3.943   4.690 -0.2565 -1.5711  0.7193
 5662TIP3    H238402   1.973   4.060   4.783 -0.5344  0.2788 -1.4553
 5663TIP3   OH238403   1.338   1.367   1.099 -0.5435  0.8544 -0.4684
 5663TIP3    H138404   1.255   1.387   1.142  0.4177 -0.5050  2.2768
 5663TIP3    H238405   1.333   1.274   1.078  0.6812  0.4787  0.7776
 5664TIP3   OH238406   6.684   0.093  14.441 -0.0925  0.1670 -0.0797
 5664TIP3    H138407   6.728   0.016  14.405  0.7676  0.4869  0.2746
 5664TIP3    H238408   6.682   0.155  14.368  1.1994  0.6241  0.2467
 5665TIP3   OH238409   2.223   4.942  14.430 -0.0665  0.5093 -0.1394
 5665TIP3    H138410   2.211   4.992  14.349  0.7667 -0.6212 -0.9886
 5665TIP3    H238411   2.144   4.961  14.481 -0.8809  0.8027 -1.4550
 5666TIP3   OH238412   4.534   0.244   0.258  0.8693  0.2343  0.5783
 5666TIP3    H138413   4.461   0.306   0.259  0.0850 -0.5868 -1.5287
 5666TIP3    H238414   4.611   0.298   0.277 -0.0990  1.3396  1.5362
 5667TIP3   OH238415   3.161   1.429   0.034  0.2634 -0.2056  0.1146
 5667TIP3    H138416   3.165   1.468  -0.054 -1.1933  1.1709  0.5954
 5667TIP3    H238417   3.110   1.349   0.023  0.5744 -0.3391 -0.3808
 5668TIP3   OH238418   2.659   1.103  15.371  0.0818  0.0920 -0.6833
 5668TIP3    H138419   2.601   1.094  15.447 -0.2976  3.3128 -0.4499
 5668TIP3    H238420   2.599   1.101  15.296  0.2591 -1.3108 -0.8090
 5669TIP3   OH238421   3.591   0.626   2.912 -0.0161  0.3056 -0.1154
 5669TIP3    H138422   3.506   0.616   2.869 -0.0840  0.0635  0.0735
 5669TIP3    H238423   3.587   0.713   2.952 -0.7221 -0.2456  1.0836
 5670TIP3   OH238424   0.053   0.900  16.875  0.5368 -0.7327  0.2911
 5670TIP3    H138425   0.039   0.859  16.790 -3.9053 -1.1370  0.9689
 5670TIP3    H238426   0.100   0.834  16.926 -0.4261 -2.2310 -0.6846
 5671TIP3   OH238427   0.230   3.678   3.974  0.0657 -0.6127  0.0809
 5671TIP3    H138428   0.226   3.670   3.878  1.5640 -0.1632 -0.0343
 5671TIP3    H238429   0.318   3.711   3.992  0.0453 -1.3326  1.6623
 5672TIP3   OH238430   3.001   4.336  15.620  0.4915  0.1733 -0.1620
 5672TIP3    H138431   3.019   4.329  15.713  1.9274 -0.3994 -0.4607
 5672TIP3    H238432   2.959   4.422  15.610  2.1691  1.1526  0.7474
 5673TIP3   OH238433   5.349   1.586  16.500  0.1679 -0.0854 -0.2310
 5673TIP3    H138434   5.350   1.650  16.429  1.0818  0.2747  0.0823
 5673TIP3    H238435   5.408   1.624  16.567 -0.2622 -0.6595  0.4876
 5674TIP3   OH238436   6.114   0.830   2.516  0.4449  0.3342  0.1108
 5674TIP3    H138437   6.044   0.860   2.457  0.4800  1.6969  0.7463
 5674TIP3    H238438   6.193   0.835   2.463  0.7200  3.0310  0.6629
 5675TIP3   OH238439   1.553   2.725   2.376  0.0574 -0.0862  0.1063
 5675TIP3    H138440   1.523   2.662   2.311  0.1632 -0.2062  0.1738
 5675TIP3    H238441   1.559   2.808   2.329  2.5689 -0.6374 -0.6800
 5676TIP3   OH238442   6.201   4.514  12.542 -0.2238  0.5255 -0.0610
 5676TIP3    H138443   6.111   4.485  12.558 -0.3197  0.5908 -0.4874
 5676TIP3    H238444   6.255   4.446  12.581 -0.4542  0.2963 -0.1384
 5677TIP3   OH238445   6.162   3.340  16.320  0.5742  0.0618 -0.5645
 5677TIP3    H138446   6.239   3.384  16.356 -0.5738  1.4253  0.3622
 5677TIP3    H238447   6.113   3.409  16.275  0.1839 -0.9041 -1.6838
 5678TIP3   OH238448   2.680   1.927  15.475 -0.0125  0.3679  0.6757
 5678TIP3    H138449   2.594   1.954  15.444  0.5598  0.5102 -0.8881
 5678TIP3    H238450   2.688   1.836  15.446 -0.0954 -0.0294  1.8635
 5679TIP3   OH238451   1.573   5.410   4.233  0.1535  0.4639  0.5671
 5679TIP3    H138452   1.479   5.423   4.217  0.0396  0.4411  1.1921
 5679TIP3    H238453   1.588   5.449   4.320  0.7744  0.7008  0.3560
 5680TIP3   OH238454   5.830   1.596  14.481 -0.9505 -0.0398 -0.6097
 5680TIP3    H138455   5.789   1.668  14.432 -3.2172  0.8502  2.3266
 5680TIP3    H238456   5.776   1.520  14.460 -1.2034  0.0779 -0.3876
 5681TIP3   OH238457   2.678   6.577  14.831 -0.3695  0.1733  0.1053
 5681TIP3    H138458   2.585   6.571  14.808 -0.6492  1.2594  0.8461
 5681TIP3    H238459   2.689   6.515  14.903  0.1373 -1.9991 -1.7301
 5682TIP3   OH238460   4.424   6.571   1.699  0.2994  0.1679 -0.2231
 5682TIP3    H138461   4.351   6.569   1.761  0.8888  2.3443  0.6386
 5682TIP3    H238462   4.383   6.594   1.615 -0.1724 -0.0479 -0.0534
 5683TIP3   OH238463   1.303   4.133  15.417  0.6383 -0.6401  0.3463
 5683TIP3    H138464   1.210   4.123  15.440 -0.0087  0.1866 -1.7230
 5683TIP3    H238465   1.329   4.216  15.459  0.4497 -0.8627  0.9119
 5684TIP3   OH238466   0.674   0.022  14.396 -0.5873 -0.4053 -0.0000
 5684TIP3    H138467   0.728   0.016  14.317 -0.1261 -0.2414  0.2987
 5684TIP3    H238468   0.606   0.085  14.373 -2.4974 -2.7911 -1.4305
 5685TIP3   OH238469   2.010   5.625   5.164 -0.3124  0.2977 -0.1212
 5685TIP3    H138470   1.964   5.709   5.157 -1.0053  0.0123  0.8514
 5685TIP3    H238471   1.944   5.559   5.143  0.7071  0.0205 -2.8830
 5686TIP3   OH238472   3.408   0.418  15.214  0.0340 -0.1541  0.0121
 5686TIP3    H138473   3.395   0.498  15.264 -0.0677 -0.2461  0.1346
 5686TIP3    H238474   3.345   0.356  15.252  1.3740 -0.8698  1.1443
 5687TIP3   OH238475   2.014   2.281  15.615  0.0901  0.2747  0.5447
 5687TIP3    H138476   2.007   2.364  15.567  0.7969  0.4958  0.8091
 5687TIP3    H238477   2.106   2.276  15.640 -0.1852 -0.0342  1.5328
 5688TIP3   OH238478   4.752   1.088  11.867 -0.2640 -0.2101 -0.3025
 5688TIP3    H138479   4.752   1.139  11.786 -0.8492  0.3291  0.0285
 5688TIP3    H238480   4.790   1.146  11.932  0.6511 -0.8160 -0.2862
 5689TIP3   OH238481   3.760   3.808   5.884  0.1403 -0.3525  0.6122
 5689TIP3    H138482   3.835   3.847   5.839 -1.0758 -0.3086 -1.5348
 5689TIP3    H238483   3.744   3.865   5.959 -0.8713  2.8157 -1.7597
 5690TIP3   OH238484   4.728   3.876  17.094 -0.2223 -0.4622  0.4251
 5690TIP3    H138485   4.658   3.938  17.110  0.5095  0.6181 -0.4535
 5690TIP3    H238486   4.781   3.878  17.173  0.3252  0.7712  0.0513
 5691TIP3   OH238487   6.421   5.967  10.797 -0.0489  0.3292 -0.5823
 5691TIP3    H138488   6.397   5.930  10.713  0.5817  0.6847 -0.9258
 5691TIP3    H238489   6.383   6.055  10.797 -1.7729 -0.3588  0.3396
 5692TIP3   OH238490   5.340   3.570   1.650  0.3111 -0.6533  0.7064
 5692TIP3    H138491   5.433   3.574   1.625  0.6815 -1.0868  1.9751
 5692TIP3    H238492   5.298   3.525   1.576  0.8997  0.5638 -0.4099
 5693TIP3   OH238493   6.506   5.676   5.492  0.2555 -0.1725 -0.3136
 5693TIP3    H138494   6.580   5.625   5.459 -0.6713 -0.6875 -1.7349
 5693TIP3    H238495   6.462   5.618   5.555  1.6639  0.5638  1.4166
 5694TIP3   OH238496   3.724   0.494   2.389 -0.1515  0.9621  0.5331
 5694TIP3    H138497   3.752   0.406   2.364  0.4781  1.4540 -0.5735
 5694TIP3    H238498   3.650   0.480   2.448 -1.8902 -0.3307 -1.7671
 5695TIP3   OH238499   0.136   1.075  13.691 -0.3058  0.1593 -0.1556
 5695TIP3    H138500   0.112   1.044  13.779 -1.4878  0.4614 -0.3497
 5695TIP3    H238501   0.147   0.996  13.639  1.1725 -0.0524  0.4350
 5696TIP3   OH238502   6.743   2.464  13.880 -0.0358 -0.2309 -0.4155
 5696TIP3    H138503   6.660   2.427  13.852 -1.1030  2.7565 -1.5438
 5696TIP3    H238504   6.729   2.487  13.972  0.2801 -1.5408 -0.0175
 5697TIP3   OH238505   4.817   3.747  10.818  0.2999 -0.4882  0.1217
 5697TIP3    H138506   4.772   3.765  10.901 -0.1333  0.2328 -0.2654
 5697TIP3    H238507   4.797   3.655  10.800 -0.1193 -0.4747  0.4991
 5698TIP3   OH238508   5.298   0.067  15.275 -0.0843 -0.0424  0.0993
 5698TIP3    H138509   5.325   0.070  15.183  3.9745  0.5661  1.1409
 5698TIP3    H238510   5.229   0.134  15.282  0.0478  0.4309 -2.3210
 5699TIP3   OH238511   6.788   1.554   6.171 -0.6555  0.4316  0.2252
 5699TIP3    H138512   6.694   1.565   6.155 -0.9203 -3.2288 -1.9649
 5699TIP3    H238513   6.794   1.533   6.264 -2.1424 -0.0606  0.2407
 5700TIP3   OH238514   3.132   1.347  11.560  0.0512  0.8803 -0.0605
 5700TIP3    H138515   3.134   1.316  11.470 -1.0485  1.6263 -0.3679
 5700TIP3    H238516   3.222   1.337  11.592  0.6454  1.3733 -1.5074
 5701TIP3   OH238517   4.967   0.348  13.921 -0.3393  0.0298 -0.4928
 5701TIP3    H138518   4.928   0.367  14.007  0.8701 -0.3866  0.1828
 5701TIP3    H238519   4.934   0.416  13.863  0.7422  1.8088  0.8871
 5702TIP3   OH238520   1.638   3.098   2.763  0.2024  0.3815  0.3798
 5702TIP3    H138521   1.562   3.153   2.780 -0.1056 -0.1913  0.8838
 5702TIP3    H238522   1.688   3.099   2.845  0.8639  0.9374 -0.0181
 5703TIP3   OH238523   1.905   6.739  12.391 -0.4655 -0.5854 -0.0853
 5703TIP3    H138524   1.950   6.696  12.464 -0.2988 -0.8473 -0.3359
 5703TIP3    H238525   1.823   6.691  12.382 -1.6628  1.0143  1.5218
 5704TIP3   OH238526   0.702   4.803  15.987  0.9766  0.1678 -0.1457
 5704TIP3    H138527   0.613   4.836  15.980  1.5329  1.4226 -2.3300
 5704TIP3    H238528   0.693   4.708  15.992 -0.4863  0.2534 -0.8291
 5705TIP3   OH238529   1.038   4.935   5.116  0.2386  0.4930 -0.0106
 5705TIP3    H138530   1.008   4.960   5.204  1.3668  1.4310  0.1443
 5705TIP3    H238531   0.958   4.917   5.067 -0.5577  2.2358  0.5648
 5706TIP3   OH238532   6.233   5.852   1.357  0.0274 -0.5612 -0.5905
 5706TIP3    H138533   6.204   5.824   1.270  0.6621  0.0367 -1.0090
 5706TIP3    H238534   6.155   5.891   1.397 -0.3542 -1.1392 -0.7581
 5707TIP3   OH238535   3.447   3.307  16.075  0.6001 -0.3921  0.2168
 5707TIP3    H138536   3.399   3.380  16.036  0.5174 -0.2141  0.6513
 5707TIP3    H238537   3.464   3.248  16.001  2.1955  0.8787 -0.4824
 5708TIP3   OH238538   2.919   1.247   4.915 -0.0335  0.2972 -0.2231
 5708TIP3    H138539   2.919   1.151   4.913 -0.9042  0.2933 -0.6993
 5708TIP3    H238540   2.886   1.269   5.002  0.0493  0.1607 -0.1569
 5709TIP3   OH238541   4.677   0.552   2.135  0.0777 -0.1123 -0.2450
 5709TIP3    H138542   4.615   0.524   2.068 -1.4027 -0.3491  1.1636
 5709TIP3    H238543   4.688   0.646   2.119 -0.1340 -0.1973 -0.9219
 5710TIP3   OH238544   0.295   1.273  13.564  0.0452  0.5677  0.4987
 5710TIP3    H138545   0.247   1.348  13.530  0.4273  1.3163  1.5548
 5710TIP3    H238546   0.229   1.219  13.607 -0.3256 -0.0272 -0.7776
 5711TIP3   OH238547   2.015   0.530  13.971  0.4847  0.1100 -0.5844
 5711TIP3    H138548   2.106   0.522  14.001  0.2315  1.4850  0.6463
 5711TIP3    H238549   1.963   0.488  14.041  0.1832 -1.4538 -1.6879
 5712TIP3   OH238550   0.374   3.656   4.464  0.4261  0.1906 -0.1358
 5712TIP3    H138551   0.436   3.706   4.411 -0.1255 -0.7741 -1.7800
 5712TIP3    H238552   0.298   3.713   4.472 -0.1833 -0.3178 -1.9651
 5713TIP3   OH238553   5.233   6.288   3.136  0.0369  0.4211  0.3089
 5713TIP3    H138554   5.174   6.212   3.127  1.1387 -0.4566  0.3052
 5713TIP3    H238555   5.310   6.253   3.181  0.4538  1.6112  0.5361
 5714TIP3   OH238556   5.222   1.868   3.068 -0.3168 -0.0846  0.5060
 5714TIP3    H138557   5.289   1.930   3.097 -0.5217  0.3113  0.1429
 5714TIP3    H238558   5.144   1.891   3.119 -0.6203  0.4834 -0.2055
 5715TIP3   OH238559   2.036   6.296  12.683 -0.0625 -0.4390 -0.4017
 5715TIP3    H138560   2.077   6.382  12.696 -2.0429  0.2709  1.7272
 5715TIP3    H238561   2.044   6.281  12.588 -1.4929  3.1131 -1.2704
 5716TIP3   OH238562   5.397   3.320  14.655 -0.3660  0.3889  0.3554
 5716TIP3    H138563   5.410   3.228  14.677  0.8106  0.5753  0.4813
 5716TIP3    H238564   5.336   3.319  14.581 -1.8756 -0.3885  1.5300
 5717TIP3   OH238565   3.807   0.212  15.598 -0.0641  0.9759 -0.2191
 5717TIP3    H138566   3.837   0.216  15.508 -0.8087  0.9051 -0.4790
 5717TIP3    H238567   3.808   0.119  15.621 -3.9073  0.4060 -1.6061
 5718TIP3   OH238568   3.313   3.135  15.142  0.0895  0.1865  0.2461
 5718TIP3    H138569   3.370   3.104  15.212 -2.7003 -2.0186  1.7496
 5718TIP3    H238570   3.251   3.194  15.186  0.0741  1.1577 -1.0030
 5719TIP3   OH238571   4.673   4.685  16.209  0.0453 -0.3532 -0.4110
 5719TIP3    H138572   4.764   4.667  16.233  0.3920 -2.6669 -2.9697
 5719TIP3    H238573   4.674   4.776  16.179  0.9358  0.4062  1.7132
 5720TIP3   OH238574   2.834   3.194   1.053  0.2580  0.0664 -0.2337
 5720TIP3    H138575   2.742   3.167   1.052  0.5083 -0.8410  0.3497
 5720TIP3    H238576   2.831   3.289   1.043 -0.8803  0.3878  2.5015
 5721TIP3   OH238577   3.199   1.251   2.217 -0.0539 -0.1241  0.4056
 5721TIP3    H138578   3.131   1.232   2.152 -0.1773  0.1595  0.4517
 5721TIP3    H238579   3.259   1.311   2.172 -0.2523  0.2364  0.6249
 5722TIP3   OH238580   2.748   0.599   2.045 -1.4576  0.2773  0.1558
 5722TIP3    H138581   2.735   0.693   2.055  1.5311  1.1099 -2.0472
 5722TIP3    H238582   2.661   0.564   2.025 -2.3612  2.8918 -0.8862
 5723TIP3   OH238583   5.882   2.139  16.238 -0.4425 -0.4684  0.0019
 5723TIP3    H138584   5.828   2.148  16.317  1.8633 -0.8536  1.7694
 5723TIP3    H238585   5.879   2.046  16.218  0.1641 -0.6324  0.6112
 5724TIP3   OH238586   2.694   4.080  15.108 -0.1415 -0.7265  0.0448
 5724TIP3    H138587   2.760   4.137  15.068 -1.6958  1.2612  0.1660
 5724TIP3    H238588   2.611   4.110  15.071 -1.1547 -2.0727  1.1355
 5725TIP3   OH238589   2.691   1.839   1.481  0.0525 -0.0818  0.5607
 5725TIP3    H138590   2.704   1.893   1.403 -0.6837  1.2840  1.3473
 5725TIP3    H238591   2.766   1.780   1.482  1.0651  1.1385 -0.1605
 5726TIP3   OH238592   6.133   0.452   2.233 -0.0513 -0.1479  0.4901
 5726TIP3    H138593   6.080   0.520   2.275  3.2217  1.3115  2.7322
 5726TIP3    H238594   6.140   0.383   2.299  1.4877  0.1099  0.6397
 5727TIP3   OH238595   2.269   0.179  10.403  0.0252 -0.7840  0.1897
 5727TIP3    H138596   2.264   0.218  10.491 -1.8364  1.1975 -0.6917
 5727TIP3    H238597   2.182   0.142  10.388  0.4111 -1.3594 -0.7169
 5728TIP3   OH238598   4.365   6.692  12.416  0.1111 -0.4889  0.9054
 5728TIP3    H138599   4.370   6.597  12.412 -1.0663 -0.5311 -1.6016
 5728TIP3    H238600   4.456   6.721  12.416  0.4877 -1.6053  0.2687
 5729TIP3   OH238601   6.351   3.780   4.498 -0.4244  0.0105 -0.6024
 5729TIP3    H138602   6.430   3.824   4.530 -0.8061 -0.4248  1.0333
 5729TIP3    H238603   6.378   3.738   4.417  0.6458  1.0305 -0.7987
 5730TIP3   OH238604   3.534   5.163  11.219  0.1436  0.4852  0.2393
 5730TIP3    H138605   3.450   5.189  11.181 -0.4911  0.3652  1.5021
 5730TIP3    H238606   3.572   5.244  11.251 -0.4843  0.2939  1.5460
 5731TIP3   OH238607   0.462   6.799   1.796  0.1476  0.1718  0.1199
 5731TIP3    H138608   0.463   6.865   1.727  0.4629 -0.5171 -0.5388
 5731TIP3    H238609   0.444   6.849   1.876 -2.6104  0.6921 -0.7381
 5732TIP3   OH238610   3.678   1.479  11.912 -0.7744 -0.2752  0.2536
 5732TIP3    H138611   3.632   1.400  11.884 -1.6428  0.5710 -0.7760
 5732TIP3    H238612   3.764   1.472  11.872 -0.9117 -0.6022  0.0113
 5733TIP3   OH238613   0.506   2.757   3.968 -0.0208 -0.5397  0.7441
 5733TIP3    H138614   0.437   2.750   4.034 -0.0472 -0.0090  0.7757
 5733TIP3    H238615   0.477   2.700   3.897 -0.4822 -0.3394  0.7683
 5734TIP3   OH238616   0.033   3.179  15.983 -0.1347 -0.0717  0.1422
 5734TIP3    H138617   0.116   3.133  15.999  0.2340  0.7127  0.5627
 5734TIP3    H238618   0.032   3.194  15.888  0.0901 -0.3036  0.1019
 5735TIP3   OH238619   0.374   2.852  17.027  0.2152 -0.4761  0.0301
 5735TIP3    H138620   0.355   2.931  16.977  0.7864 -0.5947 -0.3866
 5735TIP3    H238621   0.465   2.862  17.055  0.6522 -1.4412 -0.9341
 5736TIP3   OH238622   0.234   0.018  12.069  0.2828  0.5477  0.3136
 5736TIP3    H138623   0.227  -0.055  12.007  1.4598  1.2809 -0.7097
 5736TIP3    H238624   0.265  -0.023  12.150 -0.9648 -0.3676  0.3666
 5737TIP3   OH238625   0.422   2.847   3.104  0.4254  0.0120  0.1233
 5737TIP3    H138626   0.373   2.790   3.044 -0.3341  0.5639  0.2072
 5737TIP3    H238627   0.479   2.787   3.153  0.1496 -0.5887 -0.2805
 5738TIP3   OH238628   6.540   1.525   5.308 -0.3666 -0.6210 -0.1580
 5738TIP3    H138629   6.548   1.570   5.224  1.9642  2.9351  1.7447
 5738TIP3    H238630   6.446   1.526   5.326 -0.6459  1.1800 -1.4311
 5739TIP3   OH238631   4.040   0.463  15.822  0.0132  0.0852 -0.0261
 5739TIP3    H138632   4.102   0.408  15.773 -0.4330  1.6037 -2.5041
 5739TIP3    H238633   3.964   0.407  15.835  0.9036 -0.9888  0.7397
 5740TIP3   OH238634   0.319   5.776   1.084 -0.3245 -0.0362  0.5236
 5740TIP3    H138635   0.414   5.769   1.082 -0.3911 -1.1458 -0.2752
 5740TIP3    H238636   0.291   5.699   1.135 -0.7812  0.4179  0.9627
 5741TIP3   OH238637   5.108   5.200  11.861 -0.3213  0.0360 -0.8392
 5741TIP3    H138638   5.166   5.277  11.854 -0.3824  0.1743  0.0291
 5741TIP3    H238639   5.164   5.126  11.839  0.4288  0.0894  0.7125
 5742TIP3   OH238640   5.951   2.384   4.419 -0.4295  0.3593  0.2181
 5742TIP3    H138641   5.976   2.456   4.361 -4.6521 -0.8261 -3.6733
 5742TIP3    H238642   6.029   2.327   4.421  0.5779  1.3912 -2.9354
 5743TIP3   OH238643   0.203   2.185   0.229  0.9246 -0.2711 -0.4969
 5743TIP3    H138644   0.216   2.267   0.183  1.2153 -0.0329  0.0053
 5743TIP3    H238645   0.182   2.210   0.319  0.2481 -0.7257 -0.5179
 5744TIP3   OH238646   1.746   4.068   1.793 -0.0255  0.0254 -0.4691
 5744TIP3    H138647   1.673   4.015   1.825  0.1540  0.0319 -0.0342
 5744TIP3    H238648   1.806   4.073   1.868 -0.5155  1.7162 -0.1452
 5745TIP3   OH238649   2.683   6.685  13.949  0.0357 -0.0284 -0.0413
 5745TIP3    H138650   2.775   6.677  13.976  0.2649 -0.2135 -0.8535
 5745TIP3    H238651   2.649   6.757  14.002  1.0599  1.0256 -0.7611
 5746TIP3   OH238652   1.008   0.972  13.661  0.1022  0.0224  0.2685
 5746TIP3    H138653   1.065   0.980  13.584  1.1935  0.1441  1.0575
 5746TIP3    H238654   1.012   1.058  13.702  0.9701 -0.5312  1.4087
 5747TIP3   OH238655   4.120   0.448  14.313 -0.4991 -0.1232  0.2051
 5747TIP3    H138656   4.163   0.404  14.240  0.0818 -1.2506  1.1935
 5747TIP3    H238657   4.054   0.504  14.272 -1.6689 -2.3195 -1.0910
 5748TIP3   OH238658   6.574   5.362  11.773  0.2732 -0.1761  0.5767
 5748TIP3    H138659   6.631   5.400  11.839  0.6043  0.5978 -0.1414
 5748TIP3    H238660   6.544   5.436  11.721 -0.7847 -0.6537  0.4633
 5749TIP3   OH238661   3.974   0.326   3.233 -0.3276 -0.3299 -0.0714
 5749TIP3    H138662   3.982   0.349   3.326 -1.4552  0.0639 -0.0504
 5749TIP3    H238663   4.032   0.388   3.188  1.5513 -1.6108  0.4683
 5750TIP3   OH238664   3.449   6.313   3.255  0.1294 -0.5459 -0.6347
 5750TIP3    H138665   3.413   6.246   3.313  1.2212 -0.0846  0.6133
 5750TIP3    H238666   3.431   6.280   3.167 -0.4070 -1.8945 -0.0508
 5751TIP3   OH238667   3.995   5.607   5.939 -0.3834 -0.3113 -0.5367
 5751TIP3    H138668   3.901   5.621   5.946 -0.0077  1.9661  1.5786
 5751TIP3    H238669   4.029   5.634   6.025  2.5294  2.4913 -2.3352
 5752TIP3   OH238670   2.262   5.997  14.940  0.2382 -0.4725 -0.0731
 5752TIP3    H138671   2.256   5.903  14.924 -0.4997 -0.4903  0.2311
 5752TIP3    H238672   2.233   6.008  15.031 -0.7004  0.1466 -0.4290
 5753TIP3   OH238673   3.870   3.952   1.371  0.1564  0.2607 -0.0276
 5753TIP3    H138674   3.843   3.933   1.281 -1.1392 -1.8578  0.7381
 5753TIP3    H238675   3.793   3.995   1.410 -0.7290 -2.1315  1.0317
 5754TIP3   OH238676   1.907   3.458  13.688 -0.0677  0.5663  0.4679
 5754TIP3    H138677   1.970   3.452  13.759 -0.3681  1.4165  0.8269
 5754TIP3    H238678   1.851   3.381  13.698  1.0411 -0.3150  0.0026
 5755TIP3   OH238679   1.613   2.563   0.839 -0.6210  0.1820 -0.1950
 5755TIP3    H138680   1.586   2.626   0.773  1.2926  0.5944 -0.6440
 5755TIP3    H238681   1.640   2.486   0.789 -0.4251 -0.0002  0.1883
 5756TIP3   OH238682   4.279   3.626  12.658  0.2593 -0.3966  0.2691
 5756TIP3    H138683   4.218   3.601  12.727 -0.8627 -0.7281 -0.8098
 5756TIP3    H238684   4.267   3.560  12.590  0.6384  0.4530 -0.6515
 5757TIP3   OH238685   1.937   0.624  11.974  0.4080 -0.1691 -0.4669
 5757TIP3    H138686   1.946   0.698  11.914  0.1025  0.2366 -0.0193
 5757TIP3    H238687   1.845   0.599  11.969  0.9946 -2.2128 -2.5726
 5758TIP3   OH238688   5.863   1.825  16.761  0.3122 -0.6079 -0.0759
 5758TIP3    H138689   5.957   1.811  16.757  0.2347 -0.9100 -1.2861
 5758TIP3    H238690   5.839   1.852  16.672 -0.5353  0.8870  0.5637
 5759TIP3   OH238691   5.232   4.696  13.042 -0.0272 -0.1495 -0.6355
 5759TIP3    H138692   5.163   4.658  13.095  0.6424 -1.3206 -0.5764
 5759TIP3    H238693   5.230   4.646  12.960  0.7796 -0.2424 -0.6079
 5760TIP3   OH238694   5.962   2.531  11.870  0.3741  0.8462  0.2581
 5760TIP3    H138695   5.897   2.584  11.915  1.7481  1.8661  1.1559
 5760TIP3    H238696   5.950   2.552  11.777 -0.9651  0.5221  0.3436
 5761TIP3   OH238697   4.661   4.435  14.309 -0.2999  0.8931 -0.5891
 5761TIP3    H138698   4.703   4.414  14.392  0.2217  0.0682 -1.0384
 5761TIP3    H238699   4.694   4.368  14.249  0.8452  2.5521 -1.9303
 5762TIP3   OH238700   0.405   2.000   3.382  0.3889 -0.7432 -0.4769
 5762TIP3    H138701   0.314   2.008   3.353 -0.1403 -0.3854  1.2061
 5762TIP3    H238702   0.457   2.037   3.310 -0.8565  0.1438 -0.9387
 5763TIP3   OH238703   4.423   5.001   3.625  0.0665 -0.1765  0.4669
 5763TIP3    H138704   4.331   4.984   3.645  0.3157 -0.3976  1.4746
 5763TIP3    H238705   4.467   4.916   3.637  0.6060  0.2029  1.2830
 5764TIP3   OH238706   2.810   3.226  12.398  0.2928 -0.0722  0.4658
 5764TIP3    H138707   2.772   3.195  12.480 -0.8077 -1.2221 -0.4332
 5764TIP3    H238708   2.735   3.235  12.339  1.0504  0.8228 -0.3962
 5765TIP3   OH238709   1.583   1.984   5.388  0.3820  0.6676 -0.0604
 5765TIP3    H138710   1.623   1.964   5.304  0.1822  1.5071 -0.3666
 5765TIP3    H238711   1.650   2.033   5.436  0.0649  1.2559 -0.2103
 5766TIP3   OH238712   0.403   5.658  16.468 -0.0118  0.1311  0.6176
 5766TIP3    H138713   0.428   5.736  16.418 -0.2250 -0.2539 -0.0849
 5766TIP3    H238714   0.307   5.663  16.474  0.0348  0.3365  1.2502
 5767TIP3   OH238715   2.066   0.508  13.363  0.2682  0.7109  0.3672
 5767TIP3    H138716   2.108   0.535  13.445 -1.1077 -0.9159  1.6802
 5767TIP3    H238717   2.045   0.416  13.376  1.3608 -0.0151 -2.4487
 5768TIP3   OH238718   2.249   1.245  14.499 -0.0758 -0.4684 -0.0792
 5768TIP3    H138719   2.242   1.199  14.582 -1.3907 -0.2872 -0.0709
 5768TIP3    H238720   2.184   1.204  14.443 -0.2495  0.4050 -0.5419
 5769TIP3   OH238721   3.253   4.669  16.611  0.0333  1.0738  0.3901
 5769TIP3    H138722   3.277   4.625  16.529 -0.5038  2.7349 -0.7227
 5769TIP3    H238723   3.261   4.602  16.678  0.5865 -0.3230 -1.0159
 5770TIP3   OH238724   3.074   5.383  12.004 -0.1188 -0.2379 -0.2225
 5770TIP3    H138725   3.157   5.358  11.962 -0.4493  1.3724 -2.0267
 5770TIP3    H238726   3.072   5.479  11.995 -1.7618 -0.1748  0.5896
 5771TIP3   OH238727   3.958   4.350   4.959  0.0991 -0.0907 -0.1453
 5771TIP3    H138728   3.872   4.356   4.918 -0.4174 -1.8849  0.5942
 5771TIP3    H238729   4.019   4.386   4.894 -1.3208  2.6285 -0.1053
 5772TIP3   OH238730   5.573   0.233   2.435  0.3711  0.1326  0.2680
 5772TIP3    H138731   5.537   0.150   2.466  0.8918 -0.1447  0.1444
 5772TIP3    H238732   5.627   0.265   2.507  2.4673 -1.0464 -0.6714
 5773TIP3   OH238733   3.352   5.499   2.240  0.5812  0.1722  0.4461
 5773TIP3    H138734   3.346   5.570   2.304 -0.4715  0.1996  0.3198
 5773TIP3    H238735   3.401   5.537   2.167  0.8157  0.4801  0.7581
 5774TIP3   OH238736   6.507   5.988   2.730  0.5837 -0.6371  0.1889
 5774TIP3    H138737   6.598   5.966   2.749  0.1386 -3.1662 -0.2531
 5774TIP3    H238738   6.486   5.938   2.652 -0.6030  1.6138 -1.0314
 5775TIP3   OH238739   6.138   1.097  10.922  0.1666 -0.5953  0.5534
 5775TIP3    H138740   6.120   1.003  10.922 -0.2297 -0.5473 -1.0644
 5775TIP3    H238741   6.094   1.130  10.844  2.0497  0.5832 -0.0762
 5776TIP3   OH238742   2.553   6.008  13.756 -1.0615 -0.2367 -0.6103
 5776TIP3    H138743   2.472   5.972  13.720 -1.0282 -1.4064  0.4038
 5776TIP3    H238744   2.597   5.933  13.796 -0.2306  0.6583  0.2141
 5777TIP3   OH238745   1.528   0.084   4.619  0.5867  0.2963 -0.6103
 5777TIP3    H138746   1.619   0.112   4.603  1.1098 -0.8498  0.2402
 5777TIP3    H238747   1.494   0.148   4.682  0.9754  0.4308 -0.5321
 5778TIP3   OH238748   0.706   1.846  13.366 -0.2206  0.1943 -0.3735
 5778TIP3    H138749   0.761   1.921  13.341  0.9217 -0.4132  0.2457
 5778TIP3    H238750   0.684   1.804  13.283 -0.9180  1.2354 -0.7354
 5779TIP3   OH238751   0.845   3.910  10.836 -0.5059  0.1446 -0.0733
 5779TIP3    H138752   0.839   3.996  10.795  0.6101 -0.7038 -2.1652
 5779TIP3    H238753   0.768   3.863  10.802 -0.1621 -0.2203 -0.3573
 5780TIP3   OH238754   3.464   0.617   2.629  0.1906 -0.2309  0.0394
 5780TIP3    H138755   3.533   0.659   2.579 -0.7672  0.9317 -0.3455
 5780TIP3    H238756   3.385   0.626   2.575 -0.6733  0.2466  1.3272
 5781TIP3   OH238757   3.925   1.636   3.650  0.2094  0.9456  0.3834
 5781TIP3    H138758   4.020   1.638   3.661  0.3240  1.9757 -0.5796
 5781TIP3    H238759   3.908   1.699   3.579 -1.1840  0.7535  0.5223
 5782TIP3   OH238760   6.352   1.899   0.807  0.3438  0.6980 -0.0583
 5782TIP3    H138761   6.280   1.931   0.862  0.0364  1.0183 -0.6413
 5782TIP3    H238762   6.365   1.808   0.835 -0.9173  0.3342 -0.5709
 5783TIP3   OH238763   3.691   0.979  15.146 -0.3969  0.3068  0.3615
 5783TIP3    H138764   3.779   0.949  15.122 -1.3101 -1.8437 -0.4531
 5783TIP3    H238765   3.707   1.051  15.208  1.9173  0.1017  0.0954
 5784TIP3   OH238766   4.713   0.351  15.879  0.3631  0.0862 -0.4425
 5784TIP3    H138767   4.730   0.332  15.971  1.9785 -1.0321 -0.9157
 5784TIP3    H238768   4.778   0.298  15.832 -1.5942 -0.8029 -2.2995
 5785TIP3   OH238769   3.166   2.971   2.152  0.8635  0.2572  0.0566
 5785TIP3    H138770   3.241   2.955   2.096  1.3053  4.7559 -0.9633
 5785TIP3    H238771   3.204   2.990   2.238  0.5521 -1.2809  0.5595
 5786TIP3   OH238772   3.406   3.455   5.881 -0.1406  0.2004  0.3573
 5786TIP3    H138773   3.450   3.408   5.810  0.5512  2.1277 -0.5619
 5786TIP3    H238774   3.341   3.510   5.837  0.1909  1.3147  1.2092
 5787TIP3   OH238775   6.322   3.556   4.648  0.5236 -0.3824  0.1994
 5787TIP3    H138776   6.253   3.557   4.714  0.4762 -0.0696  0.1497
 5787TIP3    H238777   6.326   3.647   4.617 -0.0186 -0.6861 -0.8152
 5788TIP3   OH238778   1.892   2.356  13.837 -0.4160 -0.1218  0.5772
 5788TIP3    H138779   1.980   2.321  13.823 -1.0264 -1.6775  0.4127
 5788TIP3    H238780   1.833   2.285  13.812 -1.7973  1.5479 -1.2608
 5789TIP3   OH238781   3.738   2.608   3.278  0.0211 -0.2703  0.1531
 5789TIP3    H138782   3.714   2.700   3.272 -0.5689 -0.4204  0.1542
 5789TIP3    H238783   3.694   2.577   3.357  0.2228 -0.5530  0.1548
 5790TIP3   OH238784   5.630   5.531   4.376  0.3612  0.5579  0.1304
 5790TIP3    H138785   5.614   5.558   4.467 -2.5765 -2.4683  0.6904
 5790TIP3    H238786   5.713   5.484   4.380  0.5899  1.0086  1.0825
 5791TIP3   OH238787   5.936   3.790   4.070  0.0985  1.1075 -0.2509
 5791TIP3    H138788   5.971   3.705   4.097  0.4647  0.9402 -1.1860
 5791TIP3    H238789   5.913   3.777   3.978 -0.2907  1.8882 -0.2678
 5792TIP3   OH238790   3.751   4.478   3.087 -0.1889  0.5069 -0.2391
 5792TIP3    H138791   3.748   4.573   3.081  0.5191  0.5759  0.3926
 5792TIP3    H238792   3.735   4.459   3.180 -0.0082  0.0295 -0.2997
 5793TIP3   OH238793   3.919   6.664   4.079  0.1347  0.0764 -0.0051
 5793TIP3    H138794   3.934   6.738   4.021  1.3819 -1.0352 -1.1683
 5793TIP3    H238795   3.869   6.602   4.026 -1.9799  0.5111  1.3423
 5794TIP3   OH238796   3.280   2.257  16.190 -0.1781  0.7595  0.4437
 5794TIP3    H138797   3.359   2.310  16.185  0.5555 -0.1897  1.3483
 5794TIP3    H238798   3.305   2.183  16.246 -0.7642 -1.2045 -1.7392
 5795TIP3   OH238799   5.260   2.562  13.997 -0.2545  0.1846 -0.0064
 5795TIP3    H138800   5.202   2.608  13.938 -1.7984 -0.9499  0.5409
 5795TIP3    H238801   5.318   2.510  13.940  0.1643  1.2327 -0.5508
 5796TIP3   OH238802   5.861   6.772  14.575 -0.1292  0.0695  0.3822
 5796TIP3    H138803   5.929   6.719  14.615  0.9558  2.5480  2.0940
 5796TIP3    H238804   5.787   6.767  14.635  0.1446  0.8142  0.7938
 5797TIP3   OH238805   1.973   0.466   1.436 -0.1929 -0.3519 -0.2351
 5797TIP3    H138806   2.038   0.534   1.454  0.5935 -1.3247  0.8136
 5797TIP3    H238807   1.903   0.511   1.389  0.9235  0.8775 -0.7975
 5798TIP3   OH238808   4.610   2.287   5.589  0.3061 -0.3804  0.2617
 5798TIP3    H138809   4.651   2.258   5.671  0.6248  1.0762  0.6507
 5798TIP3    H238810   4.674   2.347   5.551 -0.5423  0.2370 -0.2161
 5799TIP3   OH238811   3.536   1.649   5.983  0.6016 -0.2143 -0.0060
 5799TIP3    H138812   3.624   1.679   5.960 -0.3206  3.2344  0.4457
 5799TIP3    H238813   3.550   1.590   6.057  2.4640  1.7050  1.3034
 5800TIP3   OH238814   4.636   0.734   5.547 -0.2972  0.3566  0.3892
 5800TIP3    H138815   4.565   0.688   5.592 -0.0575 -0.0151  0.3885
 5800TIP3    H238816   4.633   0.701   5.458 -0.5363  0.8207  0.2273
 5801TIP3   OH238817   6.371   1.635  17.161 -0.2585 -0.1740 -0.5772
 5801TIP3    H138818   6.339   1.585  17.086 -0.8841 -1.3575  0.4582
 5801TIP3    H238819   6.403   1.570  17.223  0.5963  0.8037  0.0545
 5802TIP3   OH238820   5.208   1.662   3.867 -0.0672 -0.1614 -0.4191
 5802TIP3    H138821   5.161   1.674   3.785 -1.6648  0.0019  0.4808
 5802TIP3    H238822   5.168   1.725   3.927  2.2183  0.9626  0.0639
 5803TIP3   OH238823   0.147   2.205  11.329 -0.8551  0.4044 -0.3485
 5803TIP3    H138824   0.103   2.150  11.394 -1.0253 -0.6581 -1.3425
 5803TIP3    H238825   0.235   2.218  11.365 -0.7261 -0.7438 -0.2299
 5804TIP3   OH238826   2.935   4.097  13.858  0.2121  0.3681  0.0930
 5804TIP3    H138827   2.940   4.146  13.776 -1.3179 -0.0470 -0.2882
 5804TIP3    H238828   2.890   4.016  13.835  0.7369 -0.2388  1.1406
 5805TIP3   OH238829   6.336   4.243  14.543  0.1438  0.4980 -0.7407
 5805TIP3    H138830   6.283   4.199  14.610 -0.2922  0.2253 -1.2582
 5805TIP3    H238831   6.282   4.239  14.464  0.2591  1.6415 -0.8876
 5806TIP3   OH238832   3.678   4.476   3.337 -0.1053  0.3108 -0.4246
 5806TIP3    H138833   3.647   4.566   3.348  0.8811  0.5641  0.4818
 5806TIP3    H238834   3.618   4.423   3.390  0.5939  0.7253  0.8358
 5807TIP3   OH238835   6.397   6.026   3.046  0.4265  0.3867  0.0056
 5807TIP3    H138836   6.394   6.039   2.951 -2.2425  0.0669 -0.0218
 5807TIP3    H238837   6.325   6.078   3.080  0.4523 -0.6272  1.7190
 5808TIP3   OH238838   3.000   2.143   3.959  0.0300 -0.6073  0.3407
 5808TIP3    H138839   2.906   2.159   3.961  0.0479 -0.5232  0.5283
 5808TIP3    H238840   3.008   2.047   3.958 -0.0429 -0.6399  1.4691
 5809TIP3   OH238841   5.863   1.233   4.125  0.0977  0.5350  0.5377
 5809TIP3    H138842   5.786   1.260   4.075  0.8010  1.9243  0.1495
 5809TIP3    H238843   5.848   1.140   4.145 -1.1807  0.5153 -0.4148
 5810TIP3   OH238844   3.485   0.108  13.943  0.2320 -0.6877  0.2333
 5810TIP3    H138845   3.577   0.082  13.950  0.5806  0.4850  0.3256
 5810TIP3    H238846   3.468   0.112  13.849  0.6545  0.2995  0.1881
 5811TIP3   OH238847   6.459   4.030  11.318  0.6282  0.3523 -0.5265
 5811TIP3    H138848   6.411   4.035  11.401  1.7802  2.1453  0.0997
 5811TIP3    H238849   6.529   3.966  11.334  0.8479  0.6946 -0.0952
 5812TIP3   OH238850   2.097   2.743  11.509  0.4310 -0.3400  0.3519
 5812TIP3    H138851   2.166   2.687  11.547  1.6877  0.3292 -0.8462
 5812TIP3    H238852   2.142   2.791  11.439 -1.1225  0.6203 -0.0168
 5813TIP3   OH238853   0.260   6.625   5.733  0.1584  0.7062 -0.0662
 5813TIP3    H138854   0.274   6.558   5.666 -1.7337  1.0951 -0.9161
 5813TIP3    H238855   0.196   6.685   5.694  0.4764  2.0267  1.3549
 5814TIP3   OH238856   4.654   0.332   1.219  0.3854 -0.0222 -0.5997
 5814TIP3    H138857   4.746   0.344   1.196  0.3688 -0.4774 -0.9415
 5814TIP3    H238858   4.653   0.323   1.314  0.7178 -0.2083 -0.6134
 5815TIP3   OH238859   4.695   4.935   3.419 -0.1626  0.2990 -0.2623
 5815TIP3    H138860   4.776   4.975   3.450 -0.0457  0.3611 -0.6364
 5815TIP3    H238861   4.635   5.009   3.408 -0.5907  0.1494  0.9488
 5816TIP3   OH238862   2.510   5.375  15.215 -0.3733 -0.5054  0.4566
 5816TIP3    H138863   2.499   5.280  15.214 -2.0257 -0.3467  0.5123
 5816TIP3    H238864   2.585   5.390  15.273  0.6132 -1.8091 -0.4333
 5817TIP3   OH238865   4.339   4.456  13.257  0.1489  0.3981  0.4007
 5817TIP3    H138866   4.402   4.398  13.213 -1.5375 -1.6983  0.5634
 5817TIP3    H238867   4.351   4.437  13.350  1.2751  2.2172  0.6751
 5818TIP3   OH238868   2.235   5.288  16.818 -0.3141  0.1565  0.1018
 5818TIP3    H138869   2.287   5.293  16.738  1.3894 -1.0184  1.0863
 5818TIP3    H238870   2.145   5.303  16.789  0.5676  3.1211 -1.5534
 5819TIP3   OH238871   0.362   4.044  15.435  0.4593  0.7194  0.1870
 5819TIP3    H138872   0.283   4.011  15.477 -0.4683  0.3350 -1.7431
 5819TIP3    H238873   0.432   3.989  15.470 -0.4617 -0.4808  0.2209
 5820TIP3   OH238874   6.202   3.157  15.780 -0.2740  0.2291 -0.2589
 5820TIP3    H138875   6.175   3.248  15.766  0.4247  0.1296 -2.6715
 5820TIP3    H238876   6.158   3.108  15.711  0.0944 -1.1357  0.4442
 5821TIP3   OH238877   0.332   5.631   3.961  0.0578  0.0158  0.4613
 5821TIP3    H138878   0.396   5.634   3.890 -1.3704  1.3894 -0.8594
 5821TIP3    H238879   0.261   5.577   3.927 -1.7010  2.5550 -0.2100
 5822TIP3   OH238880   3.364   2.883  12.443  0.0817 -0.3489  0.1579
 5822TIP3    H138881   3.428   2.873  12.513  0.8506  0.3701 -0.4271
 5822TIP3    H238882   3.279   2.869  12.485  0.6481 -1.8776  0.8247
 5823TIP3   OH238883   2.026   2.335   2.686  0.2305 -0.3614 -0.0170
 5823TIP3    H138884   1.947   2.326   2.632  0.5652 -0.3127 -0.5150
 5823TIP3    H238885   2.028   2.428   2.709  0.6889 -0.1606 -0.8445
 5824TIP3   OH238886   3.975   3.408  15.548  0.1160  0.3609 -0.3604
 5824TIP3    H138887   4.057   3.361  15.536  0.7189  1.6151 -1.3566
 5824TIP3    H238888   3.953   3.395  15.641 -0.0316 -2.2631 -0.6883
 5825TIP3   OH238889   2.878   3.049  13.446 -0.0144 -0.3269 -1.0020
 5825TIP3    H138890   2.900   3.129  13.399 -0.3845  0.5291  0.2132
 5825TIP3    H238891   2.786   3.062  13.472  0.7941  0.3197  1.9218
 5826TIP3   OH238892   5.629   3.238   2.217  0.0589 -0.2019 -0.1249
 5826TIP3    H138893   5.538   3.266   2.206  0.2531  0.6483  0.3111
 5826TIP3    H238894   5.625   3.169   2.283 -0.3563 -0.7454 -0.7077
 5827TIP3   OH238895   1.007   5.996   2.220  0.0633 -0.3072 -0.2359
 5827TIP3    H138896   1.084   6.030   2.265  0.1680 -1.3482  0.4131
 5827TIP3    H238897   0.937   6.004   2.284 -0.1932 -0.0946 -0.5434
 5828TIP3   OH238898   3.296   3.052   2.762 -0.3525  0.6398 -0.7603
 5828TIP3    H138899   3.298   3.024   2.670 -0.9922  0.4914 -0.7337
 5828TIP3    H238900   3.387   3.047   2.790 -0.3391 -0.7893 -0.9495
 5829TIP3   OH238901   5.142   3.361  12.786 -0.4615 -0.0715 -0.2503
 5829TIP3    H138902   5.221   3.311  12.764 -0.7166 -1.2737  1.3876
 5829TIP3    H238903   5.070   3.303  12.762 -0.8880  0.9564 -1.5813
 5830TIP3   OH238904   6.701   6.410  12.605  0.0207  0.6126 -0.4295
 5830TIP3    H138905   6.663   6.494  12.581 -0.6417  0.4100 -0.1089
 5830TIP3    H238906   6.641   6.374  12.671  0.5649  0.1191 -0.1926
 5831TIP3   OH238907   1.335   4.794   4.764 -0.0909 -0.0380 -0.2793
 5831TIP3    H138908   1.414   4.768   4.717  0.6046  1.8927 -0.2378
 5831TIP3    H238909   1.361   4.796   4.856 -1.0552 -2.3553  0.1101
 5832TIP3   OH238910   0.401   0.756  17.044 -0.5060 -0.0402 -0.0268
 5832TIP3    H138911   0.308   0.773  17.031  0.1718  2.6444 -2.3643
 5832TIP3    H238912   0.416   0.771  17.138 -2.1788  0.9368  0.1155
 5833TIP3   OH238913   2.494   4.753  11.070 -0.7472 -0.1385  0.7558
 5833TIP3    H138914   2.460   4.840  11.047  3.3802  1.3632 -0.6742
 5833TIP3    H238915   2.476   4.699  10.994  0.8185  0.9171 -0.4231
 5834TIP3   OH238916   6.269   0.224   2.860  0.3193 -0.4184 -0.6824
 5834TIP3    H138917   6.236   0.309   2.886  1.2072 -0.3775  0.4349
 5834TIP3    H238918   6.325   0.242   2.784  2.9349  0.5222  1.3202
 5835TIP3   OH238919   5.101   6.645  16.162 -0.1602  0.6096  0.3733
 5835TIP3    H138920   5.058   6.650  16.248  1.0435  0.2086  1.0209
 5835TIP3    H238921   5.039   6.598  16.107 -1.5113  1.9903  0.6497
 5836TIP3   OH238922   6.743   0.105   6.048 -0.4080  0.7591  0.3050
 5836TIP3    H138923   6.756   0.020   6.089 -1.6587  0.3021 -0.1976
 5836TIP3    H238924   6.661   0.137   6.086  0.5115  2.1904  1.2089
 5837TIP3   OH238925   5.496   2.007  16.683  0.5194  0.0474  0.2278
 5837TIP3    H138926   5.535   2.090  16.713  0.3763  0.1603  0.1042
 5837TIP3    H238927   5.408   2.008  16.720  0.2270  0.3370 -0.4490
 5838TIP3   OH238928   6.295   6.474   0.079 -0.1877  0.0614 -0.2089
 5838TIP3    H138929   6.277   6.444  -0.010 -0.8370 -0.6607  0.1489
 5838TIP3    H238930   6.210   6.474   0.122  0.0737  0.7222  0.3244
 5839TIP3   OH238931   4.343   6.064  14.620  0.3299 -0.5638 -0.1707
 5839TIP3    H138932   4.251   6.058  14.596  0.1614  2.5232 -0.7079
 5839TIP3    H238933   4.388   6.003  14.561 -1.2159 -1.1653 -0.7606
 5840TIP3   OH238934   1.087   1.479  11.953  0.6332  0.3152 -0.3051
 5840TIP3    H138935   1.158   1.511  12.009 -0.4396  0.0762  1.2733
 5840TIP3    H238936   1.055   1.557  11.907  0.3110  0.9150  0.8784
 5841TIP3   OH238937   3.771   1.876  16.793  0.0936 -0.1831 -0.0933
 5841TIP3    H138938   3.859   1.861  16.829 -0.4652  0.2775  1.5471
 5841TIP3    H238939   3.712   1.856  16.866 -1.1325  0.2526 -0.9492
 5842TIP3   OH238940   1.803   5.826   5.588 -0.5338  0.1179 -0.1302
 5842TIP3    H138941   1.814   5.827   5.493 -0.1921  1.4027 -0.0986
 5842TIP3    H238942   1.853   5.750   5.617  0.5730  0.5391 -0.8636
 5843TIP3   OH238943   5.175   1.529   3.454  0.2121  0.1426 -0.5819
 5843TIP3    H138944   5.122   1.599   3.491  0.1503 -0.9139  1.5015
 5843TIP3    H238945   5.129   1.502   3.375 -1.1594  0.7145 -0.0074
 5844TIP3   OH238946   2.639   5.715   3.304 -0.3840  0.3002  0.2497
 5844TIP3    H138947   2.573   5.765   3.257 -0.0650  1.2893  0.8260
 5844TIP3    H238948   2.613   5.722   3.396  0.8840  1.2875  0.5571
 5845TIP3   OH238949   6.061   5.834   3.090  0.6230  0.0069 -0.1278
 5845TIP3    H138950   5.984   5.891   3.084  0.1396 -0.6882 -0.7066
 5845TIP3    H238951   6.120   5.865   3.022 -0.6160 -1.5899 -2.0268
 5846TIP3   OH238952   4.139   5.759   4.473 -0.0919 -0.1770 -0.0972
 5846TIP3    H138953   4.086   5.839   4.470 -0.4529 -0.3819  0.7071
 5846TIP3    H238954   4.217   5.781   4.421 -0.3460  0.5769 -0.1790
 5847TIP3   OH238955   0.274   6.659   0.640  0.0208 -0.4539 -0.1094
 5847TIP3    H138956   0.263   6.712   0.561 -1.8803 -1.0856 -0.3279
 5847TIP3    H238957   0.288   6.570   0.607  1.3123 -0.3956  0.2632
 5848TIP3   OH238958   1.897   0.370   4.901  0.1797  0.1701 -0.7215
 5848TIP3    H138959   1.950   0.450   4.904  1.9420 -0.9865  0.1019
 5848TIP3    H238960   1.912   0.327   4.985 -0.7775 -1.0299 -1.1252
 5849TIP3   OH238961   6.364   5.694   0.655  0.2524  0.8384 -0.1253
 5849TIP3    H138962   6.367   5.759   0.585  0.2974  1.2988  0.3006
 5849TIP3    H238963   6.397   5.740   0.732 -1.0905  0.7532  0.5238
 5850TIP3   OH238964   3.698   6.491  15.090  0.3375  0.3277  0.3211
 5850TIP3    H138965   3.701   6.584  15.115 -0.0454  0.7475 -1.0660
 5850TIP3    H238966   3.646   6.449  15.159 -1.5551  1.6093 -0.2340
 5851TIP3   OH238967   1.830   4.271  12.857 -0.5268  0.1155 -0.3715
 5851TIP3    H138968   1.905   4.322  12.825 -0.1828  1.8444  2.7955
 5851TIP3    H238969   1.754   4.326  12.839 -0.2950  1.2688  1.8316
 5852TIP3   OH238970   0.159   5.415   1.188 -0.0024  0.1004  0.6857
 5852TIP3    H138971   0.213   5.337   1.178  0.8483  0.8272 -0.9572
 5852TIP3    H238972   0.217   5.479   1.230 -0.0185  0.4418  0.2059
 5853TIP3   OH238973   3.487   5.543   4.727  0.3129 -0.0083  0.3025
 5853TIP3    H138974   3.401   5.502   4.736  0.3582 -0.2141 -0.1863
 5853TIP3    H238975   3.485   5.616   4.788 -0.3746  0.2563 -0.0252
 5854TIP3   OH238976   1.604   3.707  14.571  0.0256 -0.1350  0.0240
 5854TIP3    H138977   1.537   3.770  14.545  1.0031  1.0907  0.3571
 5854TIP3    H238978   1.673   3.760  14.612  0.2444 -1.5697  1.6701
 5855TIP3   OH238979   0.466   0.944  10.766  0.3200 -0.2842  0.0644
 5855TIP3    H138980   0.385   0.906  10.800  0.5325 -1.0519 -0.2575
 5855TIP3    H238981   0.449   0.958  10.673 -0.0588  1.2661  0.3447
 5856TIP3   OH238982   5.495   5.483  13.751 -0.4076 -0.7673 -0.3095
 5856TIP3    H138983   5.401   5.491  13.733 -0.5054  1.5043  0.8399
 5856TIP3    H238984   5.533   5.565  13.718  0.8035 -0.6521  1.2655
 5857TIP3   OH238985   1.898   2.267  14.884  0.5224  0.4087  0.1164
 5857TIP3    H138986   1.870   2.184  14.845 -0.6165  0.4144  0.8801
 5857TIP3    H238987   1.960   2.303  14.821 -1.0456  0.3031 -1.5643
 5858TIP3   OH238988   4.197   2.788   0.275  0.6528 -0.2842 -0.3319
 5858TIP3    H138989   4.197   2.796   0.179 -0.6974 -3.0704 -0.6858
 5858TIP3    H238990   4.179   2.876   0.307  2.0550  0.9049 -2.5770
 5859TIP3   OH238991   5.191   4.249  14.649 -0.2511  0.3583  0.1829
 5859TIP3    H138992   5.205   4.258  14.744  2.1005 -0.5314 -0.0129
 5859TIP3    H238993   5.153   4.161  14.640 -0.0915  0.2773  0.2811
 5860TIP3   OH238994   1.020   2.811  10.789  0.1105  0.1228  0.0439
 5860TIP3    H138995   1.076   2.740  10.757 -0.6514 -0.4841  0.0535
 5860TIP3    H238996   1.008   2.868  10.713  2.4936  1.4512  0.5558
 5861TIP3   OH238997   2.834   2.738   3.361 -0.5176 -0.5584 -0.2531
 5861TIP3    H138998   2.797   2.724   3.448 -0.9308 -1.0094 -0.4936
 5861TIP3    H238999   2.769   2.792   3.316  0.5464  1.2961  0.3006
 5862TIP3   OH239000   5.393   0.214   0.600 -0.7925  0.2327 -0.1116
 5862TIP3    H139001   5.464   0.172   0.648  1.4750  1.7466 -1.9386
 5862TIP3    H239002   5.362   0.148   0.539 -2.0666 -0.9143  1.6699
 5863TIP3   OH239003   3.664   5.853  14.596  0.8043  0.1557 -0.2137
 5863TIP3    H139004   3.619   5.840  14.679  0.3596  0.3889 -0.4159
 5863TIP3    H239005   3.746   5.804  14.605  0.5738 -0.1575  0.2041
 5864TIP3   OH239006   1.360   4.546   4.961 -0.1406 -0.1585 -0.4955
 5864TIP3    H139007   1.316   4.615   5.010 -1.4730 -1.0900 -0.3278
 5864TIP3    H239008   1.306   4.535   4.882  0.7123 -0.2191 -1.0798
 5865TIP3   OH239009   3.895   1.878   4.706  0.5806  0.0742 -0.7340
 5865TIP3    H139010   3.809   1.847   4.675  0.8072 -0.0902 -1.2082
 5865TIP3    H239011   3.906   1.836   4.791  0.5140 -0.4961 -1.0018
 5866TIP3   OH239012   1.315   0.007   1.495  0.0190 -0.0136 -0.3887
 5866TIP3    H139013   1.291   0.083   1.547  0.7845  0.5945 -0.9037
 5866TIP3    H239014   1.300  -0.068   1.553 -1.5830  0.4418 -0.1627
 5867TIP3   OH239015   0.879   2.875  11.828  0.5681 -0.2439 -0.2537
 5867TIP3    H139016   0.898   2.945  11.891  1.0434 -1.1386  0.6239
 5867TIP3    H239017   0.843   2.804  11.882  2.8319 -1.7969 -0.6550
 5868TIP3   OH239018   4.127   4.922  16.993 -0.1845 -0.4264  0.0545
 5868TIP3    H139019   4.087   4.951  17.075  1.9314 -1.3338  1.4836
 5868TIP3    H239020   4.214   4.891  17.018  1.9762  2.4942 -2.9696
 5869TIP3   OH239021   5.394   3.560   1.130  0.2795 -0.0929  0.1901
 5869TIP3    H139022   5.444   3.500   1.185 -0.2950  0.0863  0.9239
 5869TIP3    H239023   5.385   3.639   1.183  1.1674  0.7202 -0.8219
 5870TIP3   OH239024   4.333   6.566   0.952  0.4536 -0.3535 -0.3653
 5870TIP3    H139025   4.314   6.473   0.967 -0.8360 -0.4019 -2.0049
 5870TIP3    H239026   4.247   6.609   0.954  0.7339  0.3810 -2.2030
 5871TIP3   OH239027   4.964   1.406   2.389 -0.2793 -0.2026  0.3200
 5871TIP3    H139028   5.027   1.345   2.349  1.1195  2.2589 -1.4675
 5871TIP3    H239029   4.901   1.349   2.432  1.5817 -2.8896 -0.2380
 5872TIP3   OH239030   0.471   0.520   4.565 -0.1427 -0.1078 -0.2205
 5872TIP3    H139031   0.531   0.452   4.536 -1.1860 -0.5688 -1.4083
 5872TIP3    H239032   0.485   0.527   4.659 -1.0615 -3.0596  0.2310
 5873TIP3   OH239033   5.108   2.882  17.007 -0.0943  0.2800 -0.2529
 5873TIP3    H139034   5.152   2.834  16.937  0.8804 -0.0514  0.5633
 5873TIP3    H239035   5.145   2.846  17.088 -1.7782  0.0987  0.4703
 5874TIP3   OH239036   2.023   5.228  13.672 -0.1187  0.3452  0.2312
 5874TIP3    H139037   1.940   5.261  13.639 -0.1146  2.5514  2.1859
 5874TIP3    H239038   2.086   5.246  13.602 -0.9388  0.3819 -0.5089
 5875TIP3   OH239039   1.133   5.910   3.279  0.3589 -0.2599  0.2302
 5875TIP3    H139040   1.092   5.933   3.362 -0.2927 -0.8135  0.0640
 5875TIP3    H239041   1.202   5.976   3.268 -1.0674  1.2738  0.0578
 5876TIP3   OH239042   4.074   5.007   2.045  0.3424 -0.0545 -0.0956
 5876TIP3    H139043   4.024   4.997   1.964  1.6766 -2.2573 -0.7411
 5876TIP3    H239044   4.075   4.919   2.084 -0.3556  0.9565  2.4235
 5877TIP3   OH239045   0.549   5.922   1.366 -0.1953 -0.2872  0.7562
 5877TIP3    H139046   0.628   5.933   1.419  0.7047 -0.7148 -0.4407
 5877TIP3    H239047   0.543   6.003   1.315 -1.2717  0.2853  1.7455
 5878TIP3   OH239048   1.162   0.511   3.342 -0.5011 -0.1593  0.2687
 5878TIP3    H139049   1.088   0.519   3.282 -0.3353  0.1895  0.1111
 5878TIP3    H239050   1.123   0.509   3.430 -0.5886  2.1004  0.3276
 5879TIP3   OH239051   2.863   4.616  12.673 -0.3269 -0.1512 -0.4573
 5879TIP3    H139052   2.845   4.709  12.661  1.7951  0.4354  0.4312
 5879TIP3    H239053   2.907   4.589  12.592 -1.3135 -0.5030 -0.8853
 5880TIP3   OH239054   5.696   0.733  13.507  0.5122  0.3144  0.3213
 5880TIP3    H139055   5.651   0.770  13.431 -0.3189 -1.4977 -0.1298
 5880TIP3    H239056   5.704   0.805  13.568 -1.8616  1.0400 -0.1334
 5881TIP3   OH239057   5.305   5.870  13.587 -0.2764  0.4601  0.4975
 5881TIP3    H139058   5.338   5.927  13.655 -0.0991 -0.4017  1.1513
 5881TIP3    H239059   5.243   5.813  13.631 -1.5261  1.0581 -0.4177
 5882TIP3   OH239060   3.761   6.446   2.599 -0.1554 -0.4482  0.2323
 5882TIP3    H139061   3.828   6.514   2.608 -0.9957  0.5377 -0.6733
 5882TIP3    H239062   3.805   6.366   2.627  1.1127  0.3172  0.5569
 5883TIP3   OH239063   5.104   3.731   1.694  0.3529  0.1582 -0.1302
 5883TIP3    H139064   5.159   3.698   1.622  0.1256 -2.0856  0.6477
 5883TIP3    H239065   5.016   3.699   1.673  0.1728 -0.0010  0.8341
 5884TIP3   OH239066   2.738   6.163   1.703  0.2226 -0.0754 -0.0947
 5884TIP3    H139067   2.655   6.208   1.688  0.1994 -0.2280 -0.4529
 5884TIP3    H239068   2.769   6.196   1.787 -0.6006 -0.6322  0.4457
 5885TIP3   OH239069   3.815   2.681  12.423  0.5773  0.3518  0.2036
 5885TIP3    H139070   3.815   2.653  12.514  0.8140 -0.0143  0.0960
 5885TIP3    H239071   3.758   2.618  12.378  0.4367  0.5482  0.1053
 5886TIP3   OH239072   0.322   3.208  11.227 -0.0348  0.1409  0.2017
 5886TIP3    H139073   0.390   3.271  11.201  0.2166  0.2029  0.9913
 5886TIP3    H239074   0.340   3.190  11.319 -1.3477  0.4783  0.5466
 5887TIP3   OH239075   3.883   3.936  10.728 -0.0289  0.1064  0.3815
 5887TIP3    H139076   3.907   3.847  10.703  1.1018  0.6805 -0.7043
 5887TIP3    H239077   3.954   3.990  10.694 -1.1585  1.5255  0.1733
 5888TIP3   OH239078   4.542   2.507  11.040 -0.4606  0.2118 -0.4600
 5888TIP3    H139079   4.626   2.467  11.062 -0.1321  1.2106  0.1471
 5888TIP3    H239080   4.561   2.567  10.968 -0.4403  1.1844  0.3323
 5889TIP3   OH239081   0.850   5.943  12.041 -0.4863 -0.4742  0.6979
 5889TIP3    H139082   0.937   5.903  12.041  0.0679  0.6772  0.8355
 5889TIP3    H239083   0.848   5.994  11.959 -1.0428 -0.5168  0.6847
 5890TIP3   OH239084   2.135   0.522   4.299 -0.2146 -0.2177 -0.1681
 5890TIP3    H139085   2.046   0.557   4.298  0.9322  3.1476 -1.5176
 5890TIP3    H239086   2.157   0.513   4.392 -0.5421  3.3639  0.4089
 5891TIP3   OH239087   0.090   4.246  15.707 -0.0113  0.5253  0.5782
 5891TIP3    H139088  -0.001   4.234  15.733 -1.2407  0.1646 -3.2837
 5891TIP3    H239089   0.133   4.164  15.730 -1.3833 -0.3985 -0.0174
 5892TIP3   OH239090   0.142   3.034   3.545 -0.2184 -0.4792 -0.4469
 5892TIP3    H139091   0.154   3.049   3.638 -0.9129 -0.8026 -0.2925
 5892TIP3    H239092   0.198   3.098   3.502 -0.9148  0.5835  0.1898
 5893TIP3   OH239093   1.682   1.351  15.436 -0.2485  1.0517 -0.0315
 5893TIP3    H139094   1.628   1.274  15.418 -0.9034  1.5820 -0.3958
 5893TIP3    H239095   1.768   1.315  15.458 -0.1725  0.2525 -1.4937
 5894TIP3   OH239096   2.328   3.247  13.614 -0.0130 -0.1906  0.3615
 5894TIP3    H139097   2.368   3.176  13.663  0.6469 -1.2730 -1.6218
 5894TIP3    H239098   2.396   3.314  13.609  0.6278 -0.8780 -0.6392
 5895TIP3   OH239099   6.807   0.014  15.061 -0.6743  0.5128 -0.6916
 5895TIP3    H139100   6.864   0.011  14.984 -0.3088 -1.1231 -0.3870
 5895TIP3    H239101   6.863   0.046  15.131  0.2882 -2.2093 -0.1146
 5896TIP3   OH239102   2.659   5.046   3.721  0.4592 -0.2464  0.3074
 5896TIP3    H139103   2.722   5.114   3.745  1.8261 -0.8380 -1.3406
 5896TIP3    H239104   2.574   5.082   3.742  1.2544  1.2831  1.0289
 5897TIP3   OH239105   2.271   4.917  10.975  0.4980 -0.8499 -0.5748
 5897TIP3    H139106   2.203   4.931  10.909  0.4150  1.0941 -0.1514
 5897TIP3    H239107   2.346   4.968  10.943  0.9557 -1.0776  0.1108
 5898TIP3   OH239108   6.051   5.172  13.572  0.0173  0.5934 -0.5469
 5898TIP3    H139109   6.039   5.146  13.481 -0.5114  1.7368 -0.8173
 5898TIP3    H239110   6.068   5.266  13.569 -1.3977  0.9302  0.6222
 5899TIP3   OH239111   5.572   6.746  17.001 -0.3576  0.5075 -0.1789
 5899TIP3    H139112   5.516   6.742  17.079 -0.2754  0.4418 -0.1210
 5899TIP3    H239113   5.515   6.776  16.931 -0.3371  0.9478 -0.0057
 5900TIP3   OH239114   6.500   1.539   2.731 -0.0943 -0.0170  0.3337
 5900TIP3    H139115   6.506   1.532   2.636 -3.2492  0.2110 -0.0010
 5900TIP3    H239116   6.466   1.455   2.760 -1.5552  0.7266  0.9057
 5901TIP3   OH239117   5.230   1.185  14.214  0.2449  0.2304 -0.2305
 5901TIP3    H139118   5.249   1.198  14.307 -1.4392 -0.0953  0.1937
 5901TIP3    H239119   5.227   1.090  14.203  0.7737  0.2660 -0.6914
 5902TIP3   OH239120   2.494   2.785  11.586 -0.2299  0.1106 -1.0460
 5902TIP3    H139121   2.467   2.849  11.652 -0.2008  0.4887 -1.3938
 5902TIP3    H239122   2.412   2.745  11.557 -0.1582 -0.8329 -0.0181
 5903TIP3   OH239123   0.631   4.263   3.667  0.6063  0.4756 -0.1766
 5903TIP3    H139124   0.586   4.236   3.747  1.4966  0.3751  0.3062
 5903TIP3    H239125   0.690   4.190   3.647  1.0545  0.8970 -0.4045
 5904TIP3   OH239126   1.005   1.595   5.399 -0.0182  0.5797  0.0152
 5904TIP3    H139127   0.962   1.633   5.476 -0.6098  1.4653 -0.7406
 5904TIP3    H239128   1.079   1.652   5.382  0.2000  0.2978  0.0124
 5905TIP3   OH239129   5.144   0.641  14.164  0.1368 -0.2542  0.4625
 5905TIP3    H139130   5.119   0.597  14.245 -1.8544 -0.9726 -0.4732
 5905TIP3    H239131   5.187   0.574  14.112 -0.6242 -0.4153  0.0356
 5906TIP3   OH239132   2.083   6.266   3.547 -0.4526 -0.1247  0.0204
 5906TIP3    H139133   2.092   6.307   3.461 -0.5444 -3.7640 -1.9072
 5906TIP3    H239134   2.170   6.270   3.585 -0.4148  1.5614 -0.1713
 5907TIP3   OH239135   5.101   5.860  14.260 -0.0329  0.1685  0.5878
 5907TIP3    H139136   5.042   5.850  14.334 -0.3945 -0.5933  0.2011
 5907TIP3    H239137   5.070   5.798  14.195  0.7172  0.3159  0.0709
 5908TIP3   OH239138   1.933   4.053   4.018  0.2486 -0.2350 -0.5496
 5908TIP3    H139139   1.980   4.122   3.971 -2.0533  1.1881 -0.9089
 5908TIP3    H239140   1.922   3.983   3.953  2.4797 -0.9722 -0.2186
 5909TIP3   OH239141   0.415   5.061   1.961 -0.1402  0.2155 -0.5232
 5909TIP3    H139142   0.347   5.042   1.896 -1.4323 -0.4126  0.9259
 5909TIP3    H239143   0.398   4.998   2.031  0.5387  1.5403  0.8770
 5910TIP3   OH239144   6.552   1.909   5.265 -0.2241  0.4246  0.4800
 5910TIP3    H139145   6.497   1.831   5.276 -0.3814 -0.0027 -2.4476
 5910TIP3    H239146   6.491   1.978   5.240  0.2511  0.5449 -0.4256
 5911TIP3   OH239147   1.179   6.323   1.946 -0.5295  0.4385 -0.3492
 5911TIP3    H139148   1.168   6.232   1.917 -1.0832  0.3995 -0.0357
 5911TIP3    H239149   1.274   6.334   1.953 -0.4618 -0.5223  0.8132
 5912TIP3   OH239150   5.716   3.979  14.492 -0.1829 -0.1886  0.3279
 5912TIP3    H139151   5.707   4.045  14.560  1.6483 -0.2112  0.6531
 5912TIP3    H239152   5.718   3.896  14.538 -0.2914 -0.3027  0.1285
 5913TIP3   OH239153   5.917   1.952  14.746 -0.1310 -0.0902  0.5444
 5913TIP3    H139154   5.881   1.864  14.732  1.4858 -0.4363 -2.3071
 5913TIP3    H239155   5.959   1.947  14.832  1.1239 -2.6127 -0.1161
 5914TIP3   OH239156   3.377   1.740   3.433  0.0819  0.8103  0.0105
 5914TIP3    H139157   3.336   1.824   3.455  1.2162  1.4914 -0.3701
 5914TIP3    H239158   3.459   1.740   3.481  0.5152  0.3177 -0.7069
 5915TIP3   OH239159   4.134   4.490   2.037 -0.3282 -0.2690  0.8317
 5915TIP3    H139160   4.220   4.528   2.022 -0.4185 -0.4951 -0.3584
 5915TIP3    H239161   4.126   4.421   1.971 -1.4573 -0.1728  0.8401
 5916TIP3   OH239162   4.466   6.381   0.078 -0.1866  0.0180 -0.0103
 5916TIP3    H139163   4.384   6.397   0.126 -1.2157 -4.5146  0.1485
 5916TIP3    H239164   4.461   6.439   0.002 -2.2824  1.6898  1.2754
 5917TIP3   OH239165   1.420   3.228   0.946  0.2497  0.2847  0.3681
 5917TIP3    H139166   1.440   3.284   1.021  1.3005  0.6678 -0.1676
 5917TIP3    H239167   1.455   3.142   0.969  1.8335  0.7418 -0.2141
 5918TIP3   OH239168   2.699   6.748   6.126 -0.1750 -0.1614  0.2548
 5918TIP3    H139169   2.623   6.693   6.147 -0.6029 -0.1381 -1.1057
 5918TIP3    H239170   2.718   6.795   6.207 -1.0873 -0.7992  0.8575
 5919TIP3   OH239171   6.252   1.504  14.996 -0.0422 -0.3722  0.1526
 5919TIP3    H139172   6.168   1.519  15.040 -0.2525  1.5523 -0.7723
 5919TIP3    H239173   6.317   1.508  15.065 -0.4289  1.7599  0.4492
 5920TIP3   OH239174   0.932   0.460   1.799  0.0230 -0.1046 -0.0338
 5920TIP3    H139175   0.864   0.400   1.768 -0.3869  0.5545 -0.4246
 5920TIP3    H239176   1.009   0.404   1.811  0.1471 -0.4413 -2.0551
 5921TIP3   OH239177   4.579   4.203   0.675  0.0558  0.5472 -0.1432
 5921TIP3    H139178   4.513   4.152   0.629  0.2807 -1.6625  1.7935
 5921TIP3    H239179   4.531   4.247   0.746  0.2234  1.2128 -0.4398
 5922TIP3   OH239180   2.957   1.464  12.421  0.3703  0.5452 -0.0164
 5922TIP3    H139181   2.903   1.425  12.352  0.9050 -0.1117 -0.0729
 5922TIP3    H239182   2.895   1.517  12.472 -0.4498 -0.6307  0.2555
 5923TIP3   OH239183   0.315   0.923   4.048  0.1171  0.1551  0.2916
 5923TIP3    H139184   0.351   1.003   4.010  0.3103  0.5089  1.1858
 5923TIP3    H239185   0.366   0.853   4.008 -0.0430  0.4754 -0.4906
 5924TIP3   OH239186   6.034   3.734  15.746 -0.2755 -0.5063 -0.6076
 5924TIP3    H139187   5.965   3.689  15.795  1.4005 -0.7944  1.6951
 5924TIP3    H239188   6.038   3.821  15.786  0.4640 -0.3780 -0.9481
 5925TIP3   OH239189   4.806   5.769   4.079  0.3039  0.7568 -0.0023
 5925TIP3    H139190   4.777   5.772   3.988 -3.8447 -0.4129  1.0494
 5925TIP3    H239191   4.885   5.714   4.077  0.8823  1.5158 -2.9302
 5926TIP3   OH239192   5.011   1.273  13.431 -0.5091  0.3664  0.0626
 5926TIP3    H139193   4.990   1.210  13.361  1.0746 -1.5418  1.2141
 5926TIP3    H239194   4.932   1.275  13.485 -0.3574 -1.2443  0.4051
 5927TIP3   OH239195   0.166   2.879   0.018  0.5323 -0.0337 -0.1127
 5927TIP3    H139196   0.109   2.802   0.015 -1.1633  1.0817  1.4110
 5927TIP3    H239197   0.229   2.864  -0.052 -0.9839 -1.8344 -1.2089
 5928TIP3   OH239198   2.463   3.904   6.267  0.1279 -0.4753 -0.0235
 5928TIP3    H139199   2.521   3.884   6.340  1.3719 -0.4261 -0.9601
 5928TIP3    H239200   2.392   3.840   6.274  0.2972 -0.5540  1.1312
 5929TIP3   OH239201   3.229   1.879  12.120 -0.5938 -0.0468  0.4842
 5929TIP3    H139202   3.206   1.822  12.047 -0.5307  1.6662 -0.9254
 5929TIP3    H239203   3.147   1.924  12.141 -0.5025 -0.1972  1.2048
 5930TIP3   OH239204   0.880   4.213   0.283 -0.0695  0.7375 -0.3895
 5930TIP3    H139205   0.817   4.264   0.232  0.7305  0.7490 -1.4049
 5930TIP3    H239206   0.963   4.258   0.271  0.8651 -1.2502 -2.0831
 5931TIP3   OH239207   0.542   3.216  16.487  0.2380 -0.1848  0.0567
 5931TIP3    H139208   0.486   3.273  16.540  1.0618 -0.5350  1.3438
 5931TIP3    H239209   0.577   3.152  16.548  1.9534 -0.0558 -0.7181
 5932TIP3   OH239210   3.635   2.235  16.692  0.2399  0.2103 -0.1958
 5932TIP3    H139211   3.618   2.142  16.678  0.7774 -0.0984  1.0884
 5932TIP3    H239212   3.729   2.241  16.706 -0.1951  0.3340  3.6712
 5933TIP3   OH239213   2.134   5.931   2.512 -0.1012  0.1519  0.0112
 5933TIP3    H139214   2.140   5.893   2.425 -1.7506 -2.1635  0.8177
 5933TIP3    H239215   2.154   5.859   2.571 -2.2395  0.7469  1.6027
 5934TIP3   OH239216   5.522   4.962   0.847  0.0836  0.4760 -0.3294
 5934TIP3    H139217   5.616   4.957   0.865 -0.0715  1.4898  0.8953
 5934TIP3    H239218   5.480   4.933   0.928 -0.6920 -1.3587 -1.3346
 5935TIP3   OH239219   0.306   6.407   1.204  0.1880 -0.6020  0.0470
 5935TIP3    H139220   0.313   6.468   1.131 -0.7668  0.1180  0.5265
 5935TIP3    H239221   0.227   6.355   1.184  0.2488 -0.7873  0.2847
 5936TIP3   OH239222   4.491   1.394   3.630 -0.1130 -0.5658 -0.0383
 5936TIP3    H139223   4.559   1.456   3.603 -1.4482  0.6926 -0.6134
 5936TIP3    H239224   4.524   1.358   3.713  0.8679  0.6414  0.1250
 5937TIP3   OH239225   3.823   0.844  15.545 -0.3524 -0.5885  0.2078
 5937TIP3    H139226   3.895   0.888  15.589  0.9400 -1.8581 -0.5765
 5937TIP3    H239227   3.746   0.896  15.569  0.7623  0.6793  1.2302
 5938TIP3   OH239228   2.768   4.385   0.949 -0.1432 -0.5672 -0.0400
 5938TIP3    H139229   2.757   4.406   1.042  1.0908  1.5442 -0.3094
 5938TIP3    H239230   2.681   4.357   0.920 -0.8855  0.1212  1.4113
 5939TIP3   OH239231   1.869   6.508   4.050  0.1986 -0.4431  0.0686
 5939TIP3    H139232   1.841   6.599   4.050  1.0279 -0.0176 -3.9374
 5939TIP3    H239233   1.963   6.511   4.068 -0.1896 -0.8400  2.4682
 5940TIP3   OH239234   0.958   1.039  15.939 -0.1148 -0.8069 -0.5598
 5940TIP3    H139235   0.971   0.975  16.009 -0.7913  0.5002  0.8322
 5940TIP3    H239236   0.866   1.032  15.917 -0.2928 -0.0866 -0.1127
 5941TIP3   OH239237   6.526   1.327  12.641  0.4611 -0.4878  0.2312
 5941TIP3    H139238   6.511   1.237  12.671  0.1885 -0.8914 -1.0432
 5941TIP3    H239239   6.441   1.370  12.648  0.1889 -0.8375 -0.7354
 5942TIP3   OH239240   2.082   0.093  11.986  0.0455  0.5768  0.1072
 5942TIP3    H139241   2.112   0.089  12.077  1.7627 -2.0923 -0.4855
 5942TIP3    H239242   1.989   0.116  11.993 -0.7500 -2.6252  2.7816
 5943TIP3   OH239243   5.169   0.385  12.858 -0.2771 -0.2928 -0.0365
 5943TIP3    H139244   5.241   0.445  12.839  0.6699 -0.7173  2.0367
 5943TIP3    H239245   5.093   0.442  12.867  0.3862  0.5038  0.7482
 5944TIP3   OH239246   1.337   1.410   3.466  0.3481  0.4815  0.1905
 5944TIP3    H139247   1.286   1.329   3.461  0.1933  0.0686  4.5528
 5944TIP3    H239248   1.419   1.390   3.421 -0.2379 -1.6183 -0.0326
 5945TIP3   OH239249   3.589   6.317  15.281  0.1172 -0.7866 -0.8786
 5945TIP3    H139250   3.651   6.250  15.252  0.5793 -0.8286  0.1768
 5945TIP3    H239251   3.614   6.336  15.371 -0.1874  0.6021 -1.0603
 5946TIP3   OH239252   0.711   3.150  11.148 -0.6444 -0.3301  0.0721
 5946TIP3    H139253   0.702   3.071  11.202 -0.0627  0.6652  1.6931
 5946TIP3    H239254   0.687   3.121  11.060 -3.0754 -1.6740  1.0769
 5947TIP3   OH239255   2.726   1.578  12.550  0.7485  0.2228  0.6286
 5947TIP3    H139256   2.742   1.644  12.618  0.2872 -0.7118  1.6663
 5947TIP3    H239257   2.739   1.494  12.594 -0.6336 -0.4321 -0.1573
 5948TIP3   OH239258   4.347   0.252   5.354  0.1592 -0.1955  0.2332
 5948TIP3    H139259   4.319   0.197   5.427 -1.0771 -0.6598 -0.5533
 5948TIP3    H239260   4.412   0.199   5.308  1.0699  0.1678  1.0744
 5949TIP3   OH239261   3.438   0.110  10.821 -0.5753  0.1298  0.1144
 5949TIP3    H139262   3.358   0.072  10.786 -2.0340  1.4768  1.8218
 5949TIP3    H239263   3.439   0.200  10.786  1.0744 -0.3481 -1.1938
 5950TIP3   OH239264   6.019   1.990  14.237  0.3477  0.9850  0.0432
 5950TIP3    H139265   6.017   1.903  14.276 -0.9964  0.7010 -0.5859
 5950TIP3    H239266   6.097   2.032  14.273  1.3016 -0.6526 -0.0387
 5951TIP3   OH239267   2.600   5.348   1.732  0.2823  0.2378  0.5137
 5951TIP3    H139268   2.546   5.294   1.789 -0.1372  1.1520  1.0008
 5951TIP3    H239269   2.586   5.437   1.763  1.1721  0.6058 -0.0988
 5952TIP3   OH239270   1.401   0.179  14.906  0.8220  0.3451  0.4519
 5952TIP3    H139271   1.369   0.205  14.819  0.0391  1.0331  0.9378
 5952TIP3    H239272   1.384   0.255  14.962 -1.0437 -0.9575  1.7911
 5953TIP3   OH239273   3.072   1.674   3.616 -0.1620 -0.2966 -0.6685
 5953TIP3    H139274   2.989   1.699   3.655 -0.8187 -0.9527 -1.5787
 5953TIP3    H239275   3.120   1.756   3.605 -0.3963  0.0118  0.4893
 5954TIP3   OH239276   0.857   1.044   2.510  0.6440  0.2208 -0.0622
 5954TIP3    H139277   0.804   0.988   2.453  1.5041 -0.6339 -0.0548
 5954TIP3    H239278   0.794   1.085   2.570 -0.1935  0.5854 -1.1587
 5955TIP3   OH239279   2.774   2.959  12.133 -0.2938  0.2061  0.4182
 5955TIP3    H139280   2.690   2.950  12.178  0.7926  2.3267  3.2067
 5955TIP3    H239281   2.772   3.048  12.097  0.1002 -0.3575 -1.0412
 5956TIP3   OH239282   0.608   5.602   0.276  0.2386 -0.0413 -0.4173
 5956TIP3    H139283   0.588   5.657   0.200  0.6819  0.5237 -0.1327
 5956TIP3    H239284   0.581   5.514   0.250  3.2696 -0.5273 -2.4770
 5957TIP3   OH239285   3.252   2.756  10.715  0.0160  0.8002  0.3199
 5957TIP3    H139286   3.241   2.665  10.743  2.1872  0.3814  0.0444
 5957TIP3    H239287   3.306   2.750  10.635 -0.4988  2.2908 -0.1736
 5958TIP3   OH239288   6.724   0.981   3.441 -0.0484  0.3360 -0.1406
 5958TIP3    H139289   6.796   1.038   3.412  0.7585 -0.8052 -0.4497
 5958TIP3    H239290   6.648   1.039   3.447  0.4525  1.1998 -1.6752
 5959TIP3   OH239291   0.263   3.648  14.067 -0.2714 -0.5719  0.3634
 5959TIP3    H139292   0.169   3.653  14.083  0.0875  0.7030  2.2824
 5959TIP3    H239293   0.271   3.648  13.971 -2.1685  0.1711  0.1744
 5960TIP3   OH239294   4.881   3.944   2.402  0.1601 -0.8032  0.4489
 5960TIP3    H139295   4.862   3.850   2.402  0.9691 -0.9768  0.4113
 5960TIP3    H239296   4.969   3.950   2.440  0.6255 -0.1859 -0.6782
 5961TIP3   OH239297   6.089   1.723  11.961  0.2971  0.1986 -0.2413
 5961TIP3    H139298   6.000   1.751  11.982  0.5048  1.9428 -1.3927
 5961TIP3    H239299   6.116   1.782  11.890  2.4924 -0.0640  0.3061
 5962TIP3   OH239300   3.246   2.174  11.932  0.3192  0.2958 -0.1361
 5962TIP3    H139301   3.284   2.128  11.857 -1.3522 -0.7645 -0.3666
 5962TIP3    H239302   3.153   2.152  11.930  0.0653  1.0131  1.7166
 5963TIP3   OH239303   3.438   1.483  13.183 -0.2457 -0.2880 -0.1694
 5963TIP3    H139304   3.488   1.402  13.191  0.7680 -0.2015 -3.7187
 5963TIP3    H239305   3.351   1.461  13.217  0.8436 -1.8639  1.8063
 5964TIP3   OH239306   1.671   2.690  16.113 -0.1625  0.6906 -0.0277
 5964TIP3    H139307   1.710   2.759  16.168 -1.1982  0.6263  0.8104
 5964TIP3    H239308   1.631   2.630  16.175 -0.1436 -0.1447 -0.8094
 5965TIP3   OH239309   0.817   3.319   2.696 -0.1865 -0.4518 -0.5381
 5965TIP3    H139310   0.753   3.278   2.637 -1.5154 -0.2767  0.7099
 5965TIP3    H239311   0.826   3.408   2.662  0.3289 -0.8282 -1.4234
 5966TIP3   OH239312   2.266   3.230   3.083  0.0776 -0.3623  0.9885
 5966TIP3    H139313   2.171   3.233   3.097 -0.2713  1.6361 -1.1544
 5966TIP3    H239314   2.291   3.141   3.109 -2.4345 -1.0725  1.2610
 5967TIP3   OH239315   4.222   2.473   2.720  0.1699 -0.1626  0.3089
 5967TIP3    H139316   4.261   2.558   2.700 -0.1915 -0.0391  0.1204
 5967TIP3    H239317   4.285   2.409   2.688  0.7589  0.0269  1.0481
 5968TIP3   OH239318   4.858   6.257   5.036  0.3292 -0.0609 -0.5921
 5968TIP3    H139319   4.891   6.287   4.951  0.6589 -0.0018 -0.4442
 5968TIP3    H239320   4.837   6.338   5.083  1.6977 -0.0257  0.0007
 5969TIP3   OH239321   1.008   0.071   0.011  0.2315 -0.8134 -0.0416
 5969TIP3    H139322   1.044   0.106  -0.071  2.3620 -0.1745  1.1017
 5969TIP3    H239323   0.961   0.144   0.050  1.8095 -0.1391  0.7100
 5970TIP3   OH239324   1.412   6.637   2.216  0.0992 -0.9590 -0.0249
 5970TIP3    H139325   1.383   6.636   2.307  0.1004 -0.0931 -0.0088
 5970TIP3    H239326   1.341   6.596   2.167  0.1177 -1.4678  0.3623
 5971TIP3   OH239327   4.707   6.709  11.548  0.5523 -0.0669 -0.7514
 5971TIP3    H139328   4.718   6.677  11.459  0.3317 -0.6086 -0.5902
 5971TIP3    H239329   4.776   6.775  11.559 -0.7283  1.5622 -2.0000
 5972TIP3   OH239330   4.602   3.443   2.691  0.1246 -0.0571 -0.4706
 5972TIP3    H139331   4.593   3.407   2.602  0.5245 -0.5012 -0.3360
 5972TIP3    H239332   4.587   3.368   2.749 -2.6143  0.7042 -0.0616
 5973TIP3   OH239333   3.567   3.357   2.678  0.1092  0.2103 -0.3794
 5973TIP3    H139334   3.541   3.266   2.666 -1.2551  0.6068 -0.6350
 5973TIP3    H239335   3.662   3.354   2.687  0.0904 -1.2258 -0.4269
 5974TIP3   OH239336   2.927   2.280  11.363  0.1412 -0.1446 -0.0566
 5974TIP3    H139337   2.869   2.352  11.387 -1.4419 -1.4572  0.2207
 5974TIP3    H239338   2.960   2.246  11.446  0.4267 -0.1205 -0.1578
 5975TIP3   OH239339   6.188   3.400   2.050 -0.0769  0.7375 -0.2781
 5975TIP3    H139340   6.166   3.463   1.982 -0.4211  1.7372  0.7480
 5975TIP3    H239341   6.126   3.328   2.038  0.7916  0.2007 -1.9201
 5976TIP3   OH239342   2.627   0.123   2.947  0.6577  0.2372 -0.2535
 5976TIP3    H139343   2.667   0.196   2.993 -0.5208 -0.5059  2.1287
 5976TIP3    H239344   2.572   0.164   2.880 -1.5853  1.7822  2.3090
 5977TIP3   OH239345   6.691   5.170  13.160  0.1768  0.2238 -0.4978
 5977TIP3    H139346   6.717   5.168  13.068  2.4719 -1.9467  0.0730
 5977TIP3    H239347   6.773   5.181  13.208 -0.7832 -0.1361  1.3283
 5978TIP3   OH239348   1.138   6.326  14.262  0.6264  0.1608 -0.3657
 5978TIP3    H139349   1.180   6.377  14.192  0.9076  1.1697  0.5009
 5978TIP3    H239350   1.210   6.298  14.318  0.5277 -1.6779 -1.0950
 5979TIP3   OH239351   3.353   3.766  11.446  0.6236 -0.1206 -0.2934
 5979TIP3    H139352   3.337   3.830  11.516  0.0668 -0.8501  0.2505
 5979TIP3    H239353   3.345   3.681  11.489 -3.3278 -0.7388 -1.9008
 5980TIP3   OH239354   5.165   2.617  15.512  0.0548  0.3522  0.2177
 5980TIP3    H139355   5.247   2.638  15.556  0.0169 -0.6521  0.8070
 5980TIP3    H239356   5.166   2.669  15.432  1.5910 -0.1529 -0.1214
 5981TIP3   OH239357   4.818   4.886   4.257  0.3801 -0.6059 -0.0602
 5981TIP3    H139358   4.749   4.833   4.297 -0.1743 -0.1206 -0.3464
 5981TIP3    H239359   4.786   4.976   4.266  1.9682 -0.1594  1.7556
 5982TIP3   OH239360   1.419   1.744  15.773  0.6908  0.2855  0.6502
 5982TIP3    H139361   1.450   1.800  15.702 -0.0852 -2.1314 -1.7780
 5982TIP3    H239362   1.365   1.802  15.827 -0.2076  1.9059 -1.7817
 5983TIP3   OH239363   0.638   1.551  15.258 -0.2369  0.5077  0.6722
 5983TIP3    H139364   0.662   1.462  15.232 -1.8732  0.3617 -0.4757
 5983TIP3    H239365   0.545   1.546  15.278 -0.3060  1.9184  0.7856
 5984TIP3   OH239366   5.241   5.265   5.401 -0.3866  0.7479  0.4034
 5984TIP3    H139367   5.211   5.306   5.483 -0.5086  0.3575  0.5564
 5984TIP3    H239368   5.265   5.176   5.426 -0.5392  0.5891 -0.0099
 5985TIP3   OH239369   5.241   4.716  16.323  0.0718 -0.6620  0.6452
 5985TIP3    H139370   5.286   4.640  16.285  3.3589  1.0011  0.8903
 5985TIP3    H239371   5.288   4.792  16.289 -2.5659  1.3096  1.0636
 5986TIP3   OH239372   6.400   3.156  10.440  0.4227 -0.7415  0.3286
 5986TIP3    H139373   6.492   3.137  10.420  1.3506  3.0477  0.2524
 5986TIP3    H239374   6.393   3.138  10.534  0.6622 -2.7070  0.0321
 5987TIP3   OH239375   0.118   5.513  13.973  0.0612 -0.3683  0.9665
 5987TIP3    H139376   0.126   5.541  14.064  0.6775 -0.0277  0.8175
 5987TIP3    H239377   0.209   5.507  13.942 -0.0085 -2.7556  1.0435
 5988TIP3   OH239378   4.035   3.290  13.734  0.1193 -0.4570 -0.0604
 5988TIP3    H139379   4.107   3.243  13.775  1.0993 -0.0585 -1.2551
 5988TIP3    H239380   4.077   3.352  13.675 -1.1228  1.5036  0.9686
 5989TIP3   OH239381   5.539   4.716   2.122 -0.1896 -0.0798 -0.0311
 5989TIP3    H139382   5.478   4.789   2.111  1.0684  1.1094  0.7006
 5989TIP3    H239383   5.484   4.644   2.153 -1.4861  0.4716 -0.9624
 5990TIP3   OH239384   5.881   6.457  15.295  0.0833 -0.6656 -0.1997
 5990TIP3    H139385   5.804   6.416  15.254 -0.4438 -1.4514  1.5053
 5990TIP3    H239386   5.938   6.479  15.221 -1.2558 -1.1251 -1.4220
 5991TIP3   OH239387   1.838   3.558  12.045  0.3835  0.6323  0.2105
 5991TIP3    H139388   1.756   3.529  12.004 -0.2430  1.6347  0.6920
 5991TIP3    H239389   1.904   3.498  12.012 -0.9632 -1.9500  1.9050
 5992TIP3   OH239390   2.640   1.097   6.440  0.0625  0.3716  0.1355
 5992TIP3    H139391   2.726   1.137   6.435  0.5867 -0.8274 -0.9696
 5992TIP3    H239392   2.651   1.021   6.498  0.5481 -1.5382 -2.2891
 5993TIP3   OH239393   5.283   4.418   6.242  0.3751  0.7967  0.5506
 5993TIP3    H139394   5.311   4.491   6.187  2.2762  0.3801  0.8852
 5993TIP3    H239395   5.230   4.363   6.185 -0.7287  2.1887  0.1717
 5994TIP3   OH239396   0.852   0.253  15.125 -0.1754  0.3413  0.8530
 5994TIP3    H139397   0.859   0.318  15.054 -0.4612 -1.0095 -0.4691
 5994TIP3    H239398   0.930   0.199  15.115 -0.0408  0.3506  1.8191
 5995TIP3   OH239399   1.934   2.147  12.541 -0.6838 -0.5085  0.0227
 5995TIP3    H139400   1.957   2.199  12.618  1.2422 -1.4195  0.1289
 5995TIP3    H239401   1.876   2.204  12.490  2.3417  2.3990 -0.5431
 5996TIP3   OH239402   5.898   2.100  16.880 -0.1085  0.5727 -0.3262
 5996TIP3    H139403   5.815   2.057  16.858 -0.5741 -0.0309  2.2888
 5996TIP3    H239404   5.963   2.055  16.825 -0.9649 -1.7485  0.4431
 5997TIP3   OH239405   0.252   6.329  16.717  0.6451 -0.2865 -0.3027
 5997TIP3    H139406   0.163   6.307  16.746  0.6600  1.3192  1.1047
 5997TIP3    H239407   0.239   6.393  16.647  0.7036 -1.0476 -1.0331
 5998TIP3   OH239408   1.186   5.433  15.655 -0.1831  0.1776  0.7989
 5998TIP3    H139409   1.154   5.522  15.641 -0.8290 -0.4168 -2.2714
 5998TIP3    H239410   1.112   5.386  15.694  0.2731  0.9846  2.7537
 5999TIP3   OH239411   5.217   1.801  12.939 -0.1777  0.6623  0.2687
 5999TIP3    H139412   5.288   1.851  12.980 -0.4234  1.7328 -0.5639
 5999TIP3    H239413   5.141   1.815  12.997  0.4487 -1.1966  1.6397
 6000TIP3   OH239414   5.186   5.155   3.163  0.0409 -0.1583 -0.7691
 6000TIP3    H139415   5.255   5.120   3.106  0.1643 -0.0859 -0.6644
 6000TIP3    H239416   5.213   5.245   3.182 -0.4759  0.1261 -1.3572
 6001TIP3   OH239417   4.838   4.935  14.786  0.5179 -0.5631 -0.2064
 6001TIP3    H139418   4.778   4.867  14.815  0.7196  0.3305  2.5710
 6001TIP3    H239419   4.787   5.016  14.790  0.4287 -0.3608 -2.9875
 6002TIP3   OH239420   3.269   5.813  16.352 -0.0973  0.4512  0.2230
 6002TIP3    H139421   3.334   5.759  16.308  0.4480  1.2260  0.0553
 6002TIP3    H239422   3.218   5.852  16.280 -0.1700  0.5480  0.3264
 6003TIP3   OH239423   2.330   6.658   4.514 -0.1073  0.8100  0.0283
 6003TIP3    H139424   2.375   6.660   4.598  1.3663  3.0604 -0.7156
 6003TIP3    H239425   2.394   6.618   4.454 -0.1772  1.4596 -0.4906
 6004TIP3   OH239426   0.807   6.787   2.161  0.3650  0.7317  0.0277
 6004TIP3    H139427   0.717   6.772   2.135  0.2654  0.5959  0.4491
 6004TIP3    H239428   0.802   6.854   2.229  0.5206  0.2113  0.5538
 6005TIP3   OH239429   2.036   4.651  14.766 -0.3248 -0.0835  0.5572
 6005TIP3    H139430   2.012   4.634  14.675  0.2885  1.0436  0.1626
 6005TIP3    H239431   1.988   4.731  14.790  0.5742  0.4158  0.7600
 6006TIP3   OH239432   6.200   5.452   4.277 -0.1976 -0.8337 -0.0272
 6006TIP3    H139433   6.268   5.520   4.280  0.1722 -1.2268  2.6056
 6006TIP3    H239434   6.247   5.370   4.264 -0.5065 -0.8039 -1.5340
 6007TIP3   OH239435   6.740   5.349   5.121 -0.2814  0.1638  0.0919
 6007TIP3    H139436   6.665   5.313   5.074  0.2427 -0.7511 -0.0710
 6007TIP3    H239437   6.806   5.280   5.117  0.7747  1.1609 -0.2405
 6008TIP3   OH239438   0.787   1.524  16.350  0.3933 -0.4896 -0.0829
 6008TIP3    H139439   0.722   1.547  16.284  0.2470 -0.8854 -0.0797
 6008TIP3    H239440   0.769   1.583  16.423 -0.3915 -1.0386  0.1806
 6009TIP3   OH239441   1.900   2.309   5.776 -0.3604  0.1166  0.2633
 6009TIP3    H139442   1.968   2.359   5.731  0.6600 -1.2637  0.2149
 6009TIP3    H239443   1.818   2.353   5.751  0.5364  2.5698  1.3100
 6010TIP3   OH239444   5.772   0.582   4.534 -0.2816  0.1162 -0.7427
 6010TIP3    H139445   5.780   0.487   4.529  0.3302  0.1329 -0.1647
 6010TIP3    H239446   5.841   0.615   4.475  0.5095  0.2119  0.2224
 6011TIP3   OH239447   2.572   0.895  14.435  0.5022  0.8299 -0.1517
 6011TIP3    H139448   2.614   0.978  14.457  0.8995  0.0335  2.4444
 6011TIP3    H239449   2.645   0.837  14.414  0.3713  0.6474 -0.0987
 6012TIP3   OH239450   1.514   0.012   5.848  0.2906 -0.8157 -0.6341
 6012TIP3    H139451   1.558   0.051   5.773 -0.1315  0.2584 -0.3537
 6012TIP3    H239452   1.547   0.061   5.924  1.2957 -2.4007 -0.0131
 6013TIP3   OH239453   1.170   5.742   3.071  0.1823 -0.1768 -0.0576
 6013TIP3    H139454   1.170   5.775   2.981  0.7523  1.2606  0.4514
 6013TIP3    H239455   1.190   5.818   3.125 -1.0063 -0.8221  1.3726
 6014TIP3   OH239456   5.658   5.029  15.653 -0.1394  0.0772 -0.2314
 6014TIP3    H139457   5.564   5.042  15.644 -0.5101 -1.8795  0.4779
 6014TIP3    H239458   5.692   5.040  15.564 -0.8727  1.7149 -0.3429
 6015TIP3   OH239459   5.892   0.832   4.736  0.0725  0.1235 -0.9066
 6015TIP3    H139460   5.909   0.926   4.736  0.7896  0.0874  1.6768
 6015TIP3    H239461   5.977   0.793   4.715 -0.1675  0.0393 -1.7371
 6016TIP3   OH239462   5.292   5.655   1.169  0.1252  0.0129  0.5189
 6016TIP3    H139463   5.236   5.731   1.154  0.5922  0.2183 -0.2120
 6016TIP3    H239464   5.363   5.664   1.106  1.6654  0.3921  2.2397
 6017TIP3   OH239465   1.411   5.655   2.076 -0.4042  0.4269 -0.4513
 6017TIP3    H139466   1.490   5.600   2.070 -0.1977  0.4501  1.3864
 6017TIP3    H239467   1.339   5.592   2.082 -0.3905  0.3868 -0.7036
 6018TIP3   OH239468   2.029   0.758   3.246 -0.7595  0.8817  0.7635
 6018TIP3    H139469   2.014   0.703   3.323 -0.1518  0.2474  0.4452
 6018TIP3    H239470   1.965   0.727   3.182 -0.0639  0.1431  0.3965
 6019TIP3   OH239471   4.651   0.371  14.496 -0.1858 -0.2311 -0.8916
 6019TIP3    H139472   4.737   0.329  14.508  1.1856  2.0920 -1.9268
 6019TIP3    H239473   4.667   0.438  14.430 -2.1997  1.9902  0.7478
 6020TIP3   OH239474   4.443   4.309   0.904 -0.4313  0.1831 -0.3240
 6020TIP3    H139475   4.477   4.390   0.942  0.2729  0.2331 -1.0250
 6020TIP3    H239476   4.397   4.265   0.975  0.3211  0.5690  0.4066
 6021TIP3   OH239477   4.201   4.128   5.426  0.4333 -0.3356  0.3828
 6021TIP3    H139478   4.192   4.217   5.393 -2.4402 -0.8623 -0.5379
 6021TIP3    H239479   4.251   4.082   5.359 -0.3073 -0.0034 -0.4152
 6022TIP3   OH239480   0.225   5.536   0.203  0.1197  0.5378  0.2205
 6022TIP3    H139481   0.207   5.629   0.212 -1.2792  0.3336 -0.2504
 6022TIP3    H239482   0.248   5.508   0.292  2.5607  1.6757  0.0343
 6023TIP3   OH239483   1.345   4.010  10.378  0.3049  0.6131 -0.6268
 6023TIP3    H139484   1.351   4.101  10.407 -1.2554  0.5162  0.0665
 6023TIP3    H239485   1.262   4.005  10.331  0.3759 -0.4503 -0.6564
 6024TIP3   OH239486   3.903   4.707   4.897  0.4521 -0.5290 -0.3221
 6024TIP3    H139487   3.811   4.683   4.903 -0.7787  3.2153 -1.8255
 6024TIP3    H239488   3.932   4.715   4.988 -1.0045 -0.7171  0.1769
 6025TIP3   OH239489   2.384   0.693   3.333  0.6215 -0.0713 -0.1182
 6025TIP3    H139490   2.346   0.614   3.370 -0.3345  0.6130  0.4176
 6025TIP3    H239491   2.359   0.763   3.395  2.0482  0.5450 -0.1862
 6026TIP3   OH239492   0.038   5.997  16.678 -0.5548  0.3673 -0.0995
 6026TIP3    H139493  -0.050   5.986  16.643 -0.7692  0.4969  0.3926
 6026TIP3    H239494   0.094   6.003  16.600 -1.0387  0.8086 -0.4253
 6027TIP3   OH239495   1.158   5.604   3.987 -0.0959 -1.0503 -0.2281
 6027TIP3    H139496   1.186   5.695   3.993 -2.0536 -0.1910 -2.2773
 6027TIP3    H239497   1.089   5.596   4.053 -0.3861 -0.8231 -0.4988
 6028TIP3   OH239498   5.148   3.027  11.564 -0.1506 -0.4948  0.0755
 6028TIP3    H139499   5.076   3.020  11.626  1.3700 -0.9500  1.8768
 6028TIP3    H239500   5.152   2.942  11.522 -1.5632  0.0016 -1.1549
 6029TIP3   OH239501   5.597   0.203  11.467  0.1003 -0.3022  0.3624
 6029TIP3    H139502   5.623   0.142  11.536  1.8876 -0.4718 -0.4136
 6029TIP3    H239503   5.666   0.270  11.466  0.7700 -0.9412 -1.9923
 6030TIP3   OH239504   1.280   4.932   1.016  1.0317 -1.1600 -0.3087
 6030TIP3    H139505   1.264   4.881   0.937  1.5917 -0.4891 -0.8634
 6030TIP3    H239506   1.271   5.023   0.988 -0.1796 -0.9356  0.7192
 6031TIP3   OH239507   6.004   3.237   1.176 -0.4702  0.6025  0.3725
 6031TIP3    H139508   5.927   3.278   1.217 -1.6954 -0.0234 -1.2148
 6031TIP3    H239509   5.968   3.179   1.110  1.2934 -1.8216  1.4175
 6032TIP3   OH239510   2.795   5.924   4.353  0.0821 -0.3923 -0.0442
 6032TIP3    H139511   2.781   5.992   4.419 -0.6893  0.7982 -1.3821
 6032TIP3    H239512   2.862   5.960   4.296 -0.0950 -0.8956 -0.5758
 6033TIP3   OH239513   3.664   6.733   3.607  0.2668  0.2728 -0.0408
 6033TIP3    H139514   3.589   6.712   3.551 -0.8000  0.4230  1.2782
 6033TIP3    H239515   3.719   6.654   3.604 -0.9877 -0.6643  0.5898
 6034TIP3   OH239516   1.823   5.862  15.913 -0.9677 -0.0663 -0.1300
 6034TIP3    H139517   1.743   5.911  15.896  1.8053  4.4471 -1.8015
 6034TIP3    H239518   1.856   5.838  15.827  0.8009  0.5997  0.3219
 6035TIP3   OH239519   2.673   3.857  16.216 -0.0109 -0.0613  0.4330
 6035TIP3    H139520   2.754   3.906  16.230 -1.3513  1.6919  2.6522
 6035TIP3    H239521   2.701   3.765  16.217  1.8227  0.4366  2.2918
 6036TIP3   OH239522   0.909   6.463   2.832 -0.3441 -0.0839 -0.2952
 6036TIP3    H139523   0.900   6.558   2.817 -0.6720 -0.2392 -1.1397
 6036TIP3    H239524   0.824   6.427   2.808 -0.8988 -0.3859  1.9711
 6037TIP3   OH239525   6.123   1.290   3.853 -0.3253 -0.3279 -0.2468
 6037TIP3    H139526   6.111   1.278   3.947 -0.1734  0.9549 -0.0509
 6037TIP3    H239527   6.216   1.274   3.839 -0.3245 -0.3987 -0.1639
 6038TIP3   OH239528   1.956   2.572  15.147 -0.0271 -0.8717 -0.3474
 6038TIP3    H139529   2.016   2.598  15.217  0.6525 -0.7555 -0.9633
 6038TIP3    H239530   1.984   2.622  15.071 -2.1345  0.6640 -0.1840
 6039TIP3   OH239531   3.279   5.977  11.787  0.4372 -0.0933  0.3202
 6039TIP3    H139532   3.274   6.059  11.837  1.6623 -0.1802  0.6167
 6039TIP3    H239533   3.324   6.001  11.706  0.1210 -0.3300  0.0714
 6040TIP3   OH239534   0.845   5.598   2.992  0.0078  0.1873 -0.9011
 6040TIP3    H139535   0.778   5.541   3.030  0.8642 -0.8102 -0.8064
 6040TIP3    H239536   0.849   5.674   3.050 -0.9268  0.1843 -0.8285
 6041TIP3   OH239537   0.221   4.815   3.254  0.3012 -0.0003 -0.0684
 6041TIP3    H139538   0.252   4.797   3.343 -0.0033  1.8598  0.4441
 6041TIP3    H239539   0.296   4.796   3.198  0.8013 -0.2400  0.6756
 6042TIP3   OH239540   2.542   6.172  11.932 -0.0176 -0.0918 -0.0507
 6042TIP3    H139541   2.588   6.156  12.015  1.0428  0.8827 -0.4222
 6042TIP3    H239542   2.605   6.150  11.864 -0.5240  0.1148 -0.6010
 6043TIP3   OH239543   5.100   4.456  15.913 -0.5295  0.1438 -0.6010
 6043TIP3    H139544   5.107   4.545  15.949 -0.5944  0.4358 -1.2995
 6043TIP3    H239545   5.149   4.459  15.831 -1.9910  0.0145 -1.5187
 6044TIP3   OH239546   2.507   1.203   1.308  0.1163  0.5103  0.2318
 6044TIP3    H139547   2.498   1.292   1.275 -0.4290  0.4738  0.2622
 6044TIP3    H239548   2.452   1.201   1.387  1.4054  0.5981  1.1561
 6045TIP3   OH239549   0.274   0.418  16.235  0.4411  0.1058 -0.3073
 6045TIP3    H139550   0.269   0.427  16.140  2.8321  2.8946 -0.2871
 6045TIP3    H239551   0.228   0.494  16.270 -2.2642 -1.9265  0.9806
 6046TIP3   OH239552   0.421   2.205  15.893 -0.2710 -0.3917 -0.0687
 6046TIP3    H139553   0.428   2.290  15.849 -0.9863  0.0816  0.6853
 6046TIP3    H239554   0.456   2.142  15.831  0.8900  0.5336 -0.3903
 6047TIP3   OH239555   5.246   1.515   1.981 -0.0142 -0.6561 -0.0237
 6047TIP3    H139556   5.232   1.576   1.909 -2.0912 -1.9675 -0.8117
 6047TIP3    H239557   5.326   1.468   1.957  0.6236  0.5103 -0.2642
 6048TIP3   OH239558   0.282   4.540  10.625 -0.3649 -0.1311 -0.3528
 6048TIP3    H139559   0.290   4.447  10.601  1.1979 -0.6657  1.9019
 6048TIP3    H239560   0.364   4.580  10.598 -0.9725  0.5910 -1.1799
 6049TIP3   OH239561   2.914   6.242  15.892 -0.3371  0.4788  0.1329
 6049TIP3    H139562   2.845   6.176  15.900  0.8742 -0.7763  0.7712
 6049TIP3    H239563   2.949   6.229  15.804  0.8294 -0.7465  0.7385
 6050TIP3   OH239564   2.808   5.174  16.180  0.1233 -0.1738 -0.1833
 6050TIP3    H139565   2.886   5.132  16.217 -0.5664 -0.4680  0.9893
 6050TIP3    H239566   2.737   5.111  16.196 -0.2447 -0.2299 -1.8807
 6051TIP3   OH239567   1.393   6.211  11.013 -0.4315  0.1274 -0.2954
 6051TIP3    H139568   1.324   6.278  11.012 -0.5244  0.0458 -2.1678
 6051TIP3    H239569   1.459   6.246  11.073 -1.0483  1.3155 -0.2744
 6052TIP3   OH239570   4.963   2.642   0.500 -0.1530 -0.2999  0.0472
 6052TIP3    H139571   5.026   2.683   0.440  0.0955 -1.0475 -0.2056
 6052TIP3    H239572   4.977   2.688   0.583  0.3918 -0.1321 -0.1281
 6053TIP3   OH239573   0.533   0.475  12.595  0.3124  0.0115 -0.8028
 6053TIP3    H139574   0.458   0.438  12.549  0.7062  0.1557 -1.5944
 6053TIP3    H239575   0.608   0.455  12.538  0.8320  0.1211 -0.1723
 6054TIP3   OH239576   5.890   5.681   3.859  0.2675  0.1272 -0.0459
 6054TIP3    H139577   5.931   5.617   3.918  0.5037  0.2533 -0.0721
 6054TIP3    H239578   5.854   5.748   3.917  0.4546  0.2249 -0.0399
 6055TIP3   OH239579   0.192   1.492   6.498 -0.4949 -0.1872  0.7124
 6055TIP3    H139580   0.100   1.471   6.483 -0.1578 -2.0742  0.9647
 6055TIP3    H239581   0.196   1.520   6.589 -1.0532  1.7085  0.2054
 6056TIP3   OH239582   0.250   4.925   5.524  0.5667  0.2197 -0.2833
 6056TIP3    H139583   0.321   4.951   5.582 -0.3315 -1.9054  1.9534
 6056TIP3    H239584   0.285   4.852   5.474 -0.5948 -2.7031  2.7575
 6057TIP3   OH239585   3.135   3.214   1.022 -0.1321 -0.8713  0.1110
 6057TIP3    H139586   3.051   3.204   1.067  0.2170 -0.5755  0.8403
 6057TIP3    H239587   3.200   3.213   1.092  0.3089  1.2812 -0.2095
 6058TIP3   OH239588   5.019   1.845  11.799  0.5384  0.2368  0.0722
 6058TIP3    H139589   4.933   1.829  11.761 -0.5339  1.9762  1.6038
 6058TIP3    H239590   5.076   1.782  11.755 -1.2650 -0.2255 -1.8048
 6059TIP3   OH239591   1.180   5.346   5.868 -0.3571  0.6271  0.2910
 6059TIP3    H139592   1.113   5.408   5.898 -0.3949  1.4821 -1.4051
 6059TIP3    H239593   1.133   5.263   5.860 -0.8488  0.8744  0.5372
 6060TIP3   OH239594   6.367   1.785   1.455  0.4546  1.0999 -0.4819
 6060TIP3    H139595   6.422   1.708   1.438  0.1826  0.7473  0.2251
 6060TIP3    H239596   6.357   1.826   1.369 -1.7783 -1.2449 -1.4764
 6061TIP3   OH239597   3.867   5.123   5.235  0.0752 -0.2014  0.3011
 6061TIP3    H139598   3.906   5.092   5.316  1.0398  0.9871  0.3271
 6061TIP3    H239599   3.876   5.050   5.174 -0.7978 -1.1600  1.2807
 6062TIP3   OH239600   3.331   4.929  14.597  0.2496 -0.6305  0.1443
 6062TIP3    H139601   3.383   4.905  14.520  0.3763  0.2631 -0.0591
 6062TIP3    H239602   3.330   5.025  14.597 -0.1244 -0.6220  1.0091
 6063TIP3   OH239603   1.375   2.268  14.546  0.5615  0.4685 -0.0363
 6063TIP3    H139604   1.326   2.324  14.486 -0.5759 -0.5872 -0.1297
 6063TIP3    H239605   1.404   2.195  14.492  0.0419 -0.1883  0.5520
 6064TIP3   OH239606   3.020   4.965  14.119  0.0880 -0.5161 -0.3937
 6064TIP3    H139607   3.047   4.878  14.092 -0.1969 -0.9988  0.8421
 6064TIP3    H239608   3.089   5.023  14.085  0.0415 -1.1379 -1.6178
 6065TIP3   OH239609   0.582   2.120  16.545 -0.0130 -0.2622 -0.2633
 6065TIP3    H139610   0.504   2.069  16.524  0.5881 -0.9582 -0.8474
 6065TIP3    H239611   0.586   2.188  16.478 -2.3188  2.3789  1.9958
 6066TIP3   OH239612   3.220   6.720   4.932 -0.0778 -0.3333  0.1084
 6066TIP3    H139613   3.310   6.718   4.898 -0.5561 -2.3767 -1.2153
 6066TIP3    H239614   3.228   6.690   5.022  0.5652 -0.6077 -0.0331
 6067TIP3   OH239615   0.557   2.184  12.862 -0.0360 -0.6368  0.1653
 6067TIP3    H139616   0.574   2.274  12.889 -0.1082 -0.6699  0.3199
 6067TIP3    H239617   0.620   2.132  12.912  1.3667 -0.4994 -1.3603
 6068TIP3   OH239618   3.219   3.668   2.366 -0.6181  0.3892 -0.2432
 6068TIP3    H139619   3.125   3.681   2.375 -0.3840  2.7094 -0.4946
 6068TIP3    H239620   3.231   3.641   2.276 -1.0704 -0.3375 -0.0912
 6069TIP3   OH239621   5.379   6.619  16.190 -0.5364 -0.2382  0.1207
 6069TIP3    H139622   5.284   6.609  16.181 -0.9084  3.1296 -0.9451
 6069TIP3    H239623   5.403   6.558  16.260 -3.9231  0.6681  2.3109
 6070TIP3   OH239624   4.938   2.103   1.815  0.5929  0.6274  0.3054
 6070TIP3    H139625   4.995   2.032   1.847  1.3477  1.5343  1.0429
 6070TIP3    H239626   4.979   2.131   1.733  0.3986  0.3368  0.1077
 6071TIP3   OH239627   2.413   0.019  14.857  0.3814 -0.0733 -0.2914
 6071TIP3    H139628   2.374  -0.048  14.801 -1.4751  1.0703 -0.4734
 6071TIP3    H239629   2.407  -0.017  14.946 -1.0867  0.0116 -0.3203
 6072TIP3   OH239630   1.350   1.052  13.997  0.0807 -0.4455  0.0147
 6072TIP3    H139631   1.437   1.078  13.965 -0.2318  0.7747  0.0932
 6072TIP3    H239632   1.300   1.134  13.996 -1.0720 -1.1403 -0.0340
 6073TIP3   OH239633   1.920   0.248   4.135 -1.1471 -0.0071 -0.2304
 6073TIP3    H139634   1.862   0.210   4.068 -0.8341  2.5504 -2.1205
 6073TIP3    H239635   1.864   0.307   4.185 -0.6378  0.9260 -0.7315
 6074TIP3   OH239636   4.471   4.403  14.839 -0.6977 -0.3834 -0.7777
 6074TIP3    H139637   4.492   4.377  14.749  0.7891  2.1370 -1.2514
 6074TIP3    H239638   4.417   4.482  14.829 -2.2587 -1.2221  0.5684
 6075TIP3   OH239639   6.022   3.807  11.377 -0.4705 -0.2252  0.2016
 6075TIP3    H139640   6.050   3.752  11.304  0.1378 -0.6981  0.7837
 6075TIP3    H239641   5.927   3.808  11.371 -0.4585 -0.8412 -0.1789
 6076TIP3   OH239642   3.089   4.607   5.282 -0.0747 -0.2620  0.4002
 6076TIP3    H139643   3.018   4.560   5.237  0.6155  0.6700 -1.7886
 6076TIP3    H239644   3.167   4.588   5.230  0.6177  1.5663  0.6974
 6077TIP3   OH239645   5.245   4.245  13.630 -0.3917  0.0287 -0.1033
 6077TIP3    H139646   5.192   4.231  13.551 -1.1597  3.2675 -0.3136
 6077TIP3    H239647   5.304   4.316  13.606 -0.2617  0.7146  2.0503
 6078TIP3   OH239648   5.405   3.601  14.743 -0.1771 -0.0065 -0.3023
 6078TIP3    H139649   5.340   3.600  14.672 -1.8555 -0.9104  1.1530
 6078TIP3    H239650   5.446   3.515  14.738  1.4162  0.7732 -1.5889
 6079TIP3   OH239651   5.059   2.443  16.717  0.3136  0.1051 -0.1306
 6079TIP3    H139652   5.038   2.366  16.771 -2.1243 -0.7376 -2.0693
 6079TIP3    H239653   5.121   2.409  16.651 -1.0628 -0.3963 -1.2279
 6080TIP3   OH239654   2.349   4.506  12.906 -0.8379 -0.5075  0.4950
 6080TIP3    H139655   2.425   4.453  12.881 -0.8681 -2.3106  3.6489
 6080TIP3    H239656   2.291   4.445  12.952 -2.5210  1.5620  1.3182
 6081TIP3   OH239657   3.793   3.556  12.417 -0.1054  0.5836  0.1282
 6081TIP3    H139658   3.795   3.532  12.325  0.8545  1.1117  0.0012
 6081TIP3    H239659   3.760   3.645  12.418  0.2616  0.7212  0.2540
 6082TIP3   OH239660   1.994   2.501  10.704 -0.2754  0.0782  0.4901
 6082TIP3    H139661   1.903   2.531  10.699 -1.3367 -3.0219 -1.3762
 6082TIP3    H239662   2.042   2.562  10.648 -2.1687 -0.8624 -2.4403
 6083TIP3   OH239663   2.077   6.456   0.828  0.4799 -0.5741  0.2782
 6083TIP3    H139664   2.122   6.462   0.912 -0.5216  0.9630  0.7440
 6083TIP3    H239665   2.115   6.379   0.786  0.5653 -1.7283  2.3756
 6084TIP3   OH239666   2.806   2.928  13.140  0.4284 -0.0383  0.1976
 6084TIP3    H139667   2.902   2.928  13.145  0.5555  1.7468 -0.9609
 6084TIP3    H239668   2.781   3.015  13.170 -0.6048  0.4693 -1.9050
 6085TIP3   OH239669   2.698   1.357   2.213 -0.3799 -0.6426 -0.3736
 6085TIP3    H139670   2.691   1.343   2.118  1.1767 -2.4549 -0.2825
 6085TIP3    H239671   2.618   1.319   2.249 -2.2492  2.2990 -1.0423
 6086TIP3   OH239672   4.600   5.711   5.116  0.2485  0.2968  0.3129
 6086TIP3    H139673   4.556   5.752   5.191  0.9572  1.7791 -0.0503
 6086TIP3    H239674   4.659   5.779   5.083  1.2145 -0.9264 -0.5332
 6087TIP3   OH239675   1.915   5.848   5.039 -0.1763 -0.1799  0.2207
 6087TIP3    H139676   1.927   5.937   5.074 -1.5604 -0.3030  1.1124
 6087TIP3    H239677   1.870   5.861   4.956 -0.5232 -0.0334  0.4256
 6088TIP3   OH239678   6.787   5.007  14.829 -0.4008  0.0663  0.2944
 6088TIP3    H139679   6.734   4.947  14.882 -1.8014 -0.8853 -2.0077
 6088TIP3    H239680   6.734   5.023  14.751  1.2367  1.9676 -0.5142
 6089TIP3   OH239681   1.251   4.810   5.021 -0.0511  0.3802 -0.0006
 6089TIP3    H139682   1.203   4.758   4.956  0.9581 -0.3695 -0.1683
 6089TIP3    H239683   1.183   4.861   5.065 -1.1982 -1.5316  0.5919
 6090TIP3   OH239684   4.823   2.701  11.735  0.6300  0.1973  0.2279
 6090TIP3    H139685   4.806   2.628  11.676 -0.0267  0.0468  0.5872
 6090TIP3    H239686   4.911   2.686  11.768  1.0343  0.3309 -0.7741
 6091TIP3   OH239687   2.661   0.993   5.456  0.2364 -0.8944 -0.3028
 6091TIP3    H139688   2.728   0.926   5.443  0.4217 -0.5622 -1.1734
 6091TIP3    H239689   2.605   0.985   5.379  1.4773  1.3131 -1.5548
 6092TIP3   OH239690   3.098   5.049  13.731 -0.3530 -0.2407  0.3563
 6092TIP3    H139691   3.040   4.973  13.734  0.3421 -0.7696  0.6440
 6092TIP3    H239692   3.065   5.102  13.658 -1.8525  0.0178  1.1773
 6093TIP3   OH239693   3.158   3.354  16.248  0.5625  0.1859 -0.0398
 6093TIP3    H139694   3.086   3.366  16.309 -0.7413  0.2429 -1.5227
 6093TIP3    H239695   3.226   3.310  16.299 -0.4095  0.3774  1.4725
 6094TIP3   OH239696   3.372   2.191  12.179  0.1440 -0.3248 -0.4775
 6094TIP3    H139697   3.359   2.185  12.084  0.5378  1.0177 -0.6317
 6094TIP3    H239698   3.417   2.109  12.202 -0.4436 -0.9166 -1.3486
 6095TIP3   OH239699   3.740   0.891   5.078  0.0888  0.0089 -0.0745
 6095TIP3    H139700   3.683   0.918   5.150  0.4675 -0.1335  0.2859
 6095TIP3    H239701   3.738   0.796   5.079 -0.0674  0.0072 -0.3871
 6096TIP3   OH239702   1.569   0.768  12.050 -0.2767  0.7121  0.1983
 6096TIP3    H139703   1.568   0.683  12.006 -0.9839  0.8072  0.0257
 6096TIP3    H239704   1.644   0.814  12.011  0.5934 -0.1168  0.8602
 6097TIP3   OH239705   0.890   2.148  13.580  0.3917  0.6680  0.4702
 6097TIP3    H139706   0.966   2.131  13.524  0.6217  1.0543  0.6565
 6097TIP3    H239707   0.819   2.167  13.518  0.1279 -0.8566  0.2518
 6098TIP3   OH239708   4.272   6.760   2.574  0.4870  0.0512 -0.2807
 6098TIP3    H139709   4.244   6.778   2.484  0.7208 -0.6260 -0.4978
 6098TIP3    H239710   4.360   6.723   2.564  0.2150 -0.7305  0.1742
 6099TIP3   OH239711   0.649   6.784  12.303  0.2098 -0.6960  0.3209
 6099TIP3    H139712   0.640   6.691  12.279  1.3065 -0.7568  0.1119
 6099TIP3    H239713   0.605   6.830  12.232  1.4809 -0.9798 -0.6855
 6100TIP3   OH239714   3.289   1.411   4.221 -0.1234 -0.0104 -0.1128
 6100TIP3    H139715   3.247   1.383   4.302  0.9077 -1.3803 -0.0126
 6100TIP3    H239716   3.376   1.441   4.249  0.6804 -1.5940 -0.7997
 6101TIP3   OH239717   2.073   3.988   5.574  0.1760 -0.6039  0.3891
 6101TIP3    H139718   2.137   4.021   5.510  0.7611  1.2322  1.8360
 6101TIP3    H239719   2.098   3.897   5.588  3.5896  0.4053  2.0491
 6102TIP3   OH239720   6.385   4.172   2.298  0.3329 -0.0274  0.0395
 6102TIP3    H139721   6.321   4.206   2.361 -0.2673 -0.8693 -0.1028
 6102TIP3    H239722   6.434   4.106   2.347  0.5814  0.0740 -0.0715
 6103TIP3   OH239723   6.612   3.199   2.663 -0.2282 -0.0268 -0.4643
 6103TIP3    H139724   6.522   3.173   2.681 -0.2829  1.0108  0.9174
 6103TIP3    H239725   6.662   3.169   2.739  0.4689  0.0652 -0.8686
 6104TIP3   OH239726   0.896   0.552  16.058 -0.0178 -0.1263  0.0287
 6104TIP3    H139727   0.906   0.523  16.148  0.9870  0.3248  0.0666
 6104TIP3    H239728   0.919   0.475  16.006  0.2036 -0.1455  0.1537
 6105TIP3   OH239729   4.391   2.172  15.672 -0.2008  0.0306  0.2939
 6105TIP3    H139730   4.318   2.111  15.682  0.9730 -1.2761  1.1301
 6105TIP3    H239731   4.426   2.183  15.761 -0.5001  2.1047  0.2043
 6106TIP3   OH239732   5.104   0.045  14.552 -0.4205  0.1639 -0.4526
 6106TIP3    H139733   5.055  -0.030  14.519 -0.4327  0.2552 -0.6398
 6106TIP3    H239734   5.098   0.111  14.483 -0.5935  0.4168 -0.1962
 6107TIP3   OH239735   1.903   0.261   3.124 -0.3423  1.0154  0.5377
 6107TIP3    H139736   1.923   0.275   3.031  0.5532  0.4538  0.6403
 6107TIP3    H239737   1.987   0.242   3.165 -1.1170 -2.5008  0.7771
 6108TIP3   OH239738   1.754   5.104   1.086 -0.1761  0.0736  0.0041
 6108TIP3    H139739   1.727   5.165   1.155 -0.7533 -0.3010  0.1240
 6108TIP3    H239740   1.827   5.056   1.124  0.0798  0.4757  0.0244
 6109TIP3   OH239741   1.083   4.002  15.541 -0.1209 -0.0070  0.2112
 6109TIP3    H139742   1.010   3.972  15.595 -0.7787 -0.0983 -0.6994
 6109TIP3    H239743   1.160   3.963  15.580 -0.9125 -2.7884 -0.8072
 6110TIP3   OH239744   3.511   5.819   0.148 -0.0440  0.4289 -0.3755
 6110TIP3    H139745   3.461   5.782   0.075 -0.4910  1.6572 -0.7193
 6110TIP3    H239746   3.446   5.832   0.217  0.2656 -0.1570  0.0448
 6111TIP3   OH239747   2.777   0.302   0.491  0.5613  0.0257  0.2464
 6111TIP3    H139748   2.815   0.316   0.577  2.7980 -1.0109 -0.4920
 6111TIP3    H239749   2.714   0.231   0.504 -1.4990  1.9648  1.5544
 6112TIP3   OH239750   5.705   1.579  16.244  0.6309 -0.4463 -0.3807
 6112TIP3    H139751   5.634   1.637  16.274  0.8281 -0.5431  0.2994
 6112TIP3    H239752   5.736   1.618  16.163 -1.0758 -1.1200 -1.3999
 6113TIP3   OH239753   0.713   3.502   6.088 -0.2289  0.2448  0.5299
 6113TIP3    H139754   0.618   3.500   6.098 -0.5423 -0.8102 -1.9964
 6113TIP3    H239755   0.744   3.422   6.131 -0.6510 -0.1463  0.1115
 6114TIP3   OH239756   5.392   6.502   3.029  0.4238 -0.1786  0.4661
 6114TIP3    H139757   5.483   6.482   3.053  0.0869 -0.2830  1.7301
 6114TIP3    H239758   5.343   6.423   3.049 -0.1719  0.3490  1.1529
 6115TIP3   OH239759   3.326   1.297   6.159 -0.1447 -0.1671 -0.1982
 6115TIP3    H139760   3.355   1.378   6.202  0.6888  0.4001 -1.7158
 6115TIP3    H239761   3.232   1.308   6.148 -0.3140 -0.1842  1.1606
 6116TIP3   OH239762   5.299   1.946  12.690  0.3988 -0.5565 -0.5380
 6116TIP3    H139763   5.389   1.948  12.723  0.3254 -3.0711  0.0489
 6116TIP3    H239764   5.274   1.854  12.697 -1.6050 -0.2179 -2.4171
 6117TIP3   OH239765   3.351   5.324  16.031 -0.8172 -0.8206 -0.0887
 6117TIP3    H139766   3.405   5.343  16.108  0.0500 -2.2226 -0.3154
 6117TIP3    H239767   3.384   5.240  15.999 -0.0095  0.4883 -3.0087
 6118TIP3   OH239768   1.291   5.400   4.111 -0.1032  0.2896  0.0333
 6118TIP3    H139769   1.259   5.470   4.054  1.5064  0.3050 -0.8944
 6118TIP3    H239770   1.214   5.375   4.163 -1.0949  1.6668 -0.7023
 6119TIP3   OH239771   4.469   3.914   0.201 -0.4550  0.2532  0.3599
 6119TIP3    H139772   4.556   3.891   0.169  0.9887  0.9294  3.4578
 6119TIP3    H239773   4.414   3.840   0.177  1.7951 -1.8551  1.3415
 6120TIP3   OH239774   5.592   1.987  15.557 -0.3929 -0.8945 -0.0140
 6120TIP3    H139775   5.589   2.049  15.629 -0.3974 -2.1839  1.1348
 6120TIP3    H239776   5.622   2.038  15.482  1.1473  0.1437  1.2542
 6121TIP3   OH239777   5.782   0.656   4.231  0.6701 -1.0404  0.2332
 6121TIP3    H139778   5.846   0.620   4.169 -0.0649 -1.3118 -0.3803
 6121TIP3    H239779   5.699   0.616   4.206  0.1367 -0.1962  0.6074
 6122TIP3   OH239780   3.865   0.682  16.393  0.2050  0.4359  0.2814
 6122TIP3    H139781   3.823   0.749  16.446 -0.9390  0.4596 -0.6092
 6122TIP3    H239782   3.883   0.610  16.454  0.4217  1.0999  1.0144
 6123TIP3   OH239783   0.205   5.536  13.128  0.2055 -0.2244 -0.1926
 6123TIP3    H139784   0.275   5.497  13.076  0.4301 -1.4506  0.9840
 6123TIP3    H239785   0.125   5.504  13.088  0.3654 -3.1910  1.5521
 6124TIP3   OH239786   2.206   5.539  14.578 -0.2865 -0.3486  0.0428
 6124TIP3    H139787   2.205   5.634  14.577  0.8570 -0.3251  0.0514
 6124TIP3    H239788   2.201   5.514  14.486 -1.0425 -0.2977  0.0643
 6125TIP3   OH239789   4.473   2.652  15.300  0.2397  0.2319 -0.6400
 6125TIP3    H139790   4.430   2.736  15.288 -0.1012  0.7567  3.0967
 6125TIP3    H239791   4.544   2.669  15.362  1.1095 -1.9856 -0.9017
 6126TIP3   OH239792   2.026   3.650  14.927  0.9354 -0.3492  0.3047
 6126TIP3    H139793   1.936   3.618  14.936  1.0299 -0.2037  2.0647
 6126TIP3    H239794   2.072   3.578  14.883  0.2564 -0.9928  0.6209
 6127TIP3   OH239795   3.916   4.823   4.285  0.2074  0.0311 -0.5246
 6127TIP3    H139796   3.861   4.746   4.269 -1.1440  1.0261 -0.8070
 6127TIP3    H239797   3.858   4.898   4.270  1.8704  1.1489 -1.6929
 6128TIP3   OH239798   0.685   6.300  11.727  0.2905  0.2569 -0.0972
 6128TIP3    H139799   0.610   6.278  11.782  0.1030  0.9978 -0.0427
 6128TIP3    H239800   0.696   6.394  11.738  0.9598  0.2281 -0.4480
 6129TIP3   OH239801   6.473   2.786   1.594 -0.8965 -0.2278 -0.5056
 6129TIP3    H139802   6.464   2.777   1.499 -1.4192 -1.8648 -0.3397
 6129TIP3    H239803   6.468   2.880   1.610  1.2146  0.2733 -2.2619
 6130TIP3   OH239804   3.907   1.961   2.144 -0.2652  0.3122 -0.1095
 6130TIP3    H139805   3.969   2.028   2.171  1.9632 -2.0133  0.9165
 6130TIP3    H239806   3.855   1.943   2.223  0.9476 -0.9612  0.4422
 6131TIP3   OH239807   4.984   5.010  14.515 -0.1782  0.0692  0.0983
 6131TIP3    H139808   4.975   4.943  14.584  1.3770 -1.2736 -0.9191
 6131TIP3    H239809   4.904   5.063  14.523  0.2381  0.4171  3.3457
 6132TIP3   OH239810   5.980   2.332  14.484  0.3043  0.1918 -0.0319
 6132TIP3    H139811   5.928   2.261  14.521  0.7200 -0.8247 -1.2812
 6132TIP3    H239812   6.046   2.287  14.431  1.1891  1.5023 -0.0844
 6133TIP3   OH239813   0.033   0.001   2.047  0.7202 -0.0621 -0.1553
 6133TIP3    H139814  -0.014   0.056   1.984  1.9210  1.3727  0.1466
 6133TIP3    H239815   0.058  -0.077   1.997 -0.6156 -0.1556 -0.7197
 6134TIP3   OH239816   6.541   2.967   2.848 -0.6309 -0.1497  0.1853
 6134TIP3    H139817   6.572   2.950   2.759  1.1541 -1.6824  1.0459
 6134TIP3    H239818   6.457   2.921   2.853 -1.2197  0.7194 -0.9351
 6135TIP3   OH239819   0.609   5.776   0.043 -0.4167  0.3364  0.1926
 6135TIP3    H139820   0.621   5.869   0.024  0.6577  0.5482  1.7104
 6135TIP3    H239821   0.640   5.731  -0.036  0.9064  1.2237  0.1855
 6136TIP3   OH239822   0.905   5.578  17.137 -0.2815  0.1995  0.0715
 6136TIP3    H139823   0.905   5.490  17.099 -0.1859  0.1777  0.1217
 6136TIP3    H239824   0.827   5.620  17.100 -2.5701 -1.1613  2.9555
 6137TIP3   OH239825   0.382   1.917  12.559 -0.2418 -0.5376 -0.5115
 6137TIP3    H139826   0.316   1.976  12.522 -2.7118 -2.3494  0.7046
 6137TIP3    H239827   0.371   1.926  12.654  1.3240 -0.9046 -0.2621
 6138TIP3   OH239828   4.471   2.615   2.247 -0.1061  0.0559  0.5840
 6138TIP3    H139829   4.393   2.665   2.271 -1.2305 -0.6784 -1.2921
 6138TIP3    H239830   4.484   2.554   2.320 -1.7464 -0.2889  0.6231
 6139TIP3   OH239831   2.966   5.996   5.129  0.0077  0.2257  0.3723
 6139TIP3    H139832   2.883   6.036   5.101 -0.3052  1.3602  2.6255
 6139TIP3    H239833   3.028   6.069   5.129  0.1757  0.1160  1.6885
 6140TIP3   OH239834   3.103   1.038   1.146  0.3469 -0.4080 -0.2008
 6140TIP3    H139835   3.133   0.982   1.217 -0.5217 -0.7351 -0.0822
 6140TIP3    H239836   3.177   1.040   1.085 -0.0140 -2.7239 -0.8329
 6141TIP3   OH239837   6.729   5.390   3.743  0.4098  0.2081 -0.2097
 6141TIP3    H139838   6.659   5.429   3.691  1.3145  1.2064 -0.7367
 6141TIP3    H239839   6.749   5.307   3.699  1.2971  1.1328 -1.6282
 6142TIP3   OH239840   0.927   2.378  14.998  0.0548  0.3575  0.1933
 6142TIP3    H139841   0.990   2.308  14.984 -0.7686 -0.3850  0.0513
 6142TIP3    H239842   0.844   2.343  14.964 -0.3020  1.5410 -0.2330
 6143TIP3   OH239843   6.592   3.806   4.721 -0.2640 -0.3749  0.2079
 6143TIP3    H139844   6.581   3.795   4.816 -1.3759 -1.0683  0.0080
 6143TIP3    H239845   6.680   3.843   4.712  1.0565 -2.9581  1.3631
 6144TIP3   OH239846   4.167   5.790   0.361 -0.1960 -0.0231  0.4184
 6144TIP3    H139847   4.139   5.699   0.353 -1.9417  0.6245 -1.6067
 6144TIP3    H239848   4.097   5.832   0.410 -0.3308  0.6280 -0.3344
 6145TIP3   OH239849   3.339   4.002   0.758 -0.4982 -0.3507  0.0063
 6145TIP3    H139850   3.403   3.941   0.794  0.0126  1.1466  1.8076
 6145TIP3    H239851   3.340   3.985   0.664  2.0699 -0.8618  0.0479
 6146TIP3   OH239852   6.335   1.635  11.661 -0.1555  0.1649 -0.3978
 6146TIP3    H139853   6.362   1.602  11.746 -1.3679  1.5189  0.5494
 6146TIP3    H239854   6.400   1.702  11.639 -0.2530  0.3270 -0.1914
 6147TIP3   OH239855   1.025   6.398   3.975 -0.2777  0.1184  0.3806
 6147TIP3    H139856   1.027   6.304   3.957  0.2346 -0.2146  2.0299
 6147TIP3    H239857   1.043   6.438   3.890  3.7225 -1.3685  0.2882
 6148TIP3   OH239858   3.014   5.082  15.842 -0.1349 -0.6411  0.7743
 6148TIP3    H139859   3.070   5.040  15.907 -0.3321 -3.7844 -0.8681
 6148TIP3    H239860   2.946   5.126  15.893  2.3865  1.3006  2.7252
 6149TIP3   OH239861   2.800   4.777  14.173 -0.3077 -0.6143  0.1700
 6149TIP3    H139862   2.841   4.857  14.140  0.4924 -0.6663  0.9970
 6149TIP3    H239863   2.744   4.747  14.101  0.1351  0.1501 -0.5117
 6150TIP3   OH239864   2.517   0.093   4.322  0.1434 -0.2083 -0.5112
 6150TIP3    H139865   2.571   0.015   4.339 -3.0319 -2.0457  2.3572
 6150TIP3    H239866   2.579   0.159   4.292  4.2288 -1.7656  3.3782
 6151TIP3   OH239867   3.139   4.705  16.307 -0.4621  0.4994  0.1535
 6151TIP3    H139868   3.225   4.667  16.324  1.3838  2.7900 -2.9548
 6151TIP3    H239869   3.106   4.657  16.231 -1.7815 -0.0591  1.0507
 6152TIP3   OH239870   0.580   0.409   5.685 -0.6657 -0.5248 -0.6196
 6152TIP3    H139871   0.550   0.492   5.648 -0.9376  0.5726  1.8514
 6152TIP3    H239872   0.509   0.381   5.743 -0.2697 -2.1375 -0.8441
 6153TIP3   OH239873   0.100   0.824   4.445  0.2182  0.0698 -0.6861
 6153TIP3    H139874   0.177   0.805   4.392  2.6093 -0.0002  2.5457
 6153TIP3    H239875   0.065   0.906   4.408  1.8618  0.1431 -2.1976
 6154TIP3   OH239876   0.971   1.541  14.213 -0.6421  0.0300 -0.3491
 6154TIP3    H139877   1.013   1.626  14.231 -1.8574  0.8012 -1.0397
 6154TIP3    H239878   0.941   1.510  14.298 -2.2995  1.4552 -0.3740
 6155TIP3   OH239879   5.825   4.519  15.975  0.4941 -0.4142  0.7273
 6155TIP3    H139880   5.741   4.487  15.942  0.4354 -0.2413  0.7082
 6155TIP3    H239881   5.853   4.582  15.909  0.3186  0.0247  1.0689
 6156TIP3   OH239882   4.745   6.799   1.484 -0.6712 -0.3459  0.1968
 6156TIP3    H139883   4.750   6.742   1.560  0.6262 -0.4510  0.0552
 6156TIP3    H239884   4.834   6.832   1.473 -1.1363  0.7488 -0.4556
 6157TIP3   OH239885   0.130   4.578   2.801  0.2162  0.2029 -0.1287
 6157TIP3    H139886   0.041   4.551   2.780 -0.0211  0.8922 -0.0372
 6157TIP3    H239887   0.121   4.669   2.831  1.0407  0.5375 -0.8584
 6158TIP3   OH239888   6.786   3.863  15.704  0.5401  0.0602 -0.3735
 6158TIP3    H139889   6.704   3.903  15.734 -0.6314 -1.0786 -1.9103
 6158TIP3    H239890   6.773   3.769  15.717  1.6788 -0.1226 -0.4849
 6159TIP3   OH239891   3.352   4.652   5.892 -0.2982  0.1210 -0.2707
 6159TIP3    H139892   3.428   4.711   5.889 -0.7409  0.6868 -0.7037
 6159TIP3    H239893   3.288   4.694   5.834 -0.1150 -1.5093 -1.7401
 6160TIP3   OH239894   6.069   6.536  12.394 -0.5077  0.6171 -0.3594
 6160TIP3    H139895   6.155   6.520  12.433 -1.7083  0.1994  2.3410
 6160TIP3    H239896   6.029   6.449  12.389 -1.3370  0.9776 -0.1547
 6161TIP3   OH239897   4.978   1.845   4.306 -0.5793 -0.0391 -0.9010
 6161TIP3    H139898   4.946   1.762   4.270  0.4404 -0.4606 -0.8599
 6161TIP3    H239899   4.941   1.912   4.248 -1.5747 -0.4982 -0.8156
 6162TIP3   OH239900   1.028   2.355  11.010 -0.4748  1.2164  0.1332
 6162TIP3    H139901   0.990   2.411  10.944  0.4626  1.4690 -0.2112
 6162TIP3    H239902   1.123   2.365  10.999 -0.2746  2.0034  2.1252
 6163TIP3   OH239903   3.692   0.055   1.516  0.1331  0.4144  0.0481
 6163TIP3    H139904   3.757   0.002   1.471  0.3008 -0.4378  1.2260
 6163TIP3    H239905   3.685   0.135   1.464  0.3466 -0.4886 -1.4283
 6164TIP3   OH239906   2.280   2.123   2.876  0.4217  0.3659  0.2409
 6164TIP3    H139907   2.309   2.195   2.819 -0.1063  0.8928  0.6267
 6164TIP3    H239908   2.324   2.139   2.959 -1.2316  1.4246  0.9740
 6165TIP3   OH239909   6.712   1.816  12.497 -0.1484  0.0526  0.1241
 6165TIP3    H139910   6.716   1.729  12.537 -0.6956 -0.5213 -1.0338
 6165TIP3    H239911   6.788   1.819  12.439 -1.9107 -0.9967 -2.3985
 6166TIP3   OH239912   1.961   3.396  15.649 -0.0098  0.2171  0.0222
 6166TIP3    H139913   1.938   3.439  15.732 -0.0238 -1.5169  0.9625
 6166TIP3    H239914   1.991   3.309  15.675  1.0995  0.0246 -1.7231
 6167TIP3   OH239915   5.653   0.647   6.290 -0.5929  0.3890  0.5954
 6167TIP3    H139916   5.578   0.654   6.348  0.3296 -0.1942  1.9006
 6167TIP3    H239917   5.727   0.680   6.341  0.2126  0.0854 -0.3279
 6168TIP3   OH239918   6.471   1.484  15.204 -0.3420  0.4059  0.1399
 6168TIP3    H139919   6.554   1.530  15.204  0.3532 -0.6293  3.1142
 6168TIP3    H239920   6.494   1.392  15.189 -0.9657  0.1557  0.6604
 6169TIP3   OH239921   2.456   0.419  14.247 -0.3255  0.0016 -0.4548
 6169TIP3    H139922   2.445   0.391  14.338 -1.0712 -1.9544 -1.0972
 6169TIP3    H239923   2.518   0.492  14.252  1.2270 -1.3247  1.4429
 6170TIP3   OH239924   4.966   5.932   0.039 -0.0227  0.8578 -0.1575
 6170TIP3    H139925   5.040   5.983   0.073  0.2468 -0.0350  0.6568
 6170TIP3    H239926   4.900   5.997   0.018  1.2544  1.7586 -1.6473
 6171TIP3   OH239927   5.804   1.907  11.813 -0.1495 -0.3491 -0.0959
 6171TIP3    H139928   5.816   1.876  11.903  0.9169  0.0394 -0.0923
 6171TIP3    H239929   5.813   1.829  11.759  0.3935 -0.3972  0.0576
 6172TIP3   OH239930   5.453   1.192  10.618  0.4260 -0.5694 -0.0733
 6172TIP3    H139931   5.545   1.217  10.609  0.8459 -1.4278  1.4740
 6172TIP3    H239932   5.408   1.274  10.635  0.5781  0.1330 -2.7481
 6173TIP3   OH239933   6.712   5.279  13.568 -0.2852  0.1462 -0.6435
 6173TIP3    H139934   6.771   5.216  13.529  1.4783  1.3726 -0.0940
 6173TIP3    H239935   6.740   5.285  13.660 -1.5055  0.4853 -0.2729
 6174TIP3   OH239936   6.580   0.293  14.291  0.1649  0.3676 -0.7366
 6174TIP3    H139937   6.546   0.364  14.345  0.1407 -0.9275  1.0117
 6174TIP3    H239938   6.641   0.336  14.231 -1.4187  2.1374 -1.1797
 6175TIP3   OH239939   5.710   3.336   1.984  0.2396  0.6131  0.2078
 6175TIP3    H139940   5.618   3.336   1.960  0.3419  0.5546 -0.1823
 6175TIP3    H239941   5.710   3.318   2.078 -0.1219  0.0971  0.1137
 6176TIP3   OH239942   4.905   5.427  15.954 -0.3813 -0.3234 -0.2738
 6176TIP3    H139943   4.890   5.519  15.978 -1.3237 -0.6898  0.6373
 6176TIP3    H239944   4.905   5.427  15.858  0.7444  0.7870 -0.3003
 6177TIP3   OH239945   6.103   3.641  11.187 -0.2157  0.0580  0.4003
 6177TIP3    H139946   6.071   3.552  11.175 -3.2384  1.1060 -0.0795
 6177TIP3    H239947   6.104   3.679  11.099  0.6795  0.6207  0.6396
 6178TIP3   OH239948   4.575   5.710   1.609  0.2164 -0.0036  0.3624
 6178TIP3    H139949   4.566   5.615   1.614  0.3017  0.0480  2.6222
 6178TIP3    H239950   4.647   5.725   1.548  0.2498 -1.3787  0.0348
 6179TIP3   OH239951   3.895   0.871  11.693 -0.1169 -0.7374 -0.2188
 6179TIP3    H139952   3.824   0.825  11.648  0.4239 -1.9057  0.1007
 6179TIP3    H239953   3.852   0.919  11.764 -0.5597 -1.7117  0.1854
 6180TIP3   OH239954   1.330   0.072   3.700  0.1789  0.2257  0.1589
 6180TIP3    H139955   1.416   0.082   3.740  1.4644 -0.9206 -2.0989
 6180TIP3    H239956   1.321  -0.022   3.683  0.0506  0.6438 -2.6789
 6181TIP3   OH239957   5.403   1.969  15.801  0.0852  0.0920 -0.2107
 6181TIP3    H139958   5.455   2.049  15.816  1.0174 -0.2646 -1.4307
 6181TIP3    H239959   5.464   1.909  15.759 -1.5158 -0.0535 -2.4886
 6182TIP3   OH239960   6.153   5.828  11.937 -0.0341 -0.0529 -0.4982
 6182TIP3    H139961   6.175   5.760  11.872  0.1407 -0.3360 -0.1447
 6182TIP3    H239962   6.236   5.871  11.956 -0.2932  0.8844 -1.4101
 6183TIP3   OH239963   3.468   0.421   3.159  0.7306 -0.1940  0.0093
 6183TIP3    H139964   3.452   0.454   3.071 -0.4400 -1.0581 -0.1269
 6183TIP3    H239965   3.556   0.386   3.156  1.0965  0.7369 -0.5122
 6184TIP3   OH239966   6.786   1.536  15.972 -0.2818  0.5262  0.0763
 6184TIP3    H139967   6.824   1.602  15.914 -0.6777  1.4180  0.8049
 6184TIP3    H239968   6.797   1.453  15.924 -0.1847  1.1686 -1.0621
 6185TIP3   OH239969   0.632   6.161   2.057 -0.2300 -0.3954  0.1459
 6185TIP3    H139970   0.541   6.133   2.068  0.4051 -2.0031  1.8065
 6185TIP3    H239971   0.637   6.190   1.966 -2.1468 -1.2394 -0.2831
 6186TIP3   OH239972   4.804   5.434  11.691  0.2724 -0.2305 -0.0106
 6186TIP3    H139973   4.733   5.412  11.630  0.0306  0.3512  0.0562
 6186TIP3    H239974   4.800   5.365  11.758  1.0267 -1.3163 -1.0311
 6187TIP3   OH239975   0.526   1.565  10.738 -0.4148  0.5463  0.0823
 6187TIP3    H139976   0.568   1.621  10.673 -0.0426  1.4550  1.0797
 6187TIP3    H239977   0.447   1.613  10.763 -0.7268  0.0466  0.0762
 6188TIP3   OH239978   1.242   3.383  13.560 -0.2145 -0.3617  0.1175
 6188TIP3    H139979   1.249   3.294  13.595 -0.5680 -0.8868 -1.1262
 6188TIP3    H239980   1.290   3.437  13.624  1.5667 -1.6878 -0.0423
 6189TIP3   OH239981   2.682   4.273  10.544 -0.5544  0.0610  0.4298
 6189TIP3    H139982   2.596   4.269  10.587 -0.7429 -0.7402  0.0016
 6189TIP3    H239983   2.683   4.197  10.487 -0.6784  1.5422 -1.6725
 6190TIP3   OH239984   2.589   6.791   3.925  0.0752  0.1509 -0.0364
 6190TIP3    H139985   2.611   6.700   3.944  2.6651  0.4356 -1.2808
 6190TIP3    H239986   2.569   6.829   4.011  0.7501 -1.1574  0.7286
 6191TIP3   OH239987   2.506   0.489  12.681 -0.7143  0.0717  0.2525
 6191TIP3    H139988   2.478   0.429  12.612 -2.2548  1.3735 -0.3170
 6191TIP3    H239989   2.472   0.451  12.762 -2.2208  0.4300 -0.1756
 6192TIP3   OH239990   1.084   0.083   5.984  0.0550 -0.1147 -0.2042
 6192TIP3    H139991   1.100   0.175   6.005  1.5839 -0.7771  1.8096
 6192TIP3    H239992   1.132   0.069   5.902 -2.6644  1.5218 -2.2645
 6193TIP3   OH239993   0.756   4.825   1.296  0.4992 -0.1386 -0.3416
 6193TIP3    H139994   0.831   4.884   1.305 -0.3697  0.7822  1.7222
 6193TIP3    H239995   0.706   4.839   1.377 -2.1395 -0.3665 -1.8390
 6194TIP3   OH239996   1.166   4.097   0.496  0.2268 -0.2949  0.1690
 6194TIP3    H139997   1.200   4.043   0.424  0.1316  0.0342 -0.1266
 6194TIP3    H239998   1.157   4.184   0.458 -0.1371 -0.1915  0.4877
 6195TIP3   OH239999   3.024   0.514   1.681 -0.4784  0.4867 -0.0817
 6195TIP3    H140000   3.096   0.574   1.661 -1.0683  0.5560 -2.2720
 6195TIP3    H240001   2.959   0.531   1.613 -1.2075 -1.7678 -0.0407
 6196TIP3   OH240002   3.743   3.928   4.845 -0.1824  0.2641  0.5581
 6196TIP3    H140003   3.751   3.991   4.917 -1.7924  1.0373  0.1158
 6196TIP3    H240004   3.692   3.856   4.881  1.5939 -0.7953  1.0399
 6197TIP3   OH240005   0.749   2.819  12.372 -0.4556 -0.0871  0.0623
 6197TIP3    H140006   0.734   2.887  12.307  0.2084 -0.3611 -0.3845
 6197TIP3    H240007   0.714   2.855  12.453  0.8605  1.2523  0.0837
 6198TIP3   OH240008   0.544   3.281  16.087 -0.3256 -0.8025 -0.6623
 6198TIP3    H140009   0.573   3.297  15.996 -0.5416  4.7634 -0.1116
 6198TIP3    H240010   0.625   3.265  16.135 -0.0705 -2.3825 -1.5610
 6199TIP3   OH240011   1.872   3.151  11.069  0.2979 -0.0329 -0.1523
 6199TIP3    H140012   1.940   3.163  11.002  1.1347 -0.1373  0.6715
 6199TIP3    H240013   1.874   3.058  11.089 -0.3721 -0.1087 -0.4059
 6200TIP3   OH240014   4.690   5.958  15.661 -0.0214  0.1782 -0.7885
 6200TIP3    H140015   4.665   5.898  15.590 -2.3489 -0.4500  0.4463
 6200TIP3    H240016   4.704   6.042  15.618 -0.4560 -0.3936 -2.1036
 6201TIP3   OH240017   5.735   3.972   1.710 -0.2432 -0.8786 -0.2028
 6201TIP3    H140018   5.669   4.035   1.738  0.5501  0.1294 -0.5485
 6201TIP3    H240019   5.818   4.017   1.721  0.2385 -1.2502 -2.0468
 6202TIP3   OH240020   1.294   1.632   5.007 -0.3988  0.0086  0.4716
 6202TIP3    H140021   1.298   1.699   4.938 -1.5146 -0.0779  0.3010
 6202TIP3    H240022   1.233   1.566   4.973 -1.0230 -0.0015  1.5727
 6203TIP3   OH240023   2.641   0.378   3.296  0.1353 -0.1608  0.0747
 6203TIP3    H140024   2.612   0.467   3.316 -0.0158 -0.1159 -0.3315
 6203TIP3    H240025   2.670   0.382   3.205  0.1205 -0.5287  0.0516
 6204TIP3   OH240026   2.349   4.402  16.154 -0.1548  0.5199  0.0049
 6204TIP3    H140027   2.348   4.318  16.108 -0.0635  0.3042  0.3876
 6204TIP3    H240028   2.442   4.422  16.166 -0.1680  0.0236  1.0669
 6205TIP3   OH240029   0.583   0.049  14.856  0.6978  0.1633 -0.1166
 6205TIP3    H140030   0.592   0.105  14.933  2.3024  0.8465 -0.7457
 6205TIP3    H240031   0.617   0.102  14.784 -0.1334 -0.7104 -1.1851
 6206TIP3   OH240032   1.497   6.051  13.004 -0.1449 -0.1337 -0.6077
 6206TIP3    H140033   1.476   6.033  13.096 -2.0964 -1.4854 -1.2455
 6206TIP3    H240034   1.501   5.965  12.963  0.3141  0.4683 -1.8899
 6207TIP3   OH240035   1.433   0.852   6.468 -0.2340  0.2229 -0.2599
 6207TIP3    H140036   1.434   0.941   6.502  0.3150 -0.0683  0.4985
 6207TIP3    H240037   1.514   0.812   6.500 -0.5396 -0.5920 -0.4657
 6208TIP3   OH240038   0.443   0.267   4.238  0.0009  0.8189  0.2497
 6208TIP3    H140039   0.524   0.274   4.287  0.3707  0.7636 -0.3389
 6208TIP3    H240040   0.387   0.336   4.274 -0.7831 -0.9128  2.6065
 6209TIP3   OH240041   2.647   5.289   2.810  0.0851 -0.7319  0.1803
 6209TIP3    H140042   2.694   5.208   2.832  0.4556 -0.6178 -0.1696
 6209TIP3    H240043   2.678   5.353   2.874  0.0553 -0.7773  0.2402
 6210TIP3   OH240044   6.308   4.983   5.258 -0.6401  0.1411 -0.0068
 6210TIP3    H140045   6.283   5.075   5.266 -0.7221  0.3759 -2.2823
 6210TIP3    H240046   6.225   4.936   5.251 -0.6586  0.4265 -3.0287
 6211TIP3   OH240047   1.757   6.537   1.943  0.6153 -0.1984  0.1386
 6211TIP3    H140048   1.670   6.569   1.921 -0.0783 -0.6247  2.0623
 6211TIP3    H240049   1.798   6.518   1.859 -0.6345  1.2869 -0.8647
 6212TIP3   OH240050   0.871   1.152  11.709 -0.3555  0.1220  0.1119
 6212TIP3    H140051   0.836   1.068  11.679  2.1641 -1.8117  2.1345
 6212TIP3    H240052   0.799   1.214  11.695 -2.0602 -2.1441 -2.1940
 6213TIP3   OH240053   1.811   1.780   6.292 -0.3615 -0.1873 -0.1071
 6213TIP3    H140054   1.809   1.704   6.350 -0.3156  0.0079  0.1523
 6213TIP3    H240055   1.897   1.820   6.308 -0.5847  0.2022  0.1238
 6214TIP3   OH240056   6.603   5.917   5.041 -0.5580 -0.6705  0.1533
 6214TIP3    H140057   6.634   5.979   4.975 -1.3111 -1.5946 -1.1044
 6214TIP3    H240058   6.552   5.970   5.102  0.6122  0.2882  0.3223
 6215TIP3   OH240059   3.631   1.180   2.576 -0.0944 -0.6805 -0.3518
 6215TIP3    H140060   3.591   1.110   2.525 -0.4002  0.2478 -1.4285
 6215TIP3    H240061   3.662   1.243   2.511  0.4789  0.0238  0.5733
 6216TIP3   OH240062   5.606   5.385   0.755 -0.8198 -0.3445 -0.2263
 6216TIP3    H140063   5.525   5.437   0.759 -0.3702  0.3083  1.6266
 6216TIP3    H240064   5.576   5.294   0.760 -1.4931 -0.1534 -0.6304
 6217TIP3   OH240065   5.072   3.822  14.358  0.0027 -0.2305  0.9332
 6217TIP3    H140066   5.078   3.776  14.442 -3.1356 -0.4820  1.1349
 6217TIP3    H240067   4.980   3.813  14.332  0.3891  1.6994 -1.4897
 6218TIP3   OH240068   2.262   6.181  11.909  0.5670  0.5528  0.4433
 6218TIP3    H140069   2.257   6.203  11.816  1.1983 -0.9525  0.0275
 6218TIP3    H240070   2.355   6.189  11.931  0.5280  0.1720  0.7550
 6219TIP3   OH240071   1.329   0.742  15.879 -0.4338 -0.5058 -0.2947
 6219TIP3    H140072   1.424   0.757  15.878 -0.2630 -1.4479 -1.4069
 6219TIP3    H240073   1.299   0.782  15.960  0.9690 -0.4606  0.2386
 6220TIP3   OH240074   0.553   0.685   3.147  0.1512  0.8283  0.3453
 6220TIP3    H140075   0.580   0.620   3.211  2.2988 -0.3465 -1.5956
 6220TIP3    H240076   0.461   0.702   3.167 -0.0111 -1.5226  1.9825
 6221TIP3   OH240077   0.971   0.699   2.491 -0.2696 -0.2017 -0.4087
 6221TIP3    H140078   0.941   0.614   2.460 -0.3798  0.0050 -0.8845
 6221TIP3    H240079   0.915   0.762   2.445 -0.0934  0.1304 -0.1704
 6222TIP3   OH240080   4.293   0.767   5.188  0.7305 -0.4248  0.3831
 6222TIP3    H140081   4.220   0.714   5.155  1.6332 -1.4667 -0.0375
 6222TIP3    H240082   4.355   0.702   5.223  1.3558  0.4474  0.9364
 6223TIP3   OH240083   3.883   3.881   1.822 -0.4840  0.4251  0.4085
 6223TIP3    H140084   3.911   3.804   1.772 -0.4868  0.7498 -0.0998
 6223TIP3    H240085   3.870   3.848   1.911  0.9804  0.1467  0.5483
 6224TIP3   OH240086   3.978   5.944  13.126 -0.8355 -0.1749 -0.4113
 6224TIP3    H140087   4.035   5.867  13.124  0.4291  0.7242  0.0120
 6224TIP3    H240088   3.889   5.908  13.129 -0.2716 -1.6093 -0.2861
 6225TIP3   OH240089   0.151   1.453   0.028 -1.0599  0.0478  0.5067
 6225TIP3    H140090   0.116   1.523   0.083 -1.7108 -0.3527  0.6229
 6225TIP3    H240091   0.074   1.416  -0.016 -0.6041  0.0584 -0.3238
 6226TIP3   OH240092   1.323   1.466   5.436 -0.4544  0.0546  0.2249
 6226TIP3    H140093   1.296   1.445   5.525 -0.3175 -0.2684  0.1900
 6226TIP3    H240094   1.405   1.418   5.424 -0.7392 -0.3112 -0.2568
 6227TIP3   OH240095   4.360   6.808  11.387  0.1740 -0.4705  0.1932
 6227TIP3    H140096   4.389   6.806  11.478  1.6359 -0.8177 -0.2660
 6227TIP3    H240097   4.326   6.720  11.370  0.5014 -0.5994  0.2093
 6228TIP3   OH240098   2.463   6.799  13.654  0.1141 -0.0422  0.3429
 6228TIP3    H140099   2.386   6.744  13.671  0.4636 -0.4111  0.7356
 6228TIP3    H240100   2.535   6.754  13.697  0.4322  0.6638  0.5645
 6229TIP3   OH240101   1.217   1.334  10.429  0.0210  0.3268 -0.1305
 6229TIP3    H140102   1.286   1.301  10.487 -1.6066 -2.9014  0.1474
 6229TIP3    H240103   1.258   1.339  10.343  0.8246 -0.7344  0.1819
 6230TIP3   OH240104   1.284   4.336   2.777 -0.2407  0.6253 -0.4331
 6230TIP3    H140105   1.211   4.392   2.803 -0.0035  0.5149  0.5019
 6230TIP3    H240106   1.359   4.371   2.825  0.2074  0.3928 -0.9565
 6231TIP3   OH240107   0.824   0.741  12.975 -0.6711  0.1315  0.1321
 6231TIP3    H140108   0.891   0.806  12.956 -0.7490  0.6813  1.5961
 6231TIP3    H240109   0.791   0.714  12.889  0.9744  0.3054 -0.5826
 6232TIP3   OH240110   1.083   2.256   3.928  0.2005 -0.1147 -0.4541
 6232TIP3    H140111   1.142   2.258   3.852  4.0384  0.4810  2.2488
 6232TIP3    H240112   1.087   2.166   3.959 -0.3599 -0.0681 -0.2313
 6233TIP3   OH240113   4.463   1.180  15.865 -0.1459 -0.4237  0.6258
 6233TIP3    H140114   4.480   1.175  15.959  1.7850  0.6502  0.3865
 6233TIP3    H240115   4.499   1.097  15.831 -1.4606 -1.1221  0.8816
 6234TIP3   OH240116   1.403   5.078  11.242 -0.2953  0.2091 -0.0007
 6234TIP3    H140117   1.344   5.145  11.276  0.8193  1.3280 -0.2087
 6234TIP3    H240118   1.426   5.109  11.154  3.3520  1.7341  1.3050
 6235TIP3   OH240119   2.216   0.886  15.873  0.2890  0.2988 -0.2862
 6235TIP3    H140120   2.244   0.845  15.955 -0.4406  0.6167  0.1280
 6235TIP3    H240121   2.292   0.934  15.843  0.0406  1.6428  1.1363
 6236TIP3   OH240122   4.940   1.212   6.305 -0.0984 -0.5520  0.2863
 6236TIP3    H140123   4.976   1.290   6.262 -2.1010  0.9883  1.2375
 6236TIP3    H240124   4.968   1.220   6.396 -0.2200 -0.9968  0.3612
 6237TIP3   OH240125   0.147   4.961   1.062 -0.0774 -0.4642  0.2159
 6237TIP3    H140126   0.103   5.039   1.029 -0.3251  0.1284  1.8874
 6237TIP3    H240127   0.108   4.889   1.011  0.0139  0.4454 -1.2019
 6238TIP3   OH240128   4.405   2.693   2.639  0.1106 -0.0990  0.4369
 6238TIP3    H140129   4.462   2.645   2.579  0.4685  0.5728  0.2258
 6238TIP3    H240130   4.339   2.734   2.582 -1.8550 -2.4992  0.8354
 6239TIP3   OH240131   5.498   1.053  16.976 -0.3087  0.3524 -0.0793
 6239TIP3    H140132   5.491   1.016  16.888 -1.8125  0.5147 -0.0632
 6239TIP3    H240133   5.572   1.114  16.970  1.2505 -1.5122 -0.4950
 6240TIP3   OH240134   0.206   1.270   3.145 -0.1744 -0.6080  0.3652
 6240TIP3    H140135   0.120   1.272   3.103 -0.7834  1.7462  1.5092
 6240TIP3    H240136   0.222   1.361   3.169  2.9750 -0.8606 -0.3981
 6241TIP3   OH240137   1.393   3.111   4.738  0.5186  0.1856 -0.2968
 6241TIP3    H140138   1.441   3.164   4.801 -0.0840 -0.3426  0.6294
 6241TIP3    H240139   1.454   3.041   4.713  2.1202  2.3648 -3.1410
 6242TIP3   OH240140   5.510   1.950   1.421  0.2638  0.0997 -0.4518
 6242TIP3    H140141   5.552   1.968   1.336 -0.1255 -0.7558 -0.8396
 6242TIP3    H240142   5.557   2.006   1.483  0.7937  0.4757 -1.1723
 6243TIP3   OH240143   1.531   4.145   0.474 -0.3825 -0.0736  0.4621
 6243TIP3    H140144   1.624   4.155   0.456 -0.3693 -3.1365 -1.9299
 6243TIP3    H240145   1.491   4.223   0.436  0.9894 -0.1405 -1.2491
 6244TIP3   OH240146   1.003   1.284  12.141 -0.1569  0.0821  0.4883
 6244TIP3    H140147   0.931   1.228  12.113  1.8850 -2.6565  0.3298
 6244TIP3    H240148   1.041   1.316  12.060 -0.6711  0.8841  0.5509
 6245TIP3   OH240149   1.076   3.927  10.413 -0.3850 -0.5349  0.4106
 6245TIP3    H140150   1.060   4.014  10.377  0.3244  0.4288  2.2440
 6245TIP3    H240151   1.095   3.944  10.506 -2.2278 -2.8361  1.2828
 6246TIP3   OH240152   4.747   0.194   4.656 -0.7057  0.8485 -0.2991
 6246TIP3    H140153   4.662   0.235   4.673 -2.0041 -1.4637 -0.7890
 6246TIP3    H240154   4.732   0.139   4.579  0.2116 -2.2996  1.6098
 6247TIP3   OH240155   0.375   1.556  14.879  0.6736 -0.3604 -0.0608
 6247TIP3    H140156   0.339   1.630  14.829  0.2221 -1.5972 -1.6750
 6247TIP3    H240157   0.302   1.526  14.933 -0.1507 -1.5010 -1.7128
 6248TIP3   OH240158   0.927   0.397  16.261  0.0188  0.6075  0.0020
 6248TIP3    H140159   0.936   0.335  16.188 -1.2094 -0.2323  0.5261
 6248TIP3    H240160   0.850   0.366  16.309 -0.4306  2.3705  0.4799
 6249TIP3   OH240161   2.994   4.691  11.574  0.0544  0.5397  0.2512
 6249TIP3    H140162   3.085   4.670  11.597 -0.4541 -1.3661  0.6694
 6249TIP3    H240163   2.958   4.732  11.653  0.0991 -0.1930  0.6564
 6250TIP3   OH240164   2.897   6.111  16.608  0.4909  0.2100 -0.5543
 6250TIP3    H140165   2.888   6.188  16.552 -0.9360 -0.8575 -1.9089
 6250TIP3    H240166   2.868   6.140  16.694 -0.1983  1.1581 -1.0841
 6251TIP3   OH240167   6.013   3.030   3.477  0.3485 -0.2806 -0.2792
 6251TIP3    H140168   6.047   2.980   3.402  0.9744 -0.9486  0.4326
 6251TIP3    H240169   5.934   3.072   3.444  0.6641 -0.4926 -1.3447
 6252TIP3   OH240170   5.858   5.122   3.753  0.2783  0.1832 -0.0336
 6252TIP3    H140171   5.848   5.163   3.667  2.1107  0.2894 -0.2290
 6252TIP3    H240172   5.899   5.189   3.807  1.5423 -0.7313  0.1796
 6253TIP3   OH240173   3.620   6.381  15.553 -0.4271 -0.1703 -0.0145
 6253TIP3    H140174   3.528   6.393  15.579 -2.0178 -2.8139 -3.5327
 6253TIP3    H240175   3.644   6.296  15.591 -0.4918 -0.8344 -1.3920
 6254TIP3   OH240176   1.724   2.161  12.176 -0.2553 -0.3142 -0.0989
 6254TIP3    H140177   1.731   2.204  12.261 -0.4129 -0.4079 -0.0373
 6254TIP3    H240178   1.805   2.111  12.167 -1.0751 -1.9221  0.9039
 6255TIP3   OH240179   6.758   4.011  11.514  0.1717  0.0702  0.0285
 6255TIP3    H140180   6.847   3.976  11.507  0.0456 -0.6993  1.6967
 6255TIP3    H240181   6.709   3.964  11.446  0.5131 -1.4289  0.7622
 6256TIP3   OH240182   6.334   4.454  12.841  0.1146 -0.3096  0.8784
 6256TIP3    H140183   6.356   4.390  12.773 -0.2795 -0.4430  0.8700
 6256TIP3    H240184   6.277   4.406  12.901  1.7506 -0.6859  2.2155
 6257TIP3   OH240185   2.891   5.862  16.473 -0.0339  0.2026  0.0969
 6257TIP3    H140186   2.895   5.877  16.379 -0.4576  0.0158  0.0450
 6257TIP3    H240187   2.874   5.948  16.510 -0.0551  0.2461 -0.0117
 6258TIP3   OH240188   4.655   2.814   2.258  0.3163  0.1514  0.8022
 6258TIP3    H140189   4.592   2.743   2.248  0.7578 -0.0761 -0.5640
 6258TIP3    H240190   4.604   2.894   2.245 -0.0420  0.0797  1.6431
 6259TIP3   OH240191   2.050   0.191   1.534  0.6849 -0.0120  0.5127
 6259TIP3    H140192   2.026   0.282   1.518 -0.5686 -0.1361  1.4750
 6259TIP3    H240193   2.083   0.159   1.450 -0.8948  0.7220 -0.4302
 6260TIP3   OH240194   2.702   0.850  16.831 -0.7722  0.3341  0.5761
 6260TIP3    H140195   2.687   0.760  16.800 -1.1732  0.2866  0.8888
 6260TIP3    H240196   2.749   0.839  16.914 -1.9939  0.3448  1.2992
 6261TIP3   OH240197   2.739   2.679  11.647 -0.1128  0.2580  0.3065
 6261TIP3    H140198   2.716   2.643  11.733 -2.1714 -1.2011 -0.7624
 6261TIP3    H240199   2.662   2.728  11.620 -0.0892 -0.5421 -1.3242
 6262TIP3   OH240200   4.020   5.340  10.608  0.5304  0.1085  0.2790
 6262TIP3    H140201   3.996   5.414  10.553 -0.2633  0.1661  0.6846
 6262TIP3    H240202   4.073   5.284  10.552 -2.3188 -1.1297 -1.4354
 6263TIP3   OH240203   3.262   6.173  15.587 -0.0291  0.3784  0.1785
 6263TIP3    H140204   3.185   6.224  15.562  1.0183  0.8170 -2.4929
 6263TIP3    H240205   3.260   6.097  15.528  0.8046 -0.3817  1.0976
 6264TIP3   OH240206   2.238   2.730  13.308 -0.3589 -0.2335  0.6596
 6264TIP3    H140207   2.229   2.665  13.238 -1.9260 -0.3529  0.9447
 6264TIP3    H240208   2.332   2.752  13.308  0.0444 -1.8105 -0.0398
 6265TIP3   OH240209   1.486   3.128  12.864 -0.5840 -0.2471 -0.0426
 6265TIP3    H140210   1.538   3.055  12.830 -0.8857  0.2298 -1.6150
 6265TIP3    H240211   1.453   3.097  12.948  1.7453 -0.7944  0.7469
 6266TIP3   OH240212   3.803   2.544   2.736  0.2692 -0.3417 -0.2508
 6266TIP3    H140213   3.881   2.551   2.680 -0.2124 -0.3609 -0.9321
 6266TIP3    H240214   3.753   2.471   2.699 -1.2325  1.1375 -1.3177
 6267TIP3   OH240215   3.475   2.383   4.274 -0.0967 -0.2049 -0.6667
 6267TIP3    H140216   3.566   2.375   4.303 -0.5603  0.8091  1.2229
 6267TIP3    H240217   3.477   2.456   4.211  0.5560 -0.9413 -1.5329
 6268TIP3   OH240218   2.100   0.302   0.345 -0.1511  0.3288 -0.2263
 6268TIP3    H140219   2.076   0.384   0.389 -1.0120  0.3932 -0.7976
 6268TIP3    H240220   2.099   0.324   0.251  0.6710 -0.0645 -0.3384
 6269TIP3   OH240221   4.509   1.512  15.922  0.5904 -0.3795 -0.4955
 6269TIP3    H140222   4.504   1.498  16.017  0.1859 -0.0986 -0.4758
 6269TIP3    H240223   4.503   1.424  15.884  0.8007 -0.4968 -0.2626
 6270TIP3   OH240224   5.588   1.418  16.945 -0.3753 -0.0099  0.0892
 6270TIP3    H140225   5.648   1.492  16.944  0.9600 -1.0689 -0.4017
 6270TIP3    H240226   5.638   1.346  16.983 -1.4694 -0.8102  0.0674
 6271TIP3   OH240227   0.873   4.910   3.334 -0.4604  0.1415 -0.0089
 6271TIP3    H140228   0.819   4.883   3.408 -0.1348 -0.3793  0.0445
 6271TIP3    H240229   0.921   4.830   3.309  0.4597  0.6489  0.0972
 6272TIP3   OH240230   1.859   0.834  13.667 -0.7658  0.0432  0.6769
 6272TIP3    H140231   1.895   0.860  13.582  0.8755 -1.0261  0.9885
 6272TIP3    H240232   1.765   0.848  13.659 -0.6547 -0.0897 -1.3418
 6273TIP3   OH240233   4.372   6.449   3.915  0.7494 -0.7154 -0.4259
 6273TIP3    H140234   4.403   6.521   3.860  0.7476  0.3089  0.8495
 6273TIP3    H240235   4.445   6.388   3.920  0.9897 -0.4724 -0.9871
 6274TIP3   OH240236   1.287   0.901   1.522  0.2390 -0.2698  0.2248
 6274TIP3    H140237   1.233   0.824   1.536  1.1578 -0.4744  3.4665
 6274TIP3    H240238   1.264   0.960   1.594  3.5761 -0.0131  1.2750
 6275TIP3   OH240239   1.277   0.860  11.525 -0.6891 -0.2502  0.0093
 6275TIP3    H140240   1.247   0.769  11.524 -3.4158  0.5422  0.8965
 6275TIP3    H240241   1.277   0.885  11.433  0.8712 -1.3383 -0.3196
 6276TIP3   OH240242   1.833   0.383   2.100 -0.2602 -0.6365  0.1851
 6276TIP3    H140243   1.813   0.296   2.064 -2.5951  0.1173 -0.4530
 6276TIP3    H240244   1.855   0.366   2.192 -0.4655 -1.9090  0.0178
 6277TIP3   OH240245   0.254   6.732  12.624 -0.4966  0.0796 -0.2649
 6277TIP3    H140246   0.306   6.745  12.703  1.6750 -0.3483 -1.5277
 6277TIP3    H240247   0.229   6.640  12.627  0.0791 -0.0864 -0.3308
 6278TIP3   OH240248   3.394   4.885   6.050  0.7608 -0.1494  0.2337
 6278TIP3    H140249   3.466   4.826   6.027  0.7302 -0.4029  0.7827
 6278TIP3    H240250   3.435   4.972   6.052  0.8661 -0.1806 -0.2888
 6279TIP3   OH240251   3.800   3.655  13.136 -0.2771 -0.2916  0.0497
 6279TIP3    H140252   3.732   3.699  13.187 -0.1910 -0.4973  0.3427
 6279TIP3    H240253   3.769   3.659  13.046  0.3672  1.6253 -0.1551
 6280TIP3   OH240254   2.645   6.089   0.957 -0.1627 -0.2116 -0.1259
 6280TIP3    H140255   2.692   6.056   1.033 -1.4604 -1.7402  0.0603
 6280TIP3    H240256   2.616   6.177   0.982 -0.6963 -0.7481  1.2124
 6281TIP3   OH240257   3.058   4.668  15.168  0.2735 -0.4048  0.0760
 6281TIP3    H140258   3.038   4.577  15.149  2.0032 -0.3152 -2.7730
 6281TIP3    H240259   3.148   4.667  15.201  0.0404  0.2101  0.7615
 6282TIP3   OH240260   3.228   6.717  11.306 -0.8178  0.6693 -0.2129
 6282TIP3    H140261   3.240   6.777  11.379  0.0436 -0.1173  0.3121
 6282TIP3    H240262   3.187   6.639  11.344  1.5218 -0.6111 -0.0765
 6283TIP3   OH240263   0.953   4.709   2.247 -0.3881  0.2062  0.8391
 6283TIP3    H140264   0.909   4.625   2.253  0.9704 -0.6750 -0.5360
 6283TIP3    H240265   0.883   4.774   2.252 -1.5657 -1.0342  0.9369
 6284TIP3   OH240266   5.791   1.377   0.470  0.0374 -0.6307  0.2302
 6284TIP3    H140267   5.786   1.456   0.524  0.4818 -1.0874  0.9524
 6284TIP3    H240268   5.875   1.384   0.424 -0.3002 -0.2861 -0.3509
 6285TIP3   OH240269   1.747   0.356  11.168  0.0753  0.1549  0.8596
 6285TIP3    H140270   1.678   0.421  11.181 -1.3528 -0.9750 -0.6585
 6285TIP3    H240271   1.754   0.347  11.073  1.2700 -0.8670  1.0124
 6286TIP3   OH240272   3.758   1.712   2.366  0.0464 -0.1153 -0.4516
 6286TIP3    H140273   3.768   1.689   2.458  1.3152 -2.1938 -1.0602
 6286TIP3    H240274   3.663   1.713   2.351 -0.3543  2.9042  1.4186
 6287TIP3   OH240275   4.567   1.233   2.041 -0.0279  0.2484 -0.1154
 6287TIP3    H140276   4.535   1.199   1.956  1.5439  0.0404 -0.6520
 6287TIP3    H240277   4.614   1.313   2.019 -0.3826  0.6940  0.6962
 6288TIP3   OH240278   6.536   2.007  11.039  0.1365  0.1404  0.1994
 6288TIP3    H140279   6.504   1.922  11.009 -1.0798  0.3183  0.9025
 6288TIP3    H240280   6.559   2.054  10.958  0.2073 -0.6212 -0.2287
 6289TIP3   OH240281   1.613   1.321  11.513 -0.1711 -0.5273 -0.2793
 6289TIP3    H140282   1.595   1.304  11.606 -1.8354 -0.3612 -0.5513
 6289TIP3    H240283   1.527   1.336  11.474  0.5580 -0.0044 -1.7449
 6290TIP3   OH240284   0.069   5.997  14.927 -0.0447  0.4457  0.2123
 6290TIP3    H140285   0.025   5.934  14.984  0.6003  0.1911  0.4329
 6290TIP3    H240286   0.112   5.943  14.860 -1.6143  0.7736 -1.1434
 6291TIP3   OH240287   6.117   4.613   3.756 -0.7069  0.3487  0.3481
 6291TIP3    H140288   6.178   4.678   3.721 -0.3906 -0.2438 -0.2396
 6291TIP3    H240289   6.160   4.582   3.836  0.5646 -1.1434 -0.8221
 6292TIP3   OH240290   4.899   6.472  15.195 -0.1425  0.5749  0.7798
 6292TIP3    H140291   4.877   6.547  15.141  1.0733  0.1004 -0.4469
 6292TIP3    H240292   4.905   6.399  15.133 -1.7400 -0.6633  1.9890
 6293TIP3   OH240293   1.722   4.387   1.479 -0.1634 -0.1084 -0.1370
 6293TIP3    H140294   1.739   4.294   1.466  2.1843  0.4788 -1.9587
 6293TIP3    H240295   1.639   4.403   1.434 -1.8692 -1.6808  2.2415
 6294TIP3   OH240296   0.312   5.144   4.324  0.6009  0.2313 -0.1552
 6294TIP3    H140297   0.231   5.101   4.352 -0.4085 -2.0337 -5.4169
 6294TIP3    H240298   0.380   5.079   4.342  0.9469  1.0341  1.7268
 6295TIP3   OH240299   2.048   6.275   2.974 -0.2883 -0.0199 -0.1973
 6295TIP3    H140300   1.961   6.315   2.966 -0.5172 -0.4295  0.2058
 6295TIP3    H240301   2.060   6.227   2.892 -0.7740 -0.5999  0.0651
 6296TIP3   OH240302   3.486   1.276  12.097 -0.2405 -0.8939  0.0680
 6296TIP3    H140303   3.476   1.190  12.138 -0.7177 -0.6732  0.4238
 6296TIP3    H240304   3.539   1.259  12.019 -1.6960 -1.8059 -0.7761
 6297TIP3   OH240305   3.199   6.152  13.587 -0.0691 -0.6226 -0.0593
 6297TIP3    H140306   3.105   6.135  13.595  0.3132 -2.4415  1.2128
 6297TIP3    H240307   3.238   6.109  13.663  1.6821  1.3493  0.2716
 6298TIP3   OH240308   2.402   3.557  10.408  0.2620 -0.4873 -0.2215
 6298TIP3    H140309   2.359   3.517  10.332 -1.9880  3.6151 -1.4451
 6298TIP3    H240310   2.340   3.544  10.480 -0.3161  0.3734 -0.5409
 6299TIP3   OH240311   2.903   2.392   5.245 -0.3959 -0.2093 -0.1217
 6299TIP3    H140312   2.905   2.297   5.254 -0.2707 -0.2812 -0.8085
 6299TIP3    H240313   2.829   2.419   5.299 -0.6256 -0.7305 -0.1615
 6300TIP3   OH240314   5.541   3.793  10.514 -0.5540 -0.2752  0.7223
 6300TIP3    H140315   5.594   3.714  10.505 -0.4160 -0.1308  0.1914
 6300TIP3    H240316   5.604   3.864  10.525 -0.6224 -0.0966  0.0425
 6301TIP3   OH240317   6.569   0.825  10.937 -0.6436 -0.2727  0.2069
 6301TIP3    H140318   6.493   0.799  10.885 -0.9672  1.3050 -0.1434
 6301TIP3    H240319   6.641   0.828  10.873 -0.8814  0.9221 -0.0194
 6302TIP3   OH240320   4.615   3.202   4.966  0.3553  0.2157  0.0606
 6302TIP3    H140321   4.567   3.122   4.987  1.8325 -1.0544 -1.1217
 6302TIP3    H240322   4.632   3.196   4.872 -1.3457  3.0323 -0.5392
 6303TIP3   OH240323   2.412   0.474   4.425 -0.5723 -0.0463  0.4952
 6303TIP3    H140324   2.467   0.463   4.348 -1.0805  0.8297 -0.0128
 6303TIP3    H240325   2.356   0.396   4.426  0.0220 -0.4775  0.4812
 6304TIP3   OH240326   5.643   2.774  16.198 -0.3302  0.0015 -0.3033
 6304TIP3    H140327   5.676   2.786  16.287 -1.4803  2.5213 -0.1311
 6304TIP3    H240328   5.628   2.679  16.190  0.3285 -0.3476  1.9695
 6305TIP3   OH240329   2.498   5.805  12.766  0.3540 -0.6457  0.4265
 6305TIP3    H140330   2.507   5.896  12.738 -0.4319 -0.5598  0.4336
 6305TIP3    H240331   2.571   5.759  12.724  0.7148 -0.0283  0.3711
 6306TIP3   OH240332   3.916   3.043   5.320 -0.3980 -0.2117 -0.0776
 6306TIP3    H140333   3.919   2.973   5.386  0.6754  0.2211  0.3450
 6306TIP3    H240334   3.889   2.999   5.240 -0.3726 -0.9920  0.3303
 6307TIP3   OH240335   1.039   2.247   0.181  0.3666  0.2816  0.2337
 6307TIP3    H140336   1.027   2.301   0.102  0.2805  0.9687  0.7091
 6307TIP3    H240337   0.972   2.179   0.173 -2.2972  2.5252  1.5538
 6308TIP3   OH240338   6.755   5.183   3.559  0.0381 -0.3933  0.7342
 6308TIP3    H140339   6.787   5.213   3.474  0.3207 -0.4967  0.8052
 6308TIP3    H240340   6.779   5.091   3.562 -2.9250 -1.3492 -0.5243
 6309TIP3   OH240341   0.584   4.607   1.174  0.2090  0.0199  0.3827
 6309TIP3    H140342   0.637   4.529   1.187  0.1770 -0.1911 -0.6592
 6309TIP3    H240343   0.642   4.680   1.196  0.6822 -0.2396  0.0114
 6310TIP3   OH240344   1.411   0.618   3.487 -0.2091  0.0550  0.2017
 6310TIP3    H140345   1.320   0.589   3.490 -0.3206  0.3551 -0.2474
 6310TIP3    H240346   1.459   0.549   3.532 -0.8465  0.6742  1.8830
 6311TIP3   OH240347   3.808   3.869   2.499  0.5871 -0.2265 -0.1440
 6311TIP3    H140348   3.741   3.929   2.465  1.2815 -0.4639 -2.0756
 6311TIP3    H240349   3.778   3.783   2.469  0.3272 -0.6992  1.4071
 6312TIP3   OH240350   3.297   4.588  14.595 -0.2695  0.1763 -0.6037
 6312TIP3    H140351   3.238   4.553  14.661  1.3956 -1.1992  0.2338
 6312TIP3    H240352   3.280   4.683  14.595 -1.7288 -0.0564  0.3031
 6313TIP3   OH240353   4.978   2.034  14.609  0.2186 -0.1982  0.2599
 6313TIP3    H140354   5.074   2.032  14.608  0.2463  0.4461  0.7716
 6313TIP3    H240355   4.956   2.070  14.695 -0.4506  1.0884 -0.4085
 6314TIP3   OH240356   1.699   3.825   0.322 -0.3778 -0.3362  0.1075
 6314TIP3    H140357   1.658   3.886   0.261 -1.9139 -0.3955  1.0261
 6314TIP3    H240358   1.783   3.865   0.343 -0.0137 -0.0993 -1.6799
 6315TIP3   OH240359   6.124   0.085   4.905 -0.4609 -0.0075  0.7783
 6315TIP3    H140360   6.106   0.161   4.960 -1.1610  0.1760  0.3083
 6315TIP3    H240361   6.130   0.011   4.966 -0.6244  0.2906  1.1561
 6316TIP3   OH240362   2.033   0.907   5.320  0.1233 -0.4908  0.1550
 6316TIP3    H140363   1.949   0.940   5.350 -0.8944 -1.1974 -1.7773
 6316TIP3    H240364   2.049   0.951   5.237  0.4311 -2.1295 -0.7126
 6317TIP3   OH240365   1.235   2.955  14.718 -0.2730 -0.6190  0.4542
 6317TIP3    H140366   1.300   3.011  14.762  0.6940 -0.5052 -1.0471
 6317TIP3    H240367   1.183   3.016  14.665  1.6702 -1.1478 -2.2966
 6318TIP3   OH240368   0.690   3.829  12.722  1.2862 -0.6551 -0.3840
 6318TIP3    H140369   0.755   3.897  12.744  2.6719 -1.9746 -0.2184
 6318TIP3    H240370   0.660   3.798  12.808  0.1443  0.1680 -0.4581
 6319TIP3   OH240371   6.015   4.652  16.898  0.3951 -0.5497  0.1776
 6319TIP3    H140372   6.025   4.598  16.976  1.4084  0.9998  1.1721
 6319TIP3    H240373   6.089   4.713  16.901 -0.4049  0.5520 -1.1697
 6320TIP3   OH240374   5.844   5.936  12.453 -0.8310  0.3102 -0.2368
 6320TIP3    H140375   5.919   5.901  12.405 -1.7883  0.0776 -1.6138
 6320TIP3    H240376   5.835   5.878  12.529  0.4644  0.4505  0.0549
 6321TIP3   OH240377   5.868   1.352  13.241  0.7707 -0.5289 -0.5719
 6321TIP3    H140378   5.810   1.398  13.302  0.1705  0.8456 -2.0995
 6321TIP3    H240379   5.812   1.285  13.201  0.4729  0.1614 -1.3405
 6322TIP3   OH240380   5.547   6.644   4.549 -0.5213  0.7351  0.2699
 6322TIP3    H140381   5.572   6.556   4.523  1.4000  0.0066  3.9115
 6322TIP3    H240382   5.456   6.636   4.576 -0.1890 -0.3141  1.1343
 6323TIP3   OH240383   3.684   3.171  13.063 -0.0734  0.4915 -0.4987
 6323TIP3    H140384   3.708   3.082  13.037 -0.5022  0.3251 -0.3314
 6323TIP3    H240385   3.701   3.175  13.157  1.2590  1.0231 -0.7419
 6324TIP3   OH240386   1.040   5.106  17.082  0.4090  0.2694  0.2731
 6324TIP3    H140387   1.124   5.137  17.117  0.0685 -1.1557  2.5924
 6324TIP3    H240388   0.976   5.134  17.146 -0.6514 -0.2503 -0.5286
 6325TIP3   OH240389   2.175   2.005   1.866 -0.2310  0.4482  0.4217
 6325TIP3    H140390   2.235   2.055   1.810  0.3078  0.2036  0.7673
 6325TIP3    H240391   2.089   2.043   1.849 -0.3101 -0.4703 -1.5764
 6326TIP3   OH240392   2.092   0.750  16.235 -0.0503  0.1071  0.1628
 6326TIP3    H140393   2.088   0.659  16.264  0.7039  0.2732  0.8275
 6326TIP3    H240394   2.007   0.765  16.193  0.4929 -1.4653 -1.6711
 6327TIP3   OH240395   1.141   2.256  16.619 -0.0785 -0.1844 -0.3428
 6327TIP3    H140396   1.181   2.321  16.678 -0.9799  1.1627 -1.1669
 6327TIP3    H240397   1.196   2.178  16.628  0.0089  0.0850  2.0176
 6328TIP3   OH240398   2.388   2.605   1.469 -0.1832 -0.3079  0.5115
 6328TIP3    H140399   2.372   2.664   1.396 -1.0662  1.8257  2.2987
 6328TIP3    H240400   2.483   2.603   1.480 -0.1341  0.5595  0.2415
 6329TIP3   OH240401   5.790   2.465   5.726  0.8998 -0.2281 -0.5159
 6329TIP3    H140402   5.740   2.451   5.645  1.0125 -0.3364 -0.5674
 6329TIP3    H240403   5.738   2.423   5.794  0.0970  1.0607 -0.2968
 6330TIP3   OH240404   2.682   2.084   5.457 -0.1182  0.9152 -0.3307
 6330TIP3    H140405   2.624   2.116   5.387  0.2644  0.1372 -1.0171
 6330TIP3    H240406   2.665   1.990   5.462 -1.3510  1.1800  1.7872
 6331TIP3   OH240407   6.503   4.874  12.826  0.2696  0.0646 -0.0416
 6331TIP3    H140408   6.534   4.876  12.917 -0.6660 -2.4729  0.4431
 6331TIP3    H240409   6.408   4.887  12.833 -0.4732 -4.0110 -0.0663
 6332TIP3   OH240410   5.938   0.629  16.631 -0.3460 -0.4480 -0.0901
 6332TIP3    H140411   5.914   0.693  16.564  0.3316 -0.1623 -0.0706
 6332TIP3    H240412   6.023   0.594  16.602  0.4994  0.4813  1.1651
 6333TIP3   OH240413   2.122   2.057  17.053 -0.2943 -0.0736  0.1433
 6333TIP3    H140414   2.067   2.105  16.990 -0.6455 -1.5902 -0.7455
 6333TIP3    H240415   2.196   2.025  17.001  0.1089 -0.2294  0.7945
 6334TIP3   OH240416   2.533   3.652   1.964 -0.3673  0.3543  0.1573
 6334TIP3    H140417   2.536   3.713   1.890 -1.0224 -0.8835 -0.9366
 6334TIP3    H240418   2.593   3.582   1.939  1.2611  1.0412  1.9121
 6335TIP3   OH240419   3.091   4.912  15.482  0.3217  0.4095 -0.7050
 6335TIP3    H140420   3.030   4.907  15.556  2.0243 -0.1340  0.7278
 6335TIP3    H240421   3.071   4.834  15.430  0.5587 -0.4019  0.3828
 6336TIP3   OH240422   1.303   1.822   4.800 -0.5682  0.3812  0.0375
 6336TIP3    H140423   1.308   1.830   4.705 -0.1649 -0.6709 -0.0430
 6336TIP3    H240424   1.288   1.911   4.831 -1.4090  0.6366 -1.0472
 6337TIP3   OH240425   4.931   4.752   5.985  0.1163  0.7957 -0.2740
 6337TIP3    H140426   4.968   4.736   6.072 -1.4308  0.2446  0.3102
 6337TIP3    H240427   4.979   4.828   5.953  2.3872 -0.4153  0.0403
 6338TIP3   OH240428   6.081   3.559   1.789 -0.6476 -0.0635 -0.0317
 6338TIP3    H140429   6.130   3.610   1.724 -0.8028  0.5949  0.3667
 6338TIP3    H240430   6.051   3.623   1.853  1.8582 -0.9654  2.2439
 6339TIP3   OH240431   1.316   4.102  13.619 -0.0645 -0.3377 -0.0247
 6339TIP3    H140432   1.276   4.050  13.549 -2.0076  1.7007 -0.5400
 6339TIP3    H240433   1.382   4.156  13.576 -0.1271 -0.2409  0.0003
 6340TIP3   OH240434   4.421   1.417  14.190  0.1569  0.0341  0.0800
 6340TIP3    H140435   4.371   1.469  14.253  2.1468  1.1761  0.8260
 6340TIP3    H240436   4.471   1.482  14.141  2.2003 -1.1111  0.5473
 6341TIP3   OH240437   5.665   1.170  14.080 -0.4551  0.0541  0.2848
 6341TIP3    H140438   5.589   1.154  14.024  0.9767  0.5925 -1.9069
 6341TIP3    H240439   5.741   1.151  14.025  1.0446  0.8828  1.9542
 6342TIP3   OH240440   4.219   5.307   4.504 -0.1544 -0.1023  0.2953
 6342TIP3    H140441   4.302   5.267   4.528  1.0370  1.4702 -1.0049
 6342TIP3    H240442   4.153   5.252   4.546  1.5163 -1.4659  1.2570
 6343TIP3   OH240443   5.252   5.247  12.574 -0.0663  0.2579  0.6598
 6343TIP3    H140444   5.281   5.252  12.665 -0.4985  0.0860  0.8100
 6343TIP3    H240445   5.206   5.164  12.568 -2.6148  1.5459  1.0548
 6344TIP3   OH240446   3.579   5.036  13.661 -1.0256 -0.6655  0.2203
 6344TIP3    H140447   3.639   5.089  13.713 -0.1079  0.1417 -1.6003
 6344TIP3    H240448   3.582   5.074  13.573 -2.7021 -1.8397 -0.4068
 6345TIP3   OH240449   1.074   5.127   2.830 -0.1924 -0.5978 -0.3081
 6345TIP3    H140450   1.056   5.048   2.779 -0.6321  0.3150 -1.6266
 6345TIP3    H240451   0.993   5.145   2.876 -0.6654  0.0113 -1.3437
 6346TIP3   OH240452   6.574   6.315  11.657  0.3830 -0.0571 -0.8473
 6346TIP3    H140453   6.547   6.237  11.609  1.8419 -1.4303  0.4336
 6346TIP3    H240454   6.492   6.354  11.686 -0.4543 -0.1738 -2.8593
 6347TIP3   OH240455   3.398   1.759   1.920  0.3043 -0.1955  0.0461
 6347TIP3    H140456   3.384   1.833   1.861  1.9231  0.1913  0.0905
 6347TIP3    H240457   3.347   1.688   1.882  0.6681  0.2748 -1.3893
 6348TIP3   OH240458   5.985   2.787   1.131 -0.1376 -0.1185 -0.5067
 6348TIP3    H140459   5.929   2.724   1.176  0.2597  0.9488  1.6346
 6348TIP3    H240460   6.037   2.827   1.201 -0.2368  2.4176 -1.7641
 6349TIP3   OH240461   6.410   1.539  13.182  0.6954 -0.2219 -0.8005
 6349TIP3    H140462   6.503   1.527  13.202  0.6195 -0.6001 -0.6535
 6349TIP3    H240463   6.382   1.610  13.240  1.0235  0.2904 -1.2612
 6350TIP3   OH240464   0.840   1.821  12.466  0.1654  0.1127 -0.6354
 6350TIP3    H140465   0.766   1.878  12.446  1.2874  2.4606  1.3992
 6350TIP3    H240466   0.905   1.840  12.398 -0.6572 -1.2621 -1.8716
 6351TIP3   OH240467   4.460   2.789  16.658  0.0648 -0.4151  0.6797
 6351TIP3    H140468   4.440   2.743  16.577  0.0148  0.2236  0.3206
 6351TIP3    H240469   4.433   2.879  16.642  0.7095 -0.1299  1.1515
 6352TIP3   OH240470   0.932   3.747  15.323  0.1242  0.1908 -0.4424
 6352TIP3    H140471   0.847   3.732  15.366  0.1372 -0.3536 -0.5995
 6352TIP3    H240472   0.938   3.842  15.315  1.4195  0.6301  3.4034
 6353TIP3   OH240473   6.510   4.167   3.605  0.1806 -0.7143  0.9623
 6353TIP3    H140474   6.589   4.204   3.566 -0.5349  0.0838  0.2188
 6353TIP3    H240475   6.477   4.237   3.662 -0.7913 -0.4679  0.1107
 6354TIP3   OH240476   0.924   5.492  14.124 -0.2815  0.0549  0.0923
 6354TIP3    H140477   0.958   5.580  14.137  0.2297 -0.2433  0.8274
 6354TIP3    H240478   1.001   5.441  14.097 -0.5426 -0.2060 -0.1692
 6355TIP3   OH240479   2.464   2.980   5.300  0.1118  0.0840  0.3202
 6355TIP3    H140480   2.499   3.053   5.250  0.9820 -0.2152  0.4817
 6355TIP3    H240481   2.541   2.932   5.331 -0.4465 -1.2790 -0.3383
 6356TIP3   OH240482   0.894   4.582  15.071  0.1594 -0.2944 -0.2403
 6356TIP3    H140483   0.886   4.488  15.088  1.1051 -0.3683 -0.0973
 6356TIP3    H240484   0.934   4.587  14.984  1.0215 -0.0560  0.1579
 6357TIP3   OH240485   5.530   5.220   3.654 -0.3393 -0.2369 -0.1949
 6357TIP3    H140486   5.481   5.262   3.583 -1.0027  1.4398  1.1790
 6357TIP3    H240487   5.613   5.194   3.615  0.7226  3.6237 -0.9040
 6358TIP3   OH240488   6.269   3.531   1.179 -0.1261 -0.0672  0.1455
 6358TIP3    H140489   6.243   3.442   1.157  0.2216 -0.6677  1.9578
 6358TIP3    H240490   6.306   3.567   1.099 -0.6757 -1.3984 -0.7276
 6359TIP3   OH240491   6.520   6.285  15.620 -1.0788  0.0319 -0.4121
 6359TIP3    H140492   6.430   6.299  15.590 -0.5472  0.6419 -1.8033
 6359TIP3    H240493   6.551   6.211  15.567 -0.7467 -0.1586  0.0432
 6360TIP3   OH240494   2.943   3.955   4.196 -0.3886  0.0211 -0.1299
 6360TIP3    H140495   3.023   3.995   4.160  0.4392 -0.2481  1.3348
 6360TIP3    H240496   2.974   3.902   4.269 -1.8741 -0.5114  0.1423
 6361TIP3   OH240497   6.245   6.243  14.264  0.0462 -0.0504  0.0883
 6361TIP3    H140498   6.189   6.166  14.255  1.1223 -0.7897 -0.6743
 6361TIP3    H240499   6.302   6.240  14.187  0.3196  1.3442  0.2069
 6362TIP3   OH240500   1.938   2.144   1.849  0.0415  0.0315 -0.0813
 6362TIP3    H140501   1.883   2.152   1.927  0.4653  0.6478  0.1590
 6362TIP3    H240502   1.931   2.228   1.806  0.4030 -0.0544 -0.3131
 6363TIP3   OH240503   6.494   5.156  12.100 -0.0204 -0.2770  0.5391
 6363TIP3    H140504   6.455   5.145  12.013 -0.2596  2.6811  0.1705
 6363TIP3    H240505   6.496   5.068  12.137 -1.5157 -1.3780 -1.7821
 6364TIP3   OH240506   3.537   3.835   0.932  0.0468 -0.0574  0.0440
 6364TIP3    H140507   3.532   3.879   1.017 -0.1640  1.3946 -0.6901
 6364TIP3    H240508   3.628   3.850   0.904  0.4239 -1.4433  0.4631
 6365TIP3   OH240509   0.713   0.573   0.330 -0.4329  0.0654 -0.3130
 6365TIP3    H140510   0.713   0.645   0.392 -1.9841  0.3784 -0.6423
 6365TIP3    H240511   0.677   0.499   0.379 -3.4176  0.7669 -1.2461
 6366TIP3   OH240512   0.269   5.117   2.834 -0.0724 -0.3569  0.0668
 6366TIP3    H140513   0.309   5.136   2.919  0.6151 -0.4247 -0.2317
 6366TIP3    H240514   0.307   5.182   2.775 -0.8129 -0.0875 -0.1206
 6367TIP3   OH240515   3.143   1.136  13.320 -0.0738 -0.0313  0.0436
 6367TIP3    H140516   3.108   1.116  13.233  3.2121 -0.3253 -1.3604
 6367TIP3    H240517   3.151   1.050  13.362 -1.8925  0.1306  0.8349
 6368TIP3   OH240518   4.768   1.286  11.615 -0.0777 -0.3558  0.1503
 6368TIP3    H140519   4.861   1.294  11.637 -0.3824  2.2022  0.8153
 6368TIP3    H240520   4.767   1.291  11.519  0.5169 -1.4547  0.0674
 6369TIP3   OH240521   2.070   4.413  16.481 -0.5103 -0.0687  0.0219
 6369TIP3    H140522   2.055   4.500  16.445  0.5690  0.1737  0.1191
 6369TIP3    H240523   2.165   4.399  16.473 -0.9747 -2.7373 -3.4013
 6370TIP3   OH240524   1.631   6.314  13.539  0.3067 -0.7240 -0.4662
 6370TIP3    H140525   1.566   6.361  13.592  1.5208  1.3468 -0.6861
 6370TIP3    H240526   1.712   6.320  13.589  0.6908 -1.8653 -0.9284
 6371TIP3   OH240527   2.943   2.975   2.569 -0.1475 -0.0411 -0.6549
 6371TIP3    H140528   3.018   2.916   2.580 -0.6510 -0.2448  2.8238
 6371TIP3    H240529   2.978   3.062   2.591 -0.8692 -0.1639  1.1672
 6372TIP3   OH240530   3.117   1.014  17.004 -0.0906  0.2743  0.5995
 6372TIP3    H140531   3.062   0.945  17.041  0.6112 -1.2767 -1.0786
 6372TIP3    H240532   3.104   1.007  16.910  0.8737  1.7165  0.3262
 6373TIP3   OH240533   3.529   2.604  16.838 -0.4586 -0.2797 -0.3394
 6373TIP3    H140534   3.511   2.625  16.746 -3.2459 -0.6013  0.0440
 6373TIP3    H240535   3.504   2.512  16.847  1.5714 -0.8232  0.3885
 6374TIP3   OH240536   3.814   0.564   1.661  0.3768 -0.0299 -0.2694
 6374TIP3    H140537   3.823   0.543   1.568  0.4509  0.1069 -0.2943
 6374TIP3    H240538   3.828   0.659   1.664 -1.8622  0.3676 -0.4396
 6375TIP3   OH240539   5.494   0.913  15.412 -0.5439 -0.0986 -0.0443
 6375TIP3    H140540   5.519   0.941  15.324  0.8293  0.3439  0.4542
 6375TIP3    H240541   5.460   0.992  15.454  1.4404  0.4349  0.7013
 6376TIP3   OH240542   3.657   0.620  17.002 -0.4201 -0.5448  0.2160
 6376TIP3    H140543   3.633   0.574  16.922  0.0180 -1.5692  0.6584
 6376TIP3    H240544   3.686   0.706  16.972 -1.5555 -0.4257 -0.5918
 6377TIP3   OH240545   3.951   2.557  16.151 -0.1439  0.0964  1.1321
 6377TIP3    H140546   3.899   2.635  16.133 -0.4047 -0.7635 -2.7991
 6377TIP3    H240547   4.038   2.578  16.118 -0.5789 -1.5949 -1.3984
 6378TIP3   OH240548   0.544   2.304   5.996 -0.1916 -0.2808  0.2437
 6378TIP3    H140549   0.470   2.340   5.947 -1.3355  0.0177  2.0869
 6378TIP3    H240550   0.535   2.209   5.985  1.6535 -0.2511 -2.9368
 6379TIP3   OH240551   6.162   5.916  16.319 -0.2992 -0.2626 -0.1913
 6379TIP3    H140552   6.134   5.983  16.257  1.8923 -0.1405 -1.1397
 6379TIP3    H240553   6.122   5.835  16.287 -2.2317  0.3661  0.4521
 6380TIP3   OH240554   0.420   2.939  14.931 -0.4109  0.5774  0.2456
 6380TIP3    H140555   0.406   2.921  15.024  0.7031 -1.1476  0.1121
 6380TIP3    H240556   0.499   2.891  14.908  0.7985  2.9973 -1.0405
 6381TIP3   OH240557   0.949   0.288  11.979 -0.4733  0.6917 -0.1740
 6381TIP3    H140558   0.977   0.341  11.904 -0.9602  1.8021  0.4079
 6381TIP3    H240559   0.961   0.198  11.950  2.5390  1.0705 -0.3862
 6382TIP3   OH240560   5.547   1.208  16.614 -0.0837  0.0500  0.0703
 6382TIP3    H140561   5.561   1.171  16.526 -1.6256  1.1463 -0.6949
 6382TIP3    H240562   5.468   1.261  16.604 -0.1029  0.4462  2.0731
 6383TIP3   OH240563   0.187   2.000  11.537  0.3564 -0.1165 -0.4680
 6383TIP3    H140564   0.252   2.052  11.585  0.6148 -0.6965 -0.1901
 6383TIP3    H240565   0.110   2.000  11.594  1.2305 -2.2703  0.7911
 6384TIP3   OH240566   1.543   5.140  16.313 -0.1091  0.2019  0.3133
 6384TIP3    H140567   1.460   5.133  16.360  0.1652  1.2596  0.9916
 6384TIP3    H240568   1.540   5.070  16.248 -0.8913 -0.7134  1.3095
 6385TIP3   OH240569   2.451   5.916  16.954 -0.1661  0.2446 -0.0068
 6385TIP3    H140570   2.488   5.947  16.872 -1.6145 -0.4273 -0.9539
 6385TIP3    H240571   2.497   5.835  16.973  0.5252  0.6607  0.1336
 6386TIP3   OH240572   0.373   5.008  16.804  0.1941  0.0151  0.6124
 6386TIP3    H140573   0.288   5.017  16.762 -0.0407  2.4847  1.4721
 6386TIP3    H240574   0.368   4.925  16.853 -1.2326 -0.4713 -0.3109
 6387TIP3   OH240575   0.555   5.122  14.681  0.5456 -0.0799 -0.1772
 6387TIP3    H140576   0.507   5.087  14.755 -2.4919 -0.8281 -2.3080
 6387TIP3    H240577   0.564   5.216  14.699 -1.8314  0.0985  0.3357
 6388TIP3   OH240578   2.138   2.230  10.733 -0.2962 -0.1170 -0.3442
 6388TIP3    H140579   2.101   2.298  10.677 -0.8125 -0.7337 -0.7729
 6388TIP3    H240580   2.071   2.161  10.735 -0.0515 -0.3528  0.5832
 6389TIP3   OH240581   0.334   6.733   0.382 -0.4256  0.4130 -0.4312
 6389TIP3    H140582   0.397   6.805   0.374 -1.6073  1.4758 -0.4761
 6389TIP3    H240583   0.383   6.655   0.355  1.3388  0.9267  1.0488
 6390TIP3   OH240584   6.269   3.098  11.681 -0.4768 -0.0962 -0.7512
 6390TIP3    H140585   6.351   3.114  11.728  0.5745 -2.0082 -1.7835
 6390TIP3    H240586   6.235   3.185  11.661  1.1728  0.7471 -0.0542
 6391TIP3   OH240587   2.662   5.411  14.294  0.0189  1.0532  0.6620
 6391TIP3    H140588   2.749   5.449  14.305  1.1484 -0.8710 -1.0281
 6391TIP3    H240589   2.656   5.345  14.364  0.8169 -0.2484 -0.4458
 6392TIP3   OH240590   0.665   2.775   3.527  0.3577  0.0285  0.1205
 6392TIP3    H140591   0.642   2.711   3.460 -0.4577 -0.3497  0.7399
 6392TIP3    H240592   0.700   2.723   3.599  1.9065  0.4875 -0.2652
 6393TIP3   OH240593   1.934   3.502   5.966 -0.3153 -0.3142  0.6259
 6393TIP3    H140594   1.993   3.541   6.030 -1.3368  0.7757  0.9407
 6393TIP3    H240595   1.850   3.494   6.012 -0.8833 -0.1814 -0.3516
 6394TIP3   OH240596   6.782   1.879  15.719  0.5079  0.5358 -0.1355
 6394TIP3    H140597   6.854   1.905  15.662 -0.3602 -0.5971 -1.8176
 6394TIP3    H240598   6.706   1.926  15.684 -0.3521 -1.3913 -0.9416
 6395TIP3   OH240599   4.295   5.016  14.213  0.1509  0.0734 -0.4254
 6395TIP3    H140600   4.268   5.102  14.243 -0.2613  0.3659 -1.5759
 6395TIP3    H240601   4.217   4.961  14.225  0.3330 -0.0761  0.0696
 6396TIP3   OH240602   5.465   1.028   0.077 -0.3152  0.1838  0.1401
 6396TIP3    H140603   5.561   1.020   0.074 -0.2620 -1.2999  2.9492
 6396TIP3    H240604   5.435   0.978   0.001  1.0879  1.2798 -1.2173
 6397TIP3   OH240605   4.578   5.719  16.403 -0.1085  0.3856 -0.2558
 6397TIP3    H140606   4.570   5.627  16.377  0.6225  0.5913 -1.2717
 6397TIP3    H240607   4.516   5.728  16.476  0.2123 -1.0341  0.2370
 6398TIP3   OH240608   5.027   0.060  16.662 -0.2940 -0.2220 -0.3221
 6398TIP3    H140609   4.983   0.065  16.577 -2.2368 -1.0388  0.5503
 6398TIP3    H240610   5.093  -0.009  16.651  2.0315  2.1087 -2.1229
 6399TIP3   OH240611   0.172   4.184   2.587  0.7945 -0.4893  0.9985
 6399TIP3    H140612   0.108   4.254   2.597 -1.2875 -2.4357  2.5014
 6399TIP3    H240613   0.203   4.168   2.676  0.0032 -2.4603  0.9679
 6400TIP3   OH240614   1.851   2.356   6.121 -0.0520  0.4721 -0.6293
 6400TIP3    H140615   1.891   2.361   6.034 -0.4174 -0.9065 -0.9144
 6400TIP3    H240616   1.908   2.296   6.170 -0.1415  0.8222 -0.0921
 6401TIP3   OH240617   3.020   5.017   6.001 -0.1693 -0.1378  0.3364
 6401TIP3    H140618   2.933   4.999   6.037  0.0336  0.4251  1.1468
 6401TIP3    H240619   3.074   4.944   6.032 -0.6004 -1.1718 -1.2165
 6402TIP3   OH240620   0.890   0.784  14.699 -0.8081  0.0878  0.6270
 6402TIP3    H140621   0.824   0.748  14.758 -0.4601  0.9640  1.5840
 6402TIP3    H240622   0.955   0.825  14.757  0.2958 -0.2703 -0.3027
 6403TIP3   OH240623   1.937   2.799  12.000 -0.1740  0.6098  0.2611
 6403TIP3    H140624   1.852   2.839  12.021 -0.8225 -0.2794 -0.5725
 6403TIP3    H240625   1.926   2.707  12.022 -0.2391  0.0172 -1.9692
 6404TIP3   OH240626   0.821   5.052  15.614 -0.4538 -0.1683 -0.3801
 6404TIP3    H140627   0.829   4.987  15.684 -0.0432  1.5092  1.1960
 6404TIP3    H240628   0.907   5.052  15.572 -0.6762 -1.1173 -0.8713
 6405TIP3   OH240629   3.753   0.351   5.876 -0.8111 -0.0066 -0.1887
 6405TIP3    H140630   3.672   0.305   5.899 -1.2049  0.6711 -0.1998
 6405TIP3    H240631   3.817   0.281   5.863 -0.7642 -0.5073  2.1424
 6406TIP3   OH240632   2.690   4.131   1.948 -0.0389  0.0272 -0.1568
 6406TIP3    H140633   2.645   4.186   2.012  1.1683  0.5047  0.3061
 6406TIP3    H240634   2.775   4.174   1.935  0.3831 -0.9812 -0.8259
 6407TIP3   OH240635   5.624   3.944   4.759  0.3664 -0.2908 -0.6756
 6407TIP3    H140636   5.570   4.006   4.710 -0.4381 -1.1506 -0.9113
 6407TIP3    H240637   5.701   3.995   4.785 -0.1648  0.7418 -1.0448
 6408TIP3   OH240638   0.960   6.786   4.987  0.4025  0.4473 -0.7793
 6408TIP3    H140639   0.966   6.855   5.053 -2.6714  0.2507 -0.1837
 6408TIP3    H240640   0.972   6.705   5.036 -0.7063  0.3587 -0.6364
 6409TIP3   OH240641   5.126   0.574   4.195  0.2137  0.3440 -0.0864
 6409TIP3    H140642   5.147   0.666   4.212 -0.0991 -0.0501  3.0795
 6409TIP3    H240643   5.191   0.526   4.246 -0.1636 -1.1884 -1.0147
 6410TIP3   OH240644   0.416   6.617  12.861  0.4746  0.0777 -0.3926
 6410TIP3    H140645   0.362   6.545  12.894  0.1652  0.8177  0.7685
 6410TIP3    H240646   0.493   6.617  12.917  0.0139  1.2580  0.2873
 6411TIP3   OH240647   3.074   2.744   2.552  0.3234  0.7973 -0.0305
 6411TIP3    H140648   3.070   2.658   2.593 -0.2661  0.1626 -1.3644
 6411TIP3    H240649   3.152   2.741   2.496 -0.8580  0.3556 -1.6984
 6412TIP3   OH240650   1.933   6.642   1.025 -0.0745 -0.4768 -0.2010
 6412TIP3    H140651   1.949   6.604   0.939 -0.7235 -2.0017  0.3304
 6412TIP3    H240652   1.845   6.680   1.019  0.1194 -0.0419 -0.3765
 6413TIP3   OH240653   1.367   1.687   6.104 -0.4645 -0.2655  0.1362
 6413TIP3    H140654   1.401   1.777   6.101 -1.5798  0.1364 -0.7839
 6413TIP3    H240655   1.351   1.671   6.197 -0.4791  0.5650  0.2830
 6414TIP3   OH240656   2.562   4.130  15.684 -0.5221 -0.3140  0.4236
 6414TIP3    H140657   2.618   4.053  15.669 -1.4233 -0.8828 -0.1785
 6414TIP3    H240658   2.615   4.204  15.656  1.0372 -0.4897  2.6648
 6415TIP3   OH240659   6.020   5.521   4.564  0.3946 -0.5883  0.2942
 6415TIP3    H140660   6.084   5.520   4.492 -0.8229  0.0632 -0.8233
 6415TIP3    H240661   6.029   5.607   4.604 -0.6552 -0.0035 -0.6891
 6416TIP3   OH240662   1.472   5.872  12.048 -0.2386  0.7680  0.2662
 6416TIP3    H140663   1.441   5.933  12.115 -1.3180  0.5706 -0.0358
 6416TIP3    H240664   1.563   5.856  12.072 -0.7916  0.0925  2.1623
 6417TIP3   OH240665   0.658   2.847  13.336 -0.1138 -0.2537  0.4922
 6417TIP3    H140666   0.695   2.852  13.424 -0.1091 -0.8206  0.5282
 6417TIP3    H240667   0.579   2.901  13.339  0.0580 -0.0131  0.7506
 6418TIP3   OH240668   4.022   3.232   5.979 -0.3835 -0.2296 -0.6956
 6418TIP3    H140669   4.073   3.223   5.898  0.5697  0.7143 -0.2306
 6418TIP3    H240670   4.069   3.176   6.042 -0.9671 -0.7485 -0.7102
 6419TIP3   OH240671   5.537   1.788   3.126 -0.1349 -0.2462  0.1569
 6419TIP3    H140672   5.470   1.730   3.162  1.0476 -1.4029  0.5715
 6419TIP3    H240673   5.504   1.814   3.040 -1.8000  0.4580  0.9697
 6420TIP3   OH240674   4.912   6.198  15.299 -0.1591 -0.0300 -0.1758
 6420TIP3    H140675   4.867   6.188  15.383  3.5145  2.5066  2.3881
 6420TIP3    H240676   4.889   6.286  15.269  1.0344  0.3313 -0.0931
 6421TIP3   OH240677   4.577   5.235   5.485  0.0788 -0.3698 -0.0130
 6421TIP3    H140678   4.670   5.249   5.464 -0.0438  0.9415  0.2603
 6421TIP3    H240679   4.576   5.215   5.579 -0.1721  3.2417  0.8865
 6422TIP3   OH240680   3.388   1.516  11.407 -0.3208 -0.0394  0.1817
 6422TIP3    H140681   3.360   1.471  11.487  2.1963 -0.7332  0.7697
 6422TIP3    H240682   3.374   1.452  11.338  0.3359 -0.5767  0.5415
 6423TIP3   OH240683   4.550   4.804   0.448  0.4598  0.3997  0.2530
 6423TIP3    H140684   4.625   4.775   0.396 -1.2579 -2.4504 -0.8608
 6423TIP3    H240685   4.554   4.753   0.528 -0.8060 -0.5508 -0.2622
 6424TIP3   OH240686   6.048   3.364   6.086 -0.2893 -0.1849 -0.9367
 6424TIP3    H140687   6.037   3.278   6.045  0.2314 -1.0368  0.6077
 6424TIP3    H240688   6.141   3.369   6.107  0.1017  1.6823 -2.8628
 6425TIP3   OH240689   5.069   4.617   5.392 -0.4477  0.2238  0.6368
 6425TIP3    H140690   5.026   4.699   5.415 -0.1865  0.8045 -0.8692
 6425TIP3    H240691   5.054   4.560   5.468 -1.4700  1.3278  1.2941
 6426TIP3   OH240692   3.160   1.926  16.161  0.5853 -0.4962 -0.3062
 6426TIP3    H140693   3.116   2.011  16.167 -0.2970 -1.0434  2.0313
 6426TIP3    H240694   3.236   1.943  16.105  1.0401  2.1259  0.9352
 6427TIP3   OH240695   0.525   1.775  14.622 -0.2761  0.0667 -0.5954
 6427TIP3    H140696   0.563   1.780  14.710 -2.5686  0.2927  0.4349
 6427TIP3    H240697   0.577   1.708  14.578  0.3407 -0.7291  1.2405
 6428TIP3   OH240698   5.502   3.181  15.083 -0.1239 -0.0502  0.0801
 6428TIP3    H140699   5.453   3.159  15.162  1.0067  0.1256  0.8658
 6428TIP3    H240700   5.446   3.241  15.036 -0.2758  0.9082  1.4273
 6429TIP3   OH240701   3.478   5.814  12.415  0.1834 -0.3066  0.3624
 6429TIP3    H140702   3.541   5.784  12.349  0.5934 -0.0493  0.6293
 6429TIP3    H240703   3.428   5.883  12.371  0.9525  0.3811  0.5393
 6430TIP3   OH240704   4.131   0.356   4.458 -0.1123 -0.0050  0.2078
 6430TIP3    H140705   4.122   0.449   4.479  1.1191 -0.2217  1.8925
 6430TIP3    H240706   4.081   0.310   4.526  0.6242 -0.6042  0.3681
 6431TIP3   OH240707   0.593   3.330  15.774 -0.1182  0.3819  0.4901
 6431TIP3    H140708   0.634   3.272  15.711 -0.7255 -2.0354  2.1948
 6431TIP3    H240709   0.511   3.358  15.732  0.6703  0.8859 -0.7503
 6432TIP3   OH240710   2.944   2.086   1.104  0.0965 -0.6821  0.0165
 6432TIP3    H140711   2.893   2.158   1.066 -0.1558 -1.0805 -0.4121
 6432TIP3    H240712   3.035   2.113   1.094 -0.0164  0.2275  1.1566
 6433TIP3   OH240713   2.145   0.415   2.596  0.3384 -0.4312  0.2219
 6433TIP3    H140714   2.091   0.458   2.529 -0.8170 -1.0284  0.7315
 6433TIP3    H240715   2.115   0.453   2.678  0.5785 -0.8972  0.5275
 6434TIP3   OH240716   0.031   4.433  16.151  0.2886  0.1069  0.5706
 6434TIP3    H140717   0.080   4.395  16.223  0.2378 -1.8543 -0.3377
 6434TIP3    H240718  -0.034   4.366  16.129 -0.9668  1.4697 -0.0406
 6435TIP3   OH240719   6.328   4.679  11.822 -0.1513  0.3516  0.7038
 6435TIP3    H140720   6.241   4.702  11.788 -0.2377  1.4074  1.5627
 6435TIP3    H240721   6.317   4.592  11.860 -0.3848 -0.2639 -0.6972
 6436TIP3   OH240722   1.299   3.863   0.027  0.2673  0.0582 -0.0960
 6436TIP3    H140723   1.311   3.802   0.100  1.5572  0.2864 -0.0995
 6436TIP3    H240724   1.226   3.918   0.054 -0.6400 -1.1894  0.0999
 6437TIP3   OH240725   3.858   6.686  13.664 -0.6510 -0.0853  0.4190
 6437TIP3    H140726   3.953   6.692  13.668 -0.4091 -0.9031 -2.1959
 6437TIP3    H240727   3.839   6.595  13.689 -0.6801 -0.0985  0.3501
 6438TIP3   OH240728   0.445   1.060  13.887 -0.1950  0.0814 -0.6658
 6438TIP3    H140729   0.432   1.054  13.982 -0.2561 -2.0059 -0.7603
 6438TIP3    H240730   0.378   1.122  13.857  0.1170  1.1123  0.6859
 6439TIP3   OH240731   1.002   3.520  14.283 -0.1372 -0.3539  0.1059
 6439TIP3    H140732   0.961   3.451  14.335 -0.0505 -1.2751 -0.9941
 6439TIP3    H240733   0.951   3.521  14.202  0.7407 -0.1008 -0.4584
 6440TIP3   OH240734   6.656   3.101  16.162 -0.4044 -0.3599  0.3396
 6440TIP3    H140735   6.705   3.151  16.097 -1.4796  0.5808  0.2186
 6440TIP3    H240736   6.586   3.059  16.112 -0.6979 -0.3643  0.7529
 6441TIP3   OH240737   5.362   1.326  13.611 -0.3999  0.5137 -0.0104
 6441TIP3    H140738   5.373   1.293  13.522  1.2085 -2.4262  1.1576
 6441TIP3    H240739   5.430   1.393  13.620  0.5320 -0.3425 -0.5006
 6442TIP3   OH240740   4.098   0.019   5.326  0.4114  0.3237 -0.0887
 6442TIP3    H140741   4.125  -0.072   5.310  1.2419  0.4905  0.2838
 6442TIP3    H240742   4.048   0.015   5.407  1.7391  0.3908  0.7702
 6443TIP3   OH240743   6.675   2.787  16.730  0.3991  0.2220 -0.1885
 6443TIP3    H140744   6.677   2.879  16.755  1.9904  0.2242 -0.2310
 6443TIP3    H240745   6.583   2.770  16.708 -0.2286  1.3696  1.3358
 6444TIP3   OH240746   0.475   0.661   5.600  0.4398 -0.0324  0.6957
 6444TIP3    H140747   0.537   0.702   5.540  0.3503 -1.3539 -0.3467
 6444TIP3    H240748   0.472   0.720   5.675  0.2578  1.8966 -0.7507
 6445TIP3   OH240749   6.801   6.194   2.145  0.6274 -0.5113  0.1255
 6445TIP3    H140750   6.830   6.111   2.107  1.4555 -0.0147 -0.3721
 6445TIP3    H240751   6.768   6.245   2.071 -1.0028 -0.8233  0.5968
 6446TIP3   OH240752   2.337   5.670  15.307  0.5708  0.1573  0.2678
 6446TIP3    H140753   2.259   5.699  15.259 -0.5765 -1.8239  0.8263
 6446TIP3    H240754   2.407   5.675  15.242  0.0222  1.9490 -0.2631
 6447TIP3   OH240755   5.173   1.496  14.949 -0.0193 -0.0947  0.0647
 6447TIP3    H140756   5.137   1.408  14.958 -1.2842  0.5368  1.4147
 6447TIP3    H240757   5.232   1.489  14.874 -1.2632 -1.7119 -0.8361
 6448TIP3   OH240758   6.539   4.216   4.875 -1.0021 -0.3617 -0.4078
 6448TIP3    H140759   6.580   4.222   4.789  1.6820 -0.6705  0.7467
 6448TIP3    H240760   6.506   4.304   4.893  0.1076  0.1987 -1.0061
 6449TIP3   OH240761   1.204   5.117   3.309  0.3881  0.7134  0.2723
 6449TIP3    H140762   1.261   5.195   3.310  0.8870  0.3623 -0.1775
 6449TIP3    H240763   1.264   5.044   3.324  0.4182  0.1240 -2.2858
 6450TIP3   OH240764   4.183   1.832   1.016 -0.3038 -0.2412  0.2761
 6450TIP3    H140765   4.228   1.878   1.087 -0.3308  0.3822 -0.1058
 6450TIP3    H240766   4.175   1.742   1.048  0.7053 -0.2375  0.5817
 6451TIP3   OH240767   2.968   2.738   4.758 -0.5110  0.0810 -0.4959
 6451TIP3    H140768   2.997   2.647   4.755  1.5580  0.6320  0.9163
 6451TIP3    H240769   3.048   2.789   4.773 -1.6972  2.0838 -0.5630
 6452TIP3   OH240770   5.082   4.061  10.855  0.7478 -0.0429  0.2131
 6452TIP3    H140771   5.162   4.078  10.905 -0.8773  0.2713  2.9020
 6452TIP3    H240772   5.061   3.970  10.874 -1.4569  0.8441  2.7743
 6453TIP3   OH240773   4.713   1.821   5.191  0.3090  0.0065 -0.1305
 6453TIP3    H140774   4.733   1.727   5.188  0.6087  0.0657 -2.4646
 6453TIP3    H240775   4.751   1.855   5.110 -2.1138  1.6409 -0.6819
 6454TIP3   OH240776   2.310   0.194  15.759  0.5023 -0.0010 -0.1046
 6454TIP3    H140777   2.357   0.111  15.753 -0.1645 -0.5359  1.5474
 6454TIP3    H240778   2.368   0.257  15.717  1.4799 -1.1134 -0.4809
 6455TIP3   OH240779   2.106   3.396  15.081 -0.3366  0.1071  0.3474
 6455TIP3    H140780   2.157   3.428  15.006 -0.6554  0.5362  0.3141
 6455TIP3    H240781   2.153   3.317  15.109  1.5372  1.5438  1.5679
 6456TIP3   OH240782   2.381   2.223   4.762 -0.2270  0.0318 -0.2975
 6456TIP3    H140783   2.355   2.285   4.831  0.4347  0.1631 -0.1581
 6456TIP3    H240784   2.361   2.137   4.798  0.8492  0.0512  0.4090
 6457TIP3   OH240785   1.496   1.855  14.249  0.8027  0.5747  0.1445
 6457TIP3    H140786   1.567   1.840  14.311 -0.8485 -0.6232  1.8655
 6457TIP3    H240787   1.454   1.769  14.240 -0.8608  1.3854 -0.2171
 6458TIP3   OH240788   1.420   0.611  13.296 -0.1253 -0.6423 -0.2201
 6458TIP3    H140789   1.347   0.673  13.289  0.4124  0.0880  0.4328
 6458TIP3    H240790   1.418   0.563  13.214 -1.1518 -0.4231 -0.3441
 6459TIP3   OH240791   6.583   0.172  13.783 -0.0622  0.3644 -0.7308
 6459TIP3    H140792   6.506   0.214  13.822 -1.4213 -1.9029 -0.7370
 6459TIP3    H240793   6.550   0.086  13.755  2.5707 -0.8081 -0.4575
 6460TIP3   OH240794   5.093   0.486  15.925  0.5943  0.3324  0.1523
 6460TIP3    H140795   5.105   0.545  15.851 -0.3428 -0.4431 -0.6466
 6460TIP3    H240796   5.151   0.412  15.907  1.5527  0.8356  1.0111
 6461TIP3   OH240797   0.366   3.594   0.647 -1.0763  0.2057  0.2427
 6461TIP3    H140798   0.413   3.676   0.635  0.8402 -0.7791  0.6180
 6461TIP3    H240799   0.346   3.591   0.741 -0.9858  0.1602  0.2604
 6462TIP3   OH240800   0.599   2.965  16.638 -0.3311  0.0297 -0.2886
 6462TIP3    H140801   0.504   2.973  16.645 -0.5732 -2.5246  0.4646
 6462TIP3    H240802   0.616   2.872  16.653  2.3506  0.5225  0.1860
 6463TIP3   OH240803   0.375   4.391   3.245  0.2906  0.2757  0.0436
 6463TIP3    H140804   0.296   4.346   3.216  1.0265 -0.3277 -1.0802
 6463TIP3    H240805   0.378   4.377   3.340 -0.9561  0.3399  0.1023
 6464TIP3   OH240806   2.931   2.202  15.519 -0.1768 -0.2269 -0.2147
 6464TIP3    H140807   3.021   2.170  15.526 -0.0862 -0.2005 -1.0818
 6464TIP3    H240808   2.938   2.297  15.522 -0.2719 -0.2441  0.6378
 6465TIP3   OH240809   1.198   5.973   2.873 -0.0421 -0.6782  0.0835
 6465TIP3    H140810   1.281   6.007   2.841  0.7014 -2.9274 -0.5240
 6465TIP3    H240811   1.138   6.047   2.866  1.7731  0.8846  0.1305
 6466TIP3   OH240812   1.059   6.297   0.217 -0.0370  0.2484 -0.8168
 6466TIP3    H140813   0.989   6.252   0.168 -0.5443  0.0028  0.1204
 6466TIP3    H240814   1.013   6.342   0.288  0.8081 -0.2963  0.0922
 6467TIP3   OH240815   4.072   3.134   0.758 -0.4242  0.4309 -0.3503
 6467TIP3    H140816   4.080   3.088   0.842 -0.6923 -0.1772 -0.6513
 6467TIP3    H240817   4.146   3.195   0.757  0.9770 -1.1884 -0.6919
 6468TIP3   OH240818   3.531   5.289   2.028  0.3610  0.3230  0.3852
 6468TIP3    H140819   3.536   5.380   2.056  0.1612  0.2277  0.7395
 6468TIP3    H240820   3.622   5.262   2.016  0.3891  0.9051 -0.8424
 6469TIP3   OH240821   3.340   3.156  10.639 -0.4538 -0.0859  1.2048
 6469TIP3    H140822   3.416   3.150  10.581 -0.6704  0.7949  0.8204
 6469TIP3    H240823   3.267   3.127  10.585 -0.5049 -0.2221  1.3473
 6470TIP3   OH240824   3.018   2.375  14.029 -0.2333 -0.5494 -0.5750
 6470TIP3    H140825   3.106   2.338  14.025 -0.2837 -0.8300  0.4894
 6470TIP3    H240826   2.989   2.379  13.938  0.9309 -0.3087 -0.9483
 6471TIP3   OH240827   0.275   1.887  14.356 -0.2337 -0.4969  0.0455
 6471TIP3    H140828   0.271   1.795  14.381  0.4650 -0.6601 -0.4069
 6471TIP3    H240829   0.263   1.887  14.261  1.1200 -0.2530 -0.1437
 6472TIP3   OH240830   2.221   0.562   0.412 -0.2684  0.2018  0.2880
 6472TIP3    H140831   2.259   0.558   0.324 -0.4026  2.9117  0.0012
 6472TIP3    H240832   2.194   0.654   0.422 -0.5416 -0.0873  3.0580
 6473TIP3   OH240833   0.788   6.262  16.014 -0.3279  0.2105 -0.0487
 6473TIP3    H140834   0.770   6.185  15.961 -1.0311  1.1734 -1.2442
 6473TIP3    H240835   0.827   6.325  15.954 -0.3211  1.0136  0.7640
 6474TIP3   OH240836   4.768   5.898   5.826  0.3916 -0.2038 -0.1821
 6474TIP3    H140837   4.807   5.827   5.877  0.7823  0.1738  0.0521
 6474TIP3    H240838   4.760   5.863   5.737 -0.9403 -1.1149  0.2739
 6475TIP3   OH240839   5.967   1.793  14.981  0.5976 -0.1466  0.1402
 6475TIP3    H140840   6.013   1.747  15.051 -1.3460  0.2514  1.7221
 6475TIP3    H240841   5.914   1.725  14.938  0.4665 -0.0506  0.1515
 6476TIP3   OH240842   3.154   1.103   5.037  0.4032 -0.0945  0.4318
 6476TIP3    H140843   3.233   1.112   4.983  0.2213  4.4990  0.5324
 6476TIP3    H240844   3.087   1.074   4.975  1.7721 -2.8337  0.0757
 6477TIP3   OH240845   2.086   3.085  13.544 -0.0204  0.0045 -0.3323
 6477TIP3    H140846   2.039   3.139  13.482 -1.5878  3.0772  3.1521
 6477TIP3    H240847   2.163   3.137  13.568  0.7911 -1.3039  0.0166
 6478TIP3   OH240848   5.438   4.990  17.069  0.3874  0.2377  0.2637
 6478TIP3    H140849   5.433   4.965  16.977  2.8424  0.2160  0.0803
 6478TIP3    H240850   5.446   4.907  17.116 -0.9346  0.2437  0.5394
 6479TIP3   OH240851   3.195   0.921   2.924  0.1758 -0.2696 -0.6013
 6479TIP3    H140852   3.125   0.973   2.963  0.1630  0.4541 -1.5711
 6479TIP3    H240853   3.193   0.942   2.831  0.5074 -1.6222 -0.9472
 6480TIP3   OH240854   4.808   1.955   0.586 -0.1251 -0.8414  0.8528
 6480TIP3    H140855   4.862   1.979   0.661 -1.4557 -0.8682  1.8721
 6480TIP3    H240856   4.740   1.899   0.624 -1.5258  0.1185 -0.1703
 6481TIP3   OH240857   6.519   2.917  13.313 -0.0502  0.1963 -0.0069
 6481TIP3    H140858   6.471   2.975  13.254  0.0355  0.9688  0.6614
 6481TIP3    H240859   6.585   2.876  13.257  1.6829  2.7793 -0.0396
 6482TIP3   OH240860   0.328   4.477  10.903 -1.2414  0.3713 -0.0122
 6482TIP3    H140861   0.305   4.521  10.821 -1.0021  0.0478 -0.2530
 6482TIP3    H240862   0.363   4.547  10.959  1.8743  0.0551 -1.4096
 6483TIP3   OH240863   1.511   2.887  16.323  0.3743 -0.0774  0.1787
 6483TIP3    H140864   1.428   2.923  16.292  1.8970  2.5397 -1.1439
 6483TIP3    H240865   1.490   2.796  16.347 -2.7412  0.3630 -0.4514
 6484TIP3   OH240866   2.222   3.022  16.662 -0.5519 -0.1400 -0.0902
 6484TIP3    H140867   2.280   3.014  16.737 -0.6399 -0.7711 -0.0863
 6484TIP3    H240868   2.141   2.977  16.689 -0.4824 -0.6247 -0.6585
 6485TIP3   OH240869   0.513   4.109   0.094  0.1756 -0.2247  0.2734
 6485TIP3    H140870   0.516   4.169   0.169  0.5294 -0.5435  0.5198
 6485TIP3    H240871   0.477   4.028   0.130  1.4577 -0.7633  0.3769
 6486TIP3   OH240872   0.319   0.239  13.219 -0.5954  1.0571  0.0136
 6486TIP3    H140873   0.274   0.307  13.170 -1.1972  1.0148  0.4971
 6486TIP3    H240874   0.350   0.178  13.153  0.5564  2.1438 -0.4863
 6487TIP3   OH240875   4.898   5.750  11.620  0.9674  0.5000 -0.0929
 6487TIP3    H140876   4.900   5.775  11.713  0.5967 -0.8805  0.3228
 6487TIP3    H240877   4.990   5.751  11.593  1.2353 -0.4279  0.6991
 6488TIP3   OH240878   1.524   2.892   5.629 -0.3527 -0.5944 -0.6234
 6488TIP3    H140879   1.558   2.938   5.705 -0.8696 -1.2435  0.0056
 6488TIP3    H240880   1.596   2.893   5.566  0.7846 -1.7728  0.6003
 6489TIP3   OH240881   1.121   1.127  17.032 -0.3235  0.2422  0.1448
 6489TIP3    H140882   1.053   1.174  17.082 -0.0202  1.5102 -0.5829
 6489TIP3    H240883   1.113   1.162  16.943  1.9071  1.1722  0.2410
 6490TIP3   OH240884   6.712   1.452  10.983  0.2260  0.5675  0.0166
 6490TIP3    H140885   6.785   1.426  10.928  1.0259  1.5638  0.5891
 6490TIP3    H240886   6.701   1.546  10.968 -0.0334  0.7071  0.9680
 6491TIP3   OH240887   3.859   1.541  16.821 -0.1904 -0.9097  0.3705
 6491TIP3    H140888   3.830   1.565  16.734 -1.3894  0.5299  1.1292
 6491TIP3    H240889   3.952   1.562  16.822 -0.6892  1.5238  0.2104
 6492TIP3   OH240890   3.694   3.771  10.472 -0.4257 -0.0713 -0.8732
 6492TIP3    H140891   3.739   3.701  10.521  1.1230  0.7015 -1.1155
 6492TIP3    H240892   3.765   3.816  10.426 -0.8995  3.4810  1.4974
 6493TIP3   OH240893   5.015   1.797   3.426  0.1768  0.0059 -0.7658
 6493TIP3    H140894   5.032   1.877   3.377  1.2463 -0.4013 -1.0703
 6493TIP3    H240895   4.976   1.737   3.363 -1.2481  0.4910 -0.3808
 6494TIP3   OH240896   0.481   2.312   2.738  0.0165  0.7495  0.4792
 6494TIP3    H140897   0.547   2.367   2.696  0.3878 -1.1910 -1.6382
 6494TIP3    H240898   0.397   2.344   2.704  0.2141  0.1880 -0.5610
 6495TIP3   OH240899   0.871   3.540   1.752  0.5825 -0.1315 -0.0256
 6495TIP3    H140900   0.781   3.521   1.729  0.3747  0.5325  0.2236
 6495TIP3    H240901   0.867   3.619   1.806  1.3076 -0.0964 -0.0011
 6496TIP3   OH240902   1.748   2.166   1.548 -0.1867 -0.2092  0.0575
 6496TIP3    H140903   1.715   2.086   1.588 -1.0685  1.1966  2.3493
 6496TIP3    H240904   1.740   2.232   1.617 -1.8944  2.4579 -2.4746
 6497TIP3   OH240905   2.595   6.009  12.584 -0.0578 -0.0157  0.4213
 6497TIP3    H140906   2.661   5.942  12.567 -0.8472 -1.1225  1.5455
 6497TIP3    H240907   2.514   5.972  12.550 -0.8177 -0.3716  2.5082
 6498TIP3   OH240908   5.985   2.476   4.872 -0.4908 -0.4441 -0.5625
 6498TIP3    H140909   6.013   2.559   4.832 -0.8602 -0.9858 -1.9942
 6498TIP3    H240910   6.053   2.456   4.936 -0.3847  0.9503 -0.2022
 6499TIP3   OH240911   1.600   4.838   1.746  0.3153 -0.1936  0.6972
 6499TIP3    H140912   1.594   4.808   1.656 -0.4917 -0.6112  0.8798
 6499TIP3    H240913   1.687   4.812   1.775 -0.1045 -1.7511  0.6229
 6500TIP3   OH240914   4.149   1.606  13.310  0.7626 -0.0314 -0.0922
 6500TIP3    H140915   4.149   1.652  13.226  0.4564  2.0436  0.9802
 6500TIP3    H240916   4.210   1.534  13.298  0.1714 -0.2263 -2.3100
 6501TIP3   OH240917   3.420   6.252  12.664  0.1785 -0.1226  0.1425
 6501TIP3    H140918   3.447   6.300  12.742  1.4957 -1.0174  0.2717
 6501TIP3    H240919   3.399   6.164  12.696 -1.3741  0.0894 -0.2122
 6502TIP3   OH240920   0.889   2.043   5.199 -0.2122 -0.1432  0.3325
 6502TIP3    H140921   0.879   1.984   5.273  1.2300 -1.2098 -0.2648
 6502TIP3    H240922   0.833   2.006   5.131 -0.0358 -0.2835  0.2629
 6503TIP3   OH240923   6.648   0.164  11.351  0.6027  0.1499  0.2205
 6503TIP3    H140924   6.704   0.106  11.402 -0.0959 -0.7757 -0.0551
 6503TIP3    H240925   6.702   0.190  11.276  1.2173  0.5736  0.7925
 6504TIP3   OH240926   4.356   1.635   1.516 -0.1736 -0.5149  0.2106
 6504TIP3    H140927   4.398   1.684   1.445 -1.5079 -0.5088 -0.6032
 6504TIP3    H240928   4.270   1.675   1.525 -0.1300 -0.6981  1.6672
 6505TIP3   OH240929   1.146   3.337   0.274 -0.2889  0.4550 -0.0459
 6505TIP3    H140930   1.194   3.255   0.283  0.2544  0.8215  0.4584
 6505TIP3    H240931   1.115   3.336   0.184  0.2372 -0.0267 -0.2306
 6506TIP3   OH240932   2.651   2.789  15.609 -0.1226  0.1050  0.0031
 6506TIP3    H140933   2.691   2.741  15.682  1.0165  0.0729 -0.6190
 6506TIP3    H240934   2.570   2.824  15.645  1.2146  1.5433  1.8131
 6507TIP3   OH240935   2.734   1.059  11.790 -0.5757  0.3847 -0.3532
 6507TIP3    H140936   2.664   1.061  11.725  1.1274 -3.1236 -2.5728
 6507TIP3    H240937   2.793   1.130  11.763 -2.5738  2.6862  0.9286
 6508TIP3   OH240938   3.079   2.337   3.760 -0.2521  0.0717  0.1179
 6508TIP3    H140939   3.057   2.284   3.837 -1.6378 -0.8479 -0.8754
 6508TIP3    H240940   2.994   2.359   3.721  0.3855  1.3948 -0.5833
 6509TIP3   OH240941   1.204   4.727   3.596 -0.1653 -0.2999  0.3144
 6509TIP3    H140942   1.268   4.799   3.600  0.9156 -1.1022 -1.2729
 6509TIP3    H240943   1.210   4.685   3.682 -1.3939  1.9241  1.5690
 6510TIP3   OH240944   6.015   4.367   0.876 -1.0677  0.1629  0.4935
 6510TIP3    H140945   6.015   4.279   0.913 -0.7982 -1.1823 -2.4354
 6510TIP3    H240946   5.924   4.382   0.849 -0.3376 -1.3404 -3.3519
 6511TIP3   OH240947   1.270   4.107  11.117 -0.0845  0.2131 -1.0943
 6511TIP3    H140948   1.231   4.138  11.035 -0.5613 -0.0909 -0.9863
 6511TIP3    H240949   1.267   4.183  11.175  0.4927  0.5024 -1.4423
 6512TIP3   OH240950   1.148   1.832  14.322 -0.3393 -0.7397 -0.2145
 6512TIP3    H140951   1.184   1.916  14.294 -0.2023 -0.3474  1.0665
 6512TIP3    H240952   1.104   1.852  14.405 -0.2963 -1.9316  0.1065
 6513TIP3   OH240953   5.304   3.180   1.566  0.1603 -0.0707  0.1316
 6513TIP3    H140954   5.343   3.144   1.645 -1.4011  1.7866  1.8570
 6513TIP3    H240955   5.214   3.146   1.566 -0.2377  0.9549 -0.1463
 6514TIP3   OH240956   0.766   3.834   2.765 -0.6864  0.2049 -0.3948
 6514TIP3    H140957   0.807   3.759   2.807  0.2395 -0.0435 -1.6666
 6514TIP3    H240958   0.838   3.878   2.720 -1.0640  2.3614  1.0116
 6515TIP3   OH240959   1.412   6.520  11.649 -0.4294 -0.0101 -0.5618
 6515TIP3    H140960   1.470   6.530  11.574 -0.3630 -1.5799 -0.7553
 6515TIP3    H240961   1.366   6.603  11.655 -1.7432 -0.3816 -3.4682
 6516TIP3   OH240962   0.312   2.708  11.564  0.1672 -0.1353  0.3014
 6516TIP3    H140963   0.227   2.687  11.602 -0.0426 -0.4323 -0.3283
 6516TIP3    H240964   0.305   2.683  11.472  0.3263  1.5123 -0.1957
 6517TIP3   OH240965   3.851   5.742   1.860  0.4082 -0.5238  0.5687
 6517TIP3    H140966   3.870   5.836   1.855  1.9686 -0.8696 -1.4924
 6517TIP3    H240967   3.797   5.733   1.938  2.4286  1.7007  2.3650
 6518TIP3   OH240968   4.048   5.294   3.673 -0.0371 -0.4810 -0.0262
 6518TIP3    H140969   4.078   5.318   3.761 -1.6198 -1.7969  0.9423
 6518TIP3    H240970   3.965   5.341   3.662  0.1637 -0.2961 -0.8479
 6519TIP3   OH240971   1.864   4.824   0.506 -0.0254 -0.3076 -0.5621
 6519TIP3    H140972   1.843   4.804   0.415  2.5788 -1.2651 -1.0315
 6519TIP3    H240973   1.907   4.745   0.538 -0.2824  0.2752  1.3042
 6520TIP3   OH240974   5.156   0.543   2.933 -0.4085 -0.2854 -0.4674
 6520TIP3    H140975   5.144   0.627   2.978 -2.2123 -1.4005  1.3214
 6520TIP3    H240976   5.177   0.567   2.843 -2.7918  2.1477 -0.5077
 6521TIP3   OH240977   6.369   3.064  16.604  0.1111  0.3608 -0.1219
 6521TIP3    H140978   6.419   3.146  16.606  1.4795 -0.4035 -1.2438
 6521TIP3    H240979   6.374   3.034  16.514 -2.1975  0.0753 -0.2225
 6522TIP3   OH240980   3.765   2.134   4.566  0.5349  0.1749 -0.5396
 6522TIP3    H140981   3.750   2.145   4.472 -0.5119  0.6957 -0.3300
 6522TIP3    H240982   3.748   2.042   4.583  1.2177 -0.0321 -0.9359
 6523TIP3   OH240983   0.771   4.165   4.964 -0.5277 -0.2952 -0.2168
 6523TIP3    H140984   0.730   4.213   4.891 -1.5747 -0.7150  0.0811
 6523TIP3    H240985   0.779   4.230   5.034 -0.4540 -0.1430 -0.3660
 6524TIP3   OH240986   0.882   2.336  17.140 -0.1384 -0.4812 -0.7316
 6524TIP3    H140987   0.915   2.255  17.100  1.3559 -0.6384  0.7324
 6524TIP3    H240988   0.799   2.310  17.181  0.3040 -1.2815 -0.3118
 6525TIP3   OH240989   4.319   1.116   3.997 -0.3337 -0.3923  0.1922
 6525TIP3    H140990   4.250   1.181   3.999  1.2041  1.3863 -1.1033
 6525TIP3    H240991   4.333   1.098   3.904  2.1192  0.7209  0.2537
 6526TIP3   OH240992   3.411   0.516   5.802  0.5520 -0.1264 -0.5416
 6526TIP3    H140993   3.498   0.511   5.762  2.4833  0.9355  3.1205
 6526TIP3    H240994   3.421   0.577   5.874 -3.4664  0.5084 -0.2961
 6527TIP3   OH240995   2.315   1.145  13.709 -0.3760  0.2705  0.4041
 6527TIP3    H140996   2.354   1.058  13.717 -0.8649  0.1012  0.9679
 6527TIP3    H240997   2.346   1.193  13.786 -0.4018  0.4838  0.2844
 6528TIP3   OH240998   4.965   5.891   0.399  0.0368  0.1428 -0.3619
 6528TIP3    H140999   5.037   5.953   0.385 -0.1221  0.2342 -0.8017
 6528TIP3    H241000   4.887   5.937   0.368 -0.3574  0.3798  0.9156
 6529TIP3   OH241001   1.242   4.594   0.329  0.6577  0.2879  0.1246
 6529TIP3    H141002   1.165   4.590   0.386  0.4071  0.0320 -0.2305
 6529TIP3    H241003   1.248   4.686   0.304 -1.0360 -0.0660 -1.8780
 6530TIP3   OH241004   2.232   5.760   0.138  0.0500  0.0666  0.4691
 6530TIP3    H141005   2.203   5.747   0.228 -0.2171 -0.3313  0.3247
 6530TIP3    H241006   2.156   5.738   0.084 -0.3512  1.9054  0.1918
 6531TIP3   OH241007   6.462   0.480   0.303 -0.1464  0.1997 -0.4091
 6531TIP3    H141008   6.371   0.505   0.313 -0.0269 -0.2585  3.1266
 6531TIP3    H241009   6.510   0.537   0.362  1.6052 -0.8403 -0.7332
 6532TIP3   OH241010   3.682   1.601   1.543  0.2008 -0.0354  0.2197
 6532TIP3    H141011   3.658   1.633   1.630  0.9352  2.2759 -0.3785
 6532TIP3    H241012   3.604   1.617   1.489  0.7987  1.4205 -0.2347
 6533TIP3   OH241013   4.241   3.810   0.953 -0.0239 -0.1399  0.3730
 6533TIP3    H141014   4.269   3.867   0.881  1.5612 -1.2966  0.0234
 6533TIP3    H241015   4.274   3.723   0.929  1.6722 -0.3362  3.0676
 6534TIP3   OH241016   2.601   6.629   5.052  0.2337  0.1182  0.1408
 6534TIP3    H141017   2.648   6.650   4.971 -1.3548  3.3673 -0.1063
 6534TIP3    H241018   2.512   6.609   5.024 -0.3112  1.1847  1.0372
 6535TIP3   OH241019   2.853   0.499   1.452  0.0091  0.6780  0.0221
 6535TIP3    H141020   2.926   0.517   1.394 -0.2014 -1.1474 -0.8928
 6535TIP3    H241021   2.842   0.404   1.448 -2.1945  0.8554  0.3818
 6536TIP3   OH241022   6.232   4.526  17.079 -0.2009  0.3662 -0.4546
 6536TIP3    H141023   6.270   4.491  16.998 -1.8348  0.8117 -1.4713
 6536TIP3    H241024   6.213   4.618  17.058  0.7760  0.9261  0.9868
 6537TIP3   OH241025   1.454   1.439  16.606 -0.3943 -0.3872  0.0687
 6537TIP3    H141026   1.363   1.412  16.610  0.0444 -2.0410 -0.3737
 6537TIP3    H241027   1.483   1.439  16.697 -0.3863 -1.6252  0.0907
 6538TIP3   OH241028   3.033   0.823   5.117  0.2932  0.4041 -0.2993
 6538TIP3    H141029   3.106   0.767   5.093  1.1097  1.9989 -1.6977
 6538TIP3    H241030   3.074   0.902   5.152 -0.8093  0.6469  0.5040
 6539TIP3   OH241031   1.453   1.302  14.394 -0.9140 -0.0199  0.4310
 6539TIP3    H141032   1.371   1.326  14.352  0.0037  1.8487 -0.4659
 6539TIP3    H241033   1.513   1.285  14.322 -0.7047 -2.2897  1.0665
 6540TIP3   OH241034   3.856   1.744   3.383  0.3208 -0.3189 -0.1564
 6540TIP3    H141035   3.919   1.782   3.322  0.1408  0.2259 -0.0045
 6540TIP3    H241036   3.781   1.720   3.328  0.6856 -1.0489 -0.3516
 6541TIP3   OH241037   5.322   1.182   3.809  0.1435  0.4146 -0.4282
 6541TIP3    H141038   5.277   1.251   3.858  0.4853 -0.2652  0.9122
 6541TIP3    H241039   5.336   1.219   3.722  1.2103  2.4274  0.5263
 6542TIP3   OH241040   6.276   3.122  16.151  0.5028 -0.2921  0.2249
 6542TIP3    H141041   6.335   3.166  16.090  1.4641 -0.2897  1.1355
 6542TIP3    H241042   6.242   3.191  16.207 -1.2659 -0.1212 -0.9737
 6543TIP3   OH241043   5.060   5.456   6.925 -0.4977 -0.1631  1.0754
 6543TIP3    H141044   5.146   5.498   6.927 -1.2679  2.0244 -2.3663
 6543TIP3    H241045   5.001   5.518   6.967 -1.0437  0.6089 -0.7178
 6544TIP3   OH241046   3.548   4.439   2.450 -0.2296  0.0636  0.1287
 6544TIP3    H141047   3.497   4.498   2.394 -1.2083 -1.2551 -0.4119
 6544TIP3    H241048   3.505   4.354   2.441  1.2008 -0.7684  0.8257
 6545TIP3   OH241049   0.913   4.360   2.686 -0.2436  0.1265  0.2281
 6545TIP3    H141050   0.832   4.409   2.675 -0.7316 -0.8370 -0.6422
 6545TIP3    H241051   0.940   4.336   2.597  0.8220  0.1563  0.5242
 6546TIP3   OH241052   6.612   5.734   4.228  0.4536 -0.5303  0.1044
 6546TIP3    H141053   6.582   5.719   4.318  0.7246 -1.7840  0.0141
 6546TIP3    H241054   6.704   5.759   4.237 -0.6738  4.3046  0.4457
 6547TIP3   OH241055   1.570   0.871   4.465  0.2435  0.1257  0.6384
 6547TIP3    H141056   1.592   0.944   4.407 -0.5349  0.0766  0.2806
 6547TIP3    H241057   1.590   0.905   4.553 -2.2939  1.6709  0.7302
 6548TIP3   OH241058   3.009   4.526  10.997 -0.5886  0.6122  0.3483
 6548TIP3    H141059   2.915   4.510  11.002 -0.3087 -1.1287  0.6012
 6548TIP3    H241060   3.044   4.493  11.080  0.3059  0.7225  0.0295
 6549TIP3   OH241061   0.989   4.062   2.331  0.2386  0.0571  0.0505
 6549TIP3    H141062   0.940   3.981   2.315 -2.6837  1.1680  2.4719
 6549TIP3    H241063   1.040   4.075   2.251 -1.6074 -2.5059 -1.7082
 6550TIP3   OH241064   6.575   2.782   0.089 -0.6009  0.0632  0.2675
 6550TIP3    H141065   6.594   2.816   0.176  0.6133 -1.3115  0.5748
 6550TIP3    H241066   6.642   2.715   0.074 -1.2347 -0.2416 -1.4233
 6551TIP3   OH241067   1.705   3.902  14.216 -0.6856 -0.1428 -0.2966
 6551TIP3    H141068   1.796   3.895  14.245 -0.4813 -1.2906 -1.1421
 6551TIP3    H241069   1.661   3.828  14.258 -1.5930  1.2278  1.2845
 6552TIP3   OH241070   5.053   6.286  17.136 -0.5538 -0.7648  0.2822
 6552TIP3    H141071   5.003   6.321  17.210  0.0970  0.8780 -0.0217
 6552TIP3    H241072   5.142   6.320  17.149  0.1850 -2.4593  0.0313
 6553TIP3   OH241073   2.769   4.086  14.506 -0.6454 -0.1017  0.5588
 6553TIP3    H141074   2.817   4.165  14.531  1.8200 -0.8397 -1.3509
 6553TIP3    H241075   2.777   4.028  14.582  0.8911  0.1152  0.6102
 6554TIP3   OH241076   4.080   6.287   4.933 -0.0422  0.1151 -0.3993
 6554TIP3    H141077   4.143   6.326   4.873  1.1965  2.8033  2.3796
 6554TIP3    H241078   4.129   6.219   4.980 -0.0281  0.2741 -0.1814
 6555TIP3   OH241079   2.037   2.028  13.911 -0.2544  0.0072 -0.3770
 6555TIP3    H141080   2.038   1.977  13.992 -2.0738  0.1809 -0.2201
 6555TIP3    H241081   2.129   2.032  13.885  0.4527  0.3604  1.9336
 6556TIP3   OH241082   3.252   1.365  14.417  0.0525 -0.3000  0.1167
 6556TIP3    H141083   3.277   1.346  14.327  0.0443 -0.9567  0.2447
 6556TIP3    H241084   3.255   1.460  14.424  1.7262 -0.3157 -0.0870
 6557TIP3   OH241085   3.565   1.685   5.552 -0.0477  0.2505 -0.3620
 6557TIP3    H141086   3.553   1.598   5.513  3.0605 -0.7661  0.6045
 6557TIP3    H241087   3.552   1.671   5.646  0.9278  0.7014 -0.1483
 6558TIP3   OH241088   0.405   6.368   2.042 -0.2964  0.3633 -0.5055
 6558TIP3    H141089   0.441   6.434   1.984  0.1719  0.9841  0.4640
 6558TIP3    H241090   0.419   6.285   1.996 -0.1624  0.8649 -1.3737
 6559TIP3   OH241091   0.039   0.769  12.076  0.1537  0.2786 -0.2253
 6559TIP3    H141092   0.078   0.683  12.090  0.8298  0.7988  1.3410
 6559TIP3    H241093  -0.055   0.752  12.066  0.3983 -0.7155 -0.9553
 6560TIP3   OH241094   0.448   2.385  14.961  0.3200  0.2754 -0.1486
 6560TIP3    H141095   0.408   2.319  14.904  0.2659  0.1458  0.0410
 6560TIP3    H241096   0.515   2.337  15.010 -0.1853  0.2163  0.4883
 6561TIP3   OH241097   3.476   6.614   1.115 -0.2470 -0.2584 -0.1099
 6561TIP3    H141098   3.456   6.688   1.172 -2.1383  1.3995 -2.7207
 6561TIP3    H241099   3.419   6.543   1.146  0.5551 -0.2337  1.5279
 6562TIP3   OH241100   5.368   6.244   2.805 -0.1708  0.1874  0.0534
 6562TIP3    H141101   5.389   6.214   2.716 -0.7383  0.2202 -0.0937
 6562TIP3    H241102   5.330   6.331   2.792 -0.8007 -0.0531  0.2825
 6563TIP3   OH241103   2.917   3.582   1.827 -0.2581  0.3773  0.2161
 6563TIP3    H141104   2.887   3.527   1.754  0.0700 -0.4142  0.6661
 6563TIP3    H241105   2.923   3.522   1.901  0.0687  1.0334  0.7251
 6564TIP3   OH241106   4.952   6.669   1.930  0.2283 -0.0543  0.5563
 6564TIP3    H141107   4.943   6.574   1.930  0.9824 -0.2055 -2.1895
 6564TIP3    H241108   4.874   6.701   1.886  0.0151  0.6306  1.3995
 6565TIP3   OH241109   0.825   5.923   5.659 -0.0115 -0.0619  0.4025
 6565TIP3    H141110   0.879   5.987   5.706 -0.2176 -0.9635  1.9181
 6565TIP3    H241111   0.885   5.884   5.595  0.0284  1.8604 -0.8518
 6566TIP3   OH241112   1.577   4.831  14.293 -0.2206  0.5411 -0.0215
 6566TIP3    H141113   1.574   4.790  14.379 -0.4510 -0.6907 -0.5983
 6566TIP3    H241114   1.656   4.797  14.252 -1.9768 -1.8940 -1.6925
 6567TIP3   OH241115   4.164   4.648  15.793  0.8010 -0.5613 -0.1000
 6567TIP3    H141116   4.189   4.567  15.750  1.4244 -2.4010  3.3811
 6567TIP3    H241117   4.246   4.696  15.805  0.5713  0.1495 -1.2577
 6568TIP3   OH241118   0.570   2.550   0.716 -0.2681  0.1967 -0.0473
 6568TIP3    H141119   0.611   2.559   0.630  0.5207 -0.9004  0.1977
 6568TIP3    H241120   0.479   2.579   0.702  0.2373  1.4694 -0.8821
 6569TIP3   OH241121   2.254   0.260   4.335  0.3721 -0.4344  0.3151
 6569TIP3    H141122   2.311   0.235   4.262 -1.5644 -1.0097 -1.0654
 6569TIP3    H241123   2.210   0.340   4.305  0.0686 -0.2801  1.1499
 6570TIP3   OH241124   5.706   3.012  13.466  0.4439 -0.2010 -0.3692
 6570TIP3    H141125   5.743   3.004  13.378  1.0951  2.0724 -0.3646
 6570TIP3    H241126   5.778   3.043  13.520 -0.4466  0.3877  0.5178
 6571TIP3   OH241127   0.274   4.850  13.881  0.4528  0.1835  0.1773
 6571TIP3    H141128   0.217   4.928  13.880 -0.0141 -0.1459  0.6390
 6571TIP3    H241129   0.361   4.885  13.899  0.4880  0.7472 -1.0297
 6572TIP3   OH241130   3.801   2.620   1.390 -0.0672  1.0090  0.2032
 6572TIP3    H141131   3.717   2.579   1.369 -0.5428  1.2953  1.4706
 6572TIP3    H241132   3.791   2.711   1.361  0.7321  0.4801 -1.9422
 6573TIP3   OH241133   0.176   2.820   0.776 -0.0621  0.0614  0.7867
 6573TIP3    H141134   0.240   2.832   0.706  0.4105 -0.6853  1.0795
 6573TIP3    H241135   0.105   2.770   0.735 -0.2030  0.4047  0.6091
 6574TIP3   OH241136   3.499   3.332   4.862 -0.3255  0.0483  0.2504
 6574TIP3    H141137   3.571   3.395   4.863 -1.4828  1.4183  1.3280
 6574TIP3    H241138   3.504   3.289   4.948 -0.1918 -0.5790 -0.0664
 6575TIP3   OH241139   2.940   4.146  15.001  0.0856 -0.0367 -0.8161
 6575TIP3    H141140   2.925   4.086  14.928  0.9074 -0.3921 -0.6973
 6575TIP3    H241141   2.973   4.090  15.072  0.2060  0.4506 -0.4815
 6576TIP3   OH241142   4.637   2.448   2.980 -0.4889 -0.2142 -0.0452
 6576TIP3    H141143   4.722   2.422   3.018  0.0521  0.6820 -0.6116
 6576TIP3    H241144   4.660   2.503   2.906 -1.5703 -0.7500 -0.7994
 6577TIP3   OH241145   5.217   0.540  11.146 -0.3900  0.3284 -0.2065
 6577TIP3    H141146   5.217   0.500  11.233  0.2558 -0.1755 -0.4279
 6577TIP3    H241147   5.244   0.470  11.087  0.7642  1.0692 -0.6079
 6578TIP3   OH241148   3.871   4.574   5.383  0.3501 -0.5403  0.1815
 6578TIP3    H141149   3.900   4.577   5.474 -0.8530 -1.5707  0.6286
 6578TIP3    H241150   3.872   4.481   5.360 -0.9439 -0.4492 -0.3122
 6579TIP3   OH241151   5.495   3.227  13.535  0.6102  0.0867 -0.1181
 6579TIP3    H141152   5.454   3.301  13.490  1.1293  1.1235  1.0416
 6579TIP3    H241153   5.497   3.157  13.470  0.2655  1.1482 -1.3115
 6580TIP3   OH241154   4.753   5.747   0.279  0.0118 -0.4424 -0.2733
 6580TIP3    H141155   4.813   5.690   0.231 -1.7497 -2.1731 -0.5463
 6580TIP3    H241156   4.781   5.739   0.371 -0.0425 -1.5556 -0.3410
 6581TIP3   OH241157   3.225   1.641   4.508  0.5439  0.2061  0.4844
 6581TIP3    H141158   3.227   1.732   4.476 -0.4947 -0.8840 -3.2046
 6581TIP3    H241159   3.168   1.644   4.585 -2.5891  2.2546 -1.6838
 6582TIP3   OH241160   2.314   0.875   1.688  0.4455  0.4687 -0.3636
 6582TIP3    H141161   2.270   0.792   1.701  1.5403  0.1740  2.1279
 6582TIP3    H241162   2.357   0.867   1.602 -0.7025 -0.9022 -0.8401
 6583TIP3   OH241163   0.735   4.471  12.670 -0.0874  0.0163  0.2994
 6583TIP3    H141164   0.689   4.465  12.587 -1.7378  2.3746  0.9361
 6583TIP3    H241165   0.828   4.477  12.646 -0.1514 -2.8000 -1.1097
 6584TIP3   OH241166   0.587   0.140   3.817  0.3580 -0.0017  1.0460
 6584TIP3    H141167   0.507   0.144   3.869  0.1177 -2.2832  0.9548
 6584TIP3    H241168   0.578   0.212   3.755 -2.1034 -0.6992  0.4547
 6585TIP3   OH241169   2.169   1.594   3.569 -0.0755 -0.2927  0.0573
 6585TIP3    H141170   2.101   1.659   3.587  1.2773  1.0851  0.4023
 6585TIP3    H241171   2.249   1.645   3.557  1.0775 -1.9038  0.5026
 6586TIP3   OH241172   3.506   3.957   6.362  0.2295 -0.3414  0.7504
 6586TIP3    H141173   3.462   3.916   6.436  1.7332  0.2117  2.0162
 6586TIP3    H241174   3.439   4.012   6.321 -0.2415  0.6643  2.7558
 6587TIP3   OH241175   2.548   2.007   3.251  0.5959 -0.2150 -0.1797
 6587TIP3    H141176   2.478   2.039   3.194  0.9648  0.2529 -0.3839
 6587TIP3    H241177   2.583   2.086   3.293 -0.1784 -0.6289  1.3073
 6588TIP3   OH241178   0.180   1.611   2.244  0.0496  0.7329 -0.4070
 6588TIP3    H141179   0.244   1.605   2.173  0.0626  1.9416 -0.5219
 6588TIP3    H241180   0.198   1.696   2.285 -0.6973  0.5504  0.3321
 6589TIP3   OH241181   4.581   0.470   3.278  0.0045  0.2237 -0.0095
 6589TIP3    H141182   4.612   0.405   3.214 -1.4988 -0.8408  0.2969
 6589TIP3    H241183   4.497   0.500   3.243  0.8958  2.4511 -0.4153
 6590TIP3   OH241184   2.645   4.642  14.737 -0.5824  0.0402 -0.5817
 6590TIP3    H141185   2.584   4.584  14.692  0.2803 -0.9152 -0.5453
 6590TIP3    H241186   2.664   4.712  14.674  0.2155 -1.0033 -1.5254
 6591TIP3   OH241187   6.464   2.986  16.343 -0.2200  0.0750 -0.0740
 6591TIP3    H141188   6.394   2.996  16.278  1.0401  0.1043 -1.4753
 6591TIP3    H241189   6.542   3.023  16.301  0.4266  1.0533  1.8743
 6592TIP3   OH241190   2.977   2.220   3.384  0.1522 -0.1737  0.4524
 6592TIP3    H141191   3.021   2.287   3.437  0.8994 -0.0970 -0.2525
 6592TIP3    H241192   3.045   2.186   3.327 -0.4712 -0.8043  0.0713
 6593TIP3   OH241193   4.770   5.161  14.552 -0.5738  0.0133  0.5111
 6593TIP3    H141194   4.682   5.153  14.515  0.2826  1.6762 -2.2017
 6593TIP3    H241195   4.775   5.253  14.580  0.4013  0.0335  0.2924
 6594TIP3   OH241196   1.707   6.763   0.599 -0.3118  0.0226  0.1628
 6594TIP3    H141197   1.757   6.756   0.680 -2.0121 -0.5829  1.2224
 6594TIP3    H241198   1.756   6.824   0.545  2.1139 -1.3300  0.6826
 6595TIP3   OH241199   6.062   1.635   3.679  0.0596 -0.2030 -0.0162
 6595TIP3    H141200   6.066   1.689   3.600 -1.4137 -1.1959 -0.8172
 6595TIP3    H241201   5.969   1.616   3.690  0.2316 -0.0943  1.9825
 6596TIP3   OH241202   3.184   3.255  15.435 -0.0832 -0.3080 -0.2481
 6596TIP3    H141203   3.105   3.231  15.387  1.5186  0.3033 -3.4585
 6596TIP3    H241204   3.218   3.172  15.468 -2.0146 -0.5670  1.2454
 6597TIP3   OH241205   3.130   3.377  15.103 -0.4109  0.4943 -0.1834
 6597TIP3    H141206   3.145   3.365  15.009 -0.7406  1.0314 -0.3120
 6597TIP3    H241207   3.185   3.451  15.126  0.3536 -0.1929  0.2452
 6598TIP3   OH241208   0.985   3.270  14.963 -0.3401  0.2775  0.1403
 6598TIP3    H141209   0.893   3.276  14.989 -0.2250  0.2101  0.5654
 6598TIP3    H241210   1.028   3.225  15.036  0.0596  0.4488  0.0108
 6599TIP3   OH241211   2.146   6.246  12.914 -0.4873  0.2037 -0.5478
 6599TIP3    H141212   2.089   6.242  12.838  0.6010  0.8342 -1.4159
 6599TIP3    H241213   2.087   6.231  12.989 -1.4740 -0.9884 -1.5200
 6600TIP3   OH241214   5.768   5.739   2.267  0.2443 -0.1189  0.1354
 6600TIP3    H141215   5.805   5.736   2.356  1.6014  2.5130 -0.2469
 6600TIP3    H241216   5.713   5.817   2.267 -1.6608 -1.3955 -0.7201
 6601TIP3   OH241217   4.823   0.755   4.108 -0.0447 -0.5799 -0.0660
 6601TIP3    H141218   4.799   0.663   4.107 -1.5156 -0.2210 -0.2168
 6601TIP3    H241219   4.838   0.775   4.200 -1.4131 -0.5866  0.1807
 6602TIP3   OH241220   4.685   0.577  14.271 -0.0785 -0.0683 -0.5238
 6602TIP3    H141221   4.594   0.550  14.281  0.4243 -2.7040 -2.1683
 6602TIP3    H241222   4.680   0.666  14.235 -1.9627  0.1231  0.1149
 6603TIP3   OH241223   2.033   1.008   3.912  0.0969  0.6472  0.2279
 6603TIP3    H141224   2.078   1.024   3.995 -2.9753 -1.3677  2.5102
 6603TIP3    H241225   2.039   0.914   3.899  1.3239  1.0177 -2.4573
 6604TIP3   OH241226   6.686   1.049  11.329  0.0390 -0.0371  0.2147
 6604TIP3    H141227   6.766   1.092  11.360 -0.4396  2.0271 -1.2329
 6604TIP3    H241228   6.646   1.112  11.269 -1.9904 -1.5682 -0.1558
 6605TIP3   OH241229   4.366   6.151  13.466 -0.1472 -0.5161  0.5638
 6605TIP3    H141230   4.322   6.158  13.381 -0.1117 -3.1492  0.2430
 6605TIP3    H241231   4.443   6.098  13.448  1.1306  0.7950  1.8696
 6606TIP3   OH241232   0.382   3.163   0.382 -0.2990  0.0494 -0.2148
 6606TIP3    H141233   0.471   3.128   0.391  0.0728  0.7304 -1.0570
 6606TIP3    H241234   0.394   3.258   0.386 -1.1302  0.1370  0.7339
 6607TIP3   OH241235   3.366   0.532  16.259 -0.2844 -0.4765  0.1159
 6607TIP3    H141236   3.368   0.468  16.188 -0.9218 -0.8831  0.4549
 6607TIP3    H241237   3.367   0.617  16.215 -1.4208 -0.7252 -0.4135
 6608TIP3   OH241238   1.458   5.657  14.582 -0.0530 -0.3914 -0.7720
 6608TIP3    H141239   1.390   5.699  14.530 -0.2272 -2.4568 -2.3540
 6608TIP3    H241240   1.418   5.576  14.613  0.7944 -0.2854  0.7063
 6609TIP3   OH241241   5.780   0.567  16.857  0.7413  0.1775 -0.3516
 6609TIP3    H141242   5.742   0.653  16.875 -1.2491 -0.3955 -1.5528
 6609TIP3    H241243   5.793   0.566  16.762 -0.3314 -1.2358 -0.5042
 6610TIP3   OH241244   6.204   1.511   5.971  0.2622  0.2933 -0.6231
 6610TIP3    H141245   6.133   1.541   6.028  2.6662  1.0486  2.2394
 6610TIP3    H241246   6.271   1.579   5.979  2.1016 -1.3146 -1.6199
 6611TIP3   OH241247   5.778   5.370   3.018 -0.8044  0.3519 -0.0363
 6611TIP3    H141248   5.799   5.430   3.090 -0.4282 -0.0472  0.1919
 6611TIP3    H241249   5.700   5.323   3.049  0.4443 -1.1621  0.9480
 6612TIP3   OH241250   1.491   1.598   5.176 -0.0804  0.0640 -0.4692
 6612TIP3    H141251   1.421   1.608   5.111 -1.4894 -2.9497  0.4280
 6612TIP3    H241252   1.451   1.624   5.259  0.8788  1.2230 -0.3243
 6613TIP3   OH241253   6.483   5.052  14.468 -0.4634 -0.4511 -0.0563
 6613TIP3    H141254   6.497   4.974  14.522  1.9014 -1.1317 -1.4902
 6613TIP3    H241255   6.417   5.025  14.403 -0.6197 -0.8280  0.2545
 6614TIP3   OH241256   3.882   3.215  16.237  0.1319 -0.8391 -0.8600
 6614TIP3    H141257   3.885   3.129  16.279 -1.2283 -0.4575  0.1118
 6614TIP3    H241258   3.798   3.252  16.266  0.6064  0.7325 -1.4116
 6615TIP3   OH241259   1.861   1.742   0.926  0.6562  0.2812 -0.6447
 6615TIP3    H141260   1.895   1.814   0.873  1.1030  1.1552  0.7698
 6615TIP3    H241261   1.878   1.769   1.016  1.6125 -1.9639 -0.0799
 6616TIP3   OH241262   6.480   3.291   3.521 -0.2015 -0.0655 -0.2519
 6616TIP3    H141263   6.512   3.381   3.519  0.4467 -0.2905 -0.5371
 6616TIP3    H241264   6.439   3.282   3.607 -0.6659  0.6289 -0.4002
 6617TIP3   OH241265   1.524   4.937   5.293 -0.3142 -0.3954 -0.2372
 6617TIP3    H141266   1.583   5.009   5.271 -2.1560  0.8933 -1.1758
 6617TIP3    H241267   1.571   4.859   5.266  0.5016  0.6698 -2.0445
 6618TIP3   OH241268   3.454   5.127   3.452  0.2353  0.3221 -0.5592
 6618TIP3    H141269   3.457   5.177   3.533 -0.7175  0.1357 -0.4035
 6618TIP3    H241270   3.545   5.126   3.421  1.2756 -2.3243  2.1527
 6619TIP3   OH241271   5.588   1.194   3.217 -0.7846  0.8483  0.2731
 6619TIP3    H141272   5.611   1.287   3.212  2.6011  0.0957 -1.1804
 6619TIP3    H241273   5.575   1.168   3.126  0.2127 -0.4634  0.4817
 6620TIP3   OH241274   4.586   1.196  16.179  0.1366  0.2205  0.2519
 6620TIP3    H141275   4.594   1.214  16.273  1.3421 -1.1730  0.4527
 6620TIP3    H241276   4.664   1.145  16.158 -0.5725 -0.2704 -1.3269
 6621TIP3   OH241277   2.375   2.631  17.106  0.0023 -0.0113  0.4768
 6621TIP3    H141278   2.342   2.644  17.017 -1.5468 -0.4315  0.9463
 6621TIP3    H241279   2.386   2.536  17.114  1.2512  0.1158  0.3726
 6622TIP3   OH241280   3.556   3.857   3.754  0.8746 -0.4362  0.2000
 6622TIP3    H141281   3.527   3.945   3.777 -1.8590 -1.0843 -0.4363
 6622TIP3    H241282   3.500   3.799   3.805 -0.0986 -1.8124 -2.2474
 6623TIP3   OH241283   1.985   5.193  11.698  0.1652 -0.4190 -0.5163
 6623TIP3    H141284   1.951   5.104  11.693 -1.2113 -0.3186  3.2916
 6623TIP3    H241285   1.908   5.249  11.686 -0.2902 -0.0447  3.1069
 6624TIP3   OH241286   4.185   2.160  17.102  0.3664  0.8456 -0.3418
 6624TIP3    H141287   4.185   2.238  17.047 -0.4823  2.1198  1.3746
 6624TIP3    H241288   4.275   2.153  17.133  0.0751  2.3026  0.9750
 6625TIP3   OH241289   1.683   6.308  11.877  0.3839 -0.7830 -0.7012
 6625TIP3    H141290   1.674   6.384  11.935 -1.2263 -0.6743 -1.0361
 6625TIP3    H241291   1.734   6.245  11.927  2.3033  0.7213 -0.6517
 6626TIP3   OH241292   3.473   3.222  16.658  0.1233  0.2411 -0.3326
 6626TIP3    H141293   3.483   3.127  16.655  1.5370  0.3904 -1.0509
 6626TIP3    H241294   3.448   3.241  16.748  0.1081 -0.7874 -0.1110
 6627TIP3   OH241295   0.485   4.746   1.515  0.4351 -0.6667  0.0956
 6627TIP3    H141296   0.527   4.831   1.501  0.5215 -0.8305 -0.6706
 6627TIP3    H241297   0.552   4.693   1.560  1.2965 -1.1103 -1.6199
 6628TIP3   OH241298   5.099   1.262   0.723  0.0351 -0.2824  0.0676
 6628TIP3    H141299   5.016   1.225   0.693 -0.3334 -0.4505  1.2453
 6628TIP3    H241300   5.164   1.229   0.660 -0.8249  0.1024 -1.0336
 6629TIP3   OH241301   4.347   4.268  16.597 -0.7259  0.0610  0.2597
 6629TIP3    H141302   4.304   4.259  16.682  0.0698  0.7392  0.7478
 6629TIP3    H241303   4.415   4.333  16.612  0.7842 -1.3213 -0.3629
 6630TIP3   OH241304   6.419   6.559   0.311 -0.2005 -0.0492  0.2978
 6630TIP3    H141305   6.412   6.533   0.219  0.1413 -1.1877  0.5740
 6630TIP3    H241306   6.334   6.597   0.332  0.6690  3.1034 -1.3049
 6631TIP3   OH241307   2.601   1.209  13.312 -0.2524  0.0159  0.0423
 6631TIP3    H141308   2.649   1.153  13.372  0.7797  0.4545 -0.3540
 6631TIP3    H241309   2.510   1.200  13.339  0.0905 -0.4874  1.0919
 6632TIP3   OH241310   1.531   6.023   1.814  0.1684  0.5958 -0.1714
 6632TIP3    H141311   1.441   6.003   1.842 -0.1136  1.2370 -0.5719
 6632TIP3    H241312   1.586   5.964   1.864 -0.5546 -0.5565 -0.6811
 6633TIP3   OH241313   0.718   0.299  12.128 -0.0923  0.1718 -0.2710
 6633TIP3    H141314   0.791   0.277  12.070  0.1894  0.8932 -0.1968
 6633TIP3    H241315   0.657   0.226  12.119 -0.5457  0.7407 -2.2836
 6634TIP3   OH241316   1.170   6.381  16.467  0.0354 -0.3889 -0.0358
 6634TIP3    H141317   1.191   6.305  16.520 -0.8714 -1.2018 -0.8185
 6634TIP3    H241318   1.086   6.411  16.500 -0.8304 -1.2578 -1.3575
 6635TIP3   OH241319   0.664   4.924  16.360  0.2434  0.2368 -0.0025
 6635TIP3    H141320   0.654   4.997  16.421  2.7267  0.5358  0.1150
 6635TIP3    H241321   0.629   4.849  16.408  1.0088  0.6954  1.3386
 6636TIP3   OH241322   6.255   5.124  16.876  0.3262 -0.4668 -0.2677
 6636TIP3    H141323   6.189   5.187  16.907 -1.3224 -2.1542 -0.1414
 6636TIP3    H241324   6.332   5.177  16.857 -0.0317  1.2343  2.4791
 6637TIP3   OH241325   4.538   4.685  13.848 -0.0511 -0.2545  0.0617
 6637TIP3    H141326   4.502   4.720  13.930  0.2074  0.3266 -0.0693
 6637TIP3    H241327   4.631   4.670  13.867  0.1326  0.4094 -0.2888
 6638TIP3   OH241328   0.121   4.224  11.404 -0.0690  0.1795  0.5182
 6638TIP3    H141329   0.179   4.273  11.462  0.6915 -1.6787  1.4224
 6638TIP3    H241330   0.070   4.167  11.462  0.6935 -1.7079 -0.5466
 6639TIP3   OH241331   1.149   6.066  16.028  0.6390  0.3960 -0.7745
 6639TIP3    H141332   1.094   5.996  16.062  1.2837 -0.0464 -0.6114
 6639TIP3    H241333   1.137   6.138  16.090 -0.9533  0.8744 -1.5972
 6640TIP3   OH241334   5.960   0.882   5.335  0.4917  0.0468 -0.3529
 6640TIP3    H141335   6.040   0.918   5.298 -1.2562  2.5784 -1.9978
 6640TIP3    H241336   5.916   0.840   5.262 -0.7294  0.7543 -0.0604
 6641TIP3   OH241337   1.070   2.209  14.387 -0.2710 -0.6688  0.3487
 6641TIP3    H141338   1.101   2.201  14.477 -2.5370 -3.2504  1.0408
 6641TIP3    H241339   0.998   2.271  14.392 -0.0095 -0.3505  0.1857
 6642TIP3   OH241340   6.433   3.570  15.884 -0.1682 -0.3620  0.1587
 6642TIP3    H141341   6.374   3.533  15.950 -0.9894 -1.6063 -1.1722
 6642TIP3    H241342   6.412   3.663  15.881 -1.5972 -0.6612  0.2219
 6643TIP3   OH241343   1.229   1.903  11.077  0.3120  0.0363  0.5007
 6643TIP3    H141344   1.191   1.925  11.162 -0.4411  2.5292 -0.4064
 6643TIP3    H241345   1.161   1.852  11.033  0.0891  0.0548  0.8200
 6644TIP3   OH241346   3.439   3.042  13.751 -0.8838  0.8300  0.3416
 6644TIP3    H141347   3.378   3.068  13.820 -1.8438  0.5130 -0.3644
 6644TIP3    H241348   3.526   3.053  13.790 -1.3079 -3.5077  3.1941
 6645TIP3   OH241349   1.581   5.380  13.781 -0.1773  0.4847 -0.2039
 6645TIP3    H141350   1.634   5.424  13.847 -0.7635  1.1016 -0.1327
 6645TIP3    H241351   1.546   5.451  13.727  2.1339 -0.0693 -2.6724
 6646TIP3   OH241352   6.252   4.016   1.703 -0.1412 -0.4163  0.7031
 6646TIP3    H141353   6.264   4.101   1.661  0.6522 -0.5009  0.7469
 6646TIP3    H241354   6.332   4.002   1.753  0.1865 -1.6526 -0.1085
 6647TIP3   OH241355   4.793   2.038   1.073 -0.2241 -0.1660  0.2986
 6647TIP3    H141356   4.804   2.117   1.126 -0.2502 -1.0553  1.6709
 6647TIP3    H241357   4.701   2.015   1.081  0.0967 -1.2251  1.2504
 6648TIP3   OH241358   4.591   6.643  13.140 -0.3605 -0.5375  0.6396
 6648TIP3    H141359   4.563   6.704  13.071  1.3144  2.0593  2.1148
 6648TIP3    H241360   4.513   6.632  13.194 -0.6931  0.3713  0.3716
 6649TIP3   OH241361   2.671   5.376  14.692 -0.0876  0.3772 -0.7206
 6649TIP3    H141362   2.654   5.300  14.637 -0.4042  0.6150 -0.9538
 6649TIP3    H241363   2.594   5.432  14.680 -0.3735  0.2257  0.3051
 6650TIP3   OH241364   0.408   4.074  15.035  0.3461 -0.2515  0.3942
 6650TIP3    H141365   0.465   4.094  14.961  0.7262 -1.1813  0.4171
 6650TIP3    H241366   0.442   4.127  15.107 -1.4411  2.4666 -0.6201
 6651TIP3   OH241367   6.014   6.334   1.853  0.1442  0.5121  0.3922
 6651TIP3    H141368   6.067   6.390   1.797 -0.5877  0.3184 -0.5146
 6651TIP3    H241369   5.966   6.395   1.910 -0.2640  0.7868 -0.2408
 6652TIP3   OH241370   1.855   0.330  12.684 -0.3931  0.5029 -0.0774
 6652TIP3    H141371   1.934   0.276  12.675 -0.2065  0.8183 -0.3503
 6652TIP3    H241372   1.803   0.285  12.751  0.0539  0.3417  0.1666
 6653TIP3   OH241373   1.688   3.335   1.640 -0.4847  0.3762  0.4565
 6653TIP3    H141374   1.704   3.321   1.547 -0.4229  0.6379  0.4293
 6653TIP3    H241375   1.634   3.260   1.666  1.3862 -0.9473  0.7295
 6654TIP3   OH241376   0.698   2.420  16.646  0.0205  0.0256  0.3297
 6654TIP3    H141377   0.766   2.401  16.711 -0.4077  0.0807  0.7976
 6654TIP3    H241378   0.739   2.397  16.562  0.1954 -1.1288  0.7054
 6655TIP3   OH241379   2.593   0.607  16.757  0.0650  0.2119 -0.5278
 6655TIP3    H141380   2.513   0.627  16.709 -0.8128  0.5442  1.0213
 6655TIP3    H241381   2.564   0.573  16.841  1.5610 -0.5086 -0.2579
 6656TIP3   OH241382   0.210   6.105  12.077 -0.5934  0.0165  0.1047
 6656TIP3    H141383   0.139   6.060  12.031  0.7355 -0.4500 -1.5873
 6656TIP3    H241384   0.166   6.162  12.140 -2.4062 -1.5532  0.3295
 6657TIP3   OH241385   2.352   5.687  13.669 -0.7527  0.6439  0.2786
 6657TIP3    H141386   2.434   5.703  13.716 -0.8553  4.4644 -0.5564
 6657TIP3    H241387   2.348   5.756  13.603 -2.4846 -2.1955 -2.8919
 6658TIP3   OH241388   0.012   6.401   1.165  0.0661  0.2495  0.4660
 6658TIP3    H141389  -0.024   6.447   1.090  1.2683  0.9455  0.2919
 6658TIP3    H241390   0.016   6.309   1.138  1.1390  0.5945 -0.5796
 6659TIP3   OH241391   6.411   3.615   3.530  0.5699 -0.0142 -0.5780
 6659TIP3    H141392   6.483   3.656   3.579 -0.6422 -0.4796  1.7303
 6659TIP3    H241393   6.436   3.625   3.438  2.6706  1.4861  0.0774
 6660TIP3   OH241394   1.434   1.223  10.607 -0.0403 -0.2592 -0.5772
 6660TIP3    H141395   1.520   1.196  10.638 -0.8485  0.1452  2.4346
 6660TIP3    H241396   1.374   1.157  10.642 -1.0236 -0.2438 -2.1583
 6661TIP3   OH241397   2.903   5.358  15.185  0.1928  0.1149 -0.0761
 6661TIP3    H141398   2.879   5.307  15.108 -0.2315  2.4823 -1.5997
 6661TIP3    H241399   2.855   5.440  15.176 -1.1702 -0.0718  3.5558
 6662TIP3   OH241400   1.251   6.428  14.036 -0.0236  0.5196 -0.2397
 6662TIP3    H141401   1.320   6.371  14.004  0.6632  0.2987  1.5330
 6662TIP3    H241402   1.194   6.442  13.960  1.9490  0.7290 -1.7650
 6663TIP3   OH241403   6.120   1.479  16.565  0.4612  0.1805  0.1989
 6663TIP3    H141404   6.042   1.528  16.541 -0.7227 -2.0130 -0.7449
 6663TIP3    H241405   6.162   1.457  16.482  2.2047  1.4166  0.6884
 6664TIP3   OH241406   2.022   0.954   2.139 -0.2288  0.1280  0.1360
 6664TIP3    H141407   2.096   0.895   2.155  0.8745  1.1662 -0.8748
 6664TIP3    H241408   1.956   0.899   2.097  1.1587 -0.2323 -1.7014
 6665TIP3   OH241409   6.124   4.794   5.091  0.0830 -0.4677  0.3516
 6665TIP3    H141410   6.155   4.730   5.027 -0.9412 -2.0301  1.3391
 6665TIP3    H241411   6.116   4.876   5.042  1.0826 -1.1642 -1.0476
 6666TIP3   OH241412   5.567   6.666  16.446  0.6755  0.1807 -0.1511
 6666TIP3    H141413   5.548   6.574  16.465  2.2080 -0.0980  0.1477
 6666TIP3    H241414   5.589   6.705  16.530  0.2456  0.7911 -0.3063
 6667TIP3   OH241415   0.594   3.527   2.011 -0.0223  0.1199 -0.0131
 6667TIP3    H141416   0.505   3.522   1.976 -0.3199 -2.6620  0.9511
 6667TIP3    H241417   0.582   3.547   2.104  0.2414 -1.5450  0.4049
 6668TIP3   OH241418   2.131   3.271  14.488  0.3923  0.4052 -0.7498
 6668TIP3    H141419   2.086   3.341  14.535 -0.7153 -2.1517  2.4202
 6668TIP3    H241420   2.222   3.275  14.520  0.0992 -0.1169  0.2074
 6669TIP3   OH241421   3.718   0.892  16.935 -0.0821  0.4799  0.1483
 6669TIP3    H141422   3.696   0.985  16.944  0.8001  0.7445 -0.2762
 6669TIP3    H241423   3.722   0.878  16.840 -1.1365 -0.2295  0.1986
 6670TIP3   OH241424   5.101   1.325  12.126 -0.6541  0.6828 -0.3978
 6670TIP3    H141425   5.026   1.280  12.165 -1.2100 -0.0676 -2.2047
 6670TIP3    H241426   5.109   1.406  12.175 -0.8875 -0.4672  1.6417
 6671TIP3   OH241427   6.494   6.677  15.736 -0.1950  0.1398  0.3411
 6671TIP3    H141428   6.577   6.724  15.736 -0.4444  0.5955 -0.7956
 6671TIP3    H241429   6.513   6.595  15.783  0.8120  0.3673  0.3448
 6672TIP3   OH241430   0.040   3.313  12.189 -0.1514 -0.2791 -0.4319
 6672TIP3    H141431   0.002   3.266  12.115 -0.2227  2.3201 -2.2160
 6672TIP3    H241432  -0.034   3.332  12.246 -0.1180 -2.1973  0.3219
 6673TIP3   OH241433   0.546   2.214  16.815 -0.0453  0.1582  0.1172
 6673TIP3    H141434   0.602   2.177  16.883 -0.3706  0.1960  0.4102
 6673TIP3    H241435   0.577   2.175  16.734 -0.4704 -0.8764  0.4378
 6674TIP3   OH241436   6.487   4.213   3.121  0.3402  0.1486 -0.2805
 6674TIP3    H141437   6.539   4.153   3.174 -0.4115  0.4665  0.8557
 6674TIP3    H241438   6.398   4.205   3.156  0.3401  2.4269  0.3883
 6675TIP3   OH241439   5.444   1.187   4.217  0.2688 -0.1313  0.2216
 6675TIP3    H141440   5.514   1.164   4.156  0.7412  1.3011  0.1862
 6675TIP3    H241441   5.482   1.173   4.304  0.0387 -0.8931  0.2110
 6676TIP3   OH241442   3.107   2.091  11.289 -0.0766  0.7574  0.1497
 6676TIP3    H141443   3.069   2.053  11.368  1.2142  1.5693  1.2052
 6676TIP3    H241444   3.080   2.183  11.291  1.6507  1.2946  0.7951
 6677TIP3   OH241445   2.507   1.540   2.556  0.2927 -0.4024 -0.0009
 6677TIP3    H141446   2.527   1.452   2.590  1.2801  0.8654  2.9855
 6677TIP3    H241447   2.466   1.586   2.629 -0.5435  1.5740 -1.6071
 6678TIP3   OH241448   2.763   0.918   0.327  0.2835 -0.3025  0.0188
 6678TIP3    H141449   2.762   0.998   0.274  2.3641 -0.1154  0.1872
 6678TIP3    H241450   2.819   0.858   0.279  0.5861 -0.8496  1.0264
 6679TIP3   OH241451   4.071   5.551   0.314  0.0383  0.0262  0.0762
 6679TIP3    H141452   4.094   5.534   0.223 -0.5284  1.7316 -0.4230
 6679TIP3    H241453   4.051   5.464   0.350  1.4079 -0.8101 -1.0739
 6680TIP3   OH241454   1.713   1.950  12.727 -0.1203 -0.5510  0.0566
 6680TIP3    H141455   1.709   1.910  12.640 -0.4137  0.5148 -0.4392
 6680TIP3    H241456   1.643   1.907  12.777 -1.5098  0.4407 -0.9573
 6681TIP3   OH241457   4.439   0.913   4.810  0.2595  0.1285 -0.5945
 6681TIP3    H141458   4.352   0.931   4.845  1.1789  1.3199  1.2035
 6681TIP3    H241459   4.488   0.995   4.820  1.1103  0.0633 -3.2680
 6682TIP3   OH241460   6.166   5.356  16.241 -0.1873 -0.4729 -0.5140
 6682TIP3    H141461   6.206   5.438  16.270  0.7030 -1.7348  2.0918
 6682TIP3    H241462   6.073   5.377  16.232  0.0721  0.9117 -0.2399
 6683TIP3   OH241463   5.586   1.462   3.260  0.5334  0.2986  0.1432
 6683TIP3    H141464   5.514   1.522   3.280  0.2142  0.3112 -0.9946
 6683TIP3    H241465   5.608   1.479   3.169  0.1728 -1.5697 -0.3430
 6684TIP3   OH241466   6.650   3.787  16.007  0.5784  0.5093 -0.6886
 6684TIP3    H141467   6.613   3.740  16.081  0.7984  0.5407 -0.5598
 6684TIP3    H241468   6.656   3.722  15.937 -0.0239  0.5780 -0.8156
 6685TIP3   OH241469   4.055   2.031   0.259 -0.1996  0.0736  0.1454
 6685TIP3    H141470   4.072   2.118   0.222  0.7228  0.0827  0.5765
 6685TIP3    H241471   4.059   1.972   0.184  0.1630  0.2769  0.0040
 6686TIP3   OH241472   5.589   5.858   1.434 -0.5110 -0.5299 -0.2227
 6686TIP3    H141473   5.593   5.944   1.393  0.1466 -0.4100  0.0714
 6686TIP3    H241474   5.660   5.809   1.392 -0.4473 -0.7091  0.0915
 6687TIP3   OH241475   0.398   3.085  12.444  0.3087 -0.1287  0.0171
 6687TIP3    H141476   0.340   3.098  12.369  0.0450 -1.7278 -0.0915
 6687TIP3    H241477   0.418   3.174  12.474  1.7566  0.6806 -2.9289
 6688TIP3   OH241478   0.216   0.109   2.909 -0.3153 -0.6221 -0.4738
 6688TIP3    H141479   0.245   0.021   2.887  0.3758 -0.2904 -0.9124
 6688TIP3    H241480   0.147   0.128   2.845  1.7843  0.3929 -2.5632
 6689TIP3   OH241481   2.362   2.405   0.232  0.0238  0.2592 -0.2005
 6689TIP3    H141482   2.356   2.331   0.171  1.8919  0.0075 -0.1286
 6689TIP3    H241483   2.283   2.456   0.215 -0.5938 -0.9849 -1.2615
 6690TIP3   OH241484   4.194   6.616  16.071 -0.4089  0.3476  0.0704
 6690TIP3    H141485   4.150   6.573  15.997 -0.9799  2.3927 -0.8591
 6690TIP3    H241486   4.280   6.641  16.037  0.2165 -0.6842  0.8397
 6691TIP3   OH241487   1.074   0.688  12.555  0.1299  1.0637 -0.1832
 6691TIP3    H141488   1.063   0.773  12.512  0.4173  0.8797 -0.6239
 6691TIP3    H241489   1.081   0.625  12.483 -0.1341  0.6574  0.1406
 6692TIP3   OH241490   4.134   2.801   4.611 -0.4605  0.5717  0.3925
 6692TIP3    H141491   4.120   2.800   4.516  0.8869  0.1551  0.1773
 6692TIP3    H241492   4.218   2.845   4.622  0.2618 -0.9612  1.2529
 6693TIP3   OH241493   4.237   0.316  12.958 -0.2900  0.2186  0.5432
 6693TIP3    H141494   4.222   0.322  12.864 -0.0479  0.4554  0.5167
 6693TIP3    H241495   4.332   0.307  12.967 -0.2277  1.0394  0.7967
 6694TIP3   OH241496   6.779   3.333   3.732  0.5880  0.9380 -0.4886
 6694TIP3    H141497   6.847   3.328   3.665  0.5461  1.4585 -0.5777
 6694TIP3    H241498   6.797   3.415   3.779 -0.5813  1.6267 -1.1813
 6695TIP3   OH241499   0.485   1.939  13.163  0.0430 -0.3027 -0.1294
 6695TIP3    H141500   0.469   2.023  13.205 -2.1622  0.2042 -1.8306
 6695TIP3    H241501   0.450   1.875  13.226  0.7870  0.0894  0.7081
 6696TIP3   OH241502   3.068   3.238  12.284  0.6121  0.0043  0.6524
 6696TIP3    H141503   3.112   3.317  12.314 -0.6430  0.8122  0.4429
 6696TIP3    H241504   2.978   3.247  12.314  0.2096 -0.8904 -0.1971
 6697TIP3   OH241505   2.354   1.655  16.835 -0.1244 -0.7595 -0.3568
 6697TIP3    H141506   2.365   1.596  16.910 -2.4085 -0.3693  0.3528
 6697TIP3    H241507   2.307   1.602  16.770 -0.4069 -0.3235 -0.5081
 6698TIP3   OH241508   2.207   2.944  11.373 -0.0388 -0.2552 -0.2403
 6698TIP3    H141509   2.137   3.006  11.356  0.6422  0.2761 -1.1735
 6698TIP3    H241510   2.262   2.947  11.295  1.8036  0.3978  1.0072
 6699TIP3   OH241511   3.612   1.067   4.157  0.0815  0.5479 -0.0994
 6699TIP3    H141512   3.571   0.984   4.133  0.5701  0.2433  0.1236
 6699TIP3    H241513   3.555   1.133   4.117 -0.8869  0.1516  0.5834
 6700TIP3   OH241514   4.993   4.890   5.210 -0.2400  0.0553 -0.4228
 6700TIP3    H141515   5.080   4.888   5.170 -0.4216  3.1089 -1.2083
 6700TIP3    H241516   5.008   4.868   5.302  1.6370  1.9466 -0.2157
 6701TIP3   OH241517   6.790   4.391   4.060  0.0769  0.4848 -0.4962
 6701TIP3    H141518   6.848   4.466   4.075 -1.0390  1.4994 -1.0872
 6701TIP3    H241519   6.842   4.315   4.085  1.2687  1.4480  0.0492
 6702TIP3   OH241520   6.144   1.928   0.606 -0.2780 -0.1224 -0.1644
 6702TIP3    H141521   6.077   1.864   0.627 -0.2996  0.5266  1.9427
 6702TIP3    H241522   6.226   1.888   0.636 -0.2326  0.6226  0.7370
 6703TIP3   OH241523   1.274   2.330  13.185  0.0226 -0.2435 -0.0115
 6703TIP3    H141524   1.308   2.384  13.113  1.2671 -1.7610 -0.6016
 6703TIP3    H241525   1.270   2.242  13.150 -0.5904 -0.8019  1.3851
 6704TIP3   OH241526   1.790   3.274   1.396  0.0620  0.4375  0.4399
 6704TIP3    H141527   1.847   3.219   1.342  0.0616 -0.8943  1.7347
 6704TIP3    H241528   1.708   3.280   1.346 -0.5697 -2.2507  0.9874
 6705TIP3   OH241529   3.987   3.933   6.243  0.1755 -0.5158 -0.2242
 6705TIP3    H141530   3.987   3.853   6.296 -1.3548 -0.1117  0.4541
 6705TIP3    H241531   4.000   4.004   6.306  0.9573 -0.1814 -0.7483
 6706TIP3   OH241532   2.821   0.930  14.212 -0.0687 -0.0766  0.1881
 6706TIP3    H141533   2.824   1.026  14.205  0.9212 -0.1556 -0.8351
 6706TIP3    H241534   2.909   0.906  14.241 -0.9138 -0.5675  2.5100
 6707TIP3   OH241535   4.937   0.628  12.220 -0.1423 -0.2989 -0.7730
 6707TIP3    H141536   4.875   0.613  12.292 -0.8795  0.9824 -1.1011
 6707TIP3    H241537   4.936   0.547  12.170 -1.3008 -0.4264 -0.5723
 6708TIP3   OH241538   5.081   0.574  11.815  0.3098  0.0224 -0.2030
 6708TIP3    H141539   5.036   0.515  11.755  0.5075  1.3296 -1.6893
 6708TIP3    H241540   5.011   0.627  11.853  0.2715 -0.2358  0.0924
 6709TIP3   OH241541   2.977   0.910  11.304 -0.2376 -0.2476  0.0673
 6709TIP3    H141542   2.916   0.867  11.244  0.6747 -1.0863 -0.2851
 6709TIP3    H241543   2.939   0.895  11.391  0.1845 -2.0597 -0.0093
 6710TIP3   OH241544   3.647   4.647  16.356 -0.4478 -0.0071 -0.2239
 6710TIP3    H141545   3.658   4.570  16.300 -0.0805  1.3925 -2.1975
 6710TIP3    H241546   3.708   4.633  16.428  1.0636 -0.6995 -1.5617
 6711TIP3   OH241547   0.119   0.851   3.545  0.1164  0.4951  0.3563
 6711TIP3    H141548   0.082   0.782   3.600 -0.6350  1.1535  0.6904
 6711TIP3    H241549   0.044   0.903   3.517  0.5189  0.4136 -0.9874
 6712TIP3   OH241550   2.168   5.980  15.203 -0.0228  0.6150 -0.2114
 6712TIP3    H141551   2.091   6.031  15.229 -0.0595  0.1062  0.7136
 6712TIP3    H241552   2.147   5.890  15.226  0.6254  0.3853 -0.4754
 6713TIP3   OH241553   0.892   2.878   1.105  0.1516  0.3918  0.3290
 6713TIP3    H141554   0.828   2.807   1.116 -0.5104  0.7650 -0.9452
 6713TIP3    H241555   0.891   2.924   1.189 -0.6140 -0.1283  0.6213
 6714TIP3   OH241556   3.002   0.910  15.435  0.0908  0.0853 -0.1724
 6714TIP3    H141557   3.008   0.983  15.497  0.9685 -0.0980 -0.0237
 6714TIP3    H241558   3.061   0.843  15.471  0.0331 -0.3194 -0.8115
 6715TIP3   OH241559   2.189   6.385   5.838 -0.4205  0.3569 -0.4453
 6715TIP3    H141560   2.259   6.403   5.900 -1.7881 -0.7136  1.5348
 6715TIP3    H241561   2.164   6.294   5.855 -3.2160  1.0939 -0.0286
 6716TIP3   OH241562   6.511   0.483   5.167  0.5764 -0.4374 -0.2042
 6716TIP3    H141563   6.439   0.545   5.150 -0.7419 -1.5596  1.0600
 6716TIP3    H241564   6.519   0.433   5.086 -1.9889 -2.1347  0.4848
 6717TIP3   OH241565   4.628   4.836  14.261 -0.4905 -0.1165 -0.7124
 6717TIP3    H141566   4.692   4.768  14.239  0.5795  0.6613 -0.0868
 6717TIP3    H241567   4.640   4.852  14.355 -0.9027  0.7550 -0.7919
 6718TIP3   OH241568   1.146   0.873  17.158  0.0663 -0.1000  0.0993
 6718TIP3    H141569   1.146   0.960  17.118  2.4995 -0.5085 -0.9646
 6718TIP3    H241570   1.074   0.827  17.115 -0.1215  0.8396 -0.6152
 6719TIP3   OH241571   3.827   0.820   3.895 -0.1855 -0.0824 -0.0222
 6719TIP3    H141572   3.757   0.770   3.936  0.4843 -2.2102 -1.3024
 6719TIP3    H241573   3.789   0.856   3.815 -0.3460  0.4379  0.2879
 6720TIP3   OH241574   5.473   4.629  14.249 -0.6229  0.1268 -0.2699
 6720TIP3    H141575   5.548   4.591  14.202 -1.1562 -0.7963 -0.3951
 6720TIP3    H241576   5.400   4.620  14.189 -0.3484  3.6422 -1.3433
 6721TIP3   OH241577   2.115   0.802  11.350 -0.3112 -0.0721 -0.2949
 6721TIP3    H141578   2.095   0.869  11.285 -0.8817  0.3608  0.3116
 6721TIP3    H241579   2.047   0.812  11.416 -0.9329 -1.8362 -0.6187
 6722TIP3   OH241580   6.537   5.403   4.232  0.2919  0.1179 -0.2339
 6722TIP3    H141581   6.478   5.336   4.199 -1.1264  1.5332 -0.7087
 6722TIP3    H241582   6.580   5.438   4.153 -0.7962  1.3912 -0.3009
 6723TIP3   OH241583   1.197   1.167  15.812 -0.2391  0.5223  0.1027
 6723TIP3    H141584   1.163   1.236  15.755 -1.1389 -0.7648 -1.0007
 6723TIP3    H241585   1.124   1.104  15.819  0.5046 -0.2604  1.1601
 6724TIP3   OH241586   1.407   5.258   3.470 -0.3069 -0.1446  0.2053
 6724TIP3    H141587   1.498   5.231   3.483  0.0957  0.5923 -0.9242
 6724TIP3    H241588   1.413   5.350   3.443 -1.4131  0.0109  0.4510
 6725TIP3   OH241589   2.918   2.692  16.388  0.1396  0.0094  0.6157
 6725TIP3    H141590   2.874   2.705  16.472  1.6156 -1.4335  1.6929
 6725TIP3    H241591   3.010   2.711  16.406  0.7473 -1.8575 -0.2099
 6726TIP3   OH241592   1.112   1.039  10.992 -0.0855  0.1956 -0.5465
 6726TIP3    H141593   1.024   1.057  10.957 -0.3186  0.5893  0.2351
 6726TIP3    H241594   1.123   0.945  10.979 -1.4814 -0.2635  1.2242
 6727TIP3   OH241595   1.908   2.413  16.700  0.3596 -0.6109  0.4799
 6727TIP3    H141596   1.863   2.476  16.644 -0.8093 -0.6623  1.3252
 6727TIP3    H241597   1.964   2.364  16.640  1.0160  0.9575 -0.2520
 6728TIP3   OH241598   6.763   1.626  13.612  0.3619  0.4197 -0.4182
 6728TIP3    H141599   6.836   1.688  13.613  0.6557  0.0736  0.4610
 6728TIP3    H241600   6.723   1.634  13.699  0.7386 -1.0065 -0.0912
 6729TIP3   OH241601   6.130   3.098   1.375  0.3524  0.5660  0.4661
 6729TIP3    H141602   6.095   3.152   1.304  2.2226  1.4387  0.1510
 6729TIP3    H241603   6.138   3.159   1.449  0.1944  0.1075  0.8701
 6730TIP3   OH241604   3.299   2.533  16.044  0.2679 -0.0300 -0.4525
 6730TIP3    H141605   3.322   2.469  16.112  0.3593 -0.2612 -0.7030
 6730TIP3    H241606   3.204   2.535  16.044  0.1827  2.5256  2.1068
 6731TIP3   OH241607   3.239   2.727   1.878 -1.1958  0.1676 -0.7025
 6731TIP3    H141608   3.267   2.812   1.912 -1.2700 -0.3521  0.6900
 6731TIP3    H241609   3.144   2.736   1.866 -1.1953  0.2961 -0.6085
 6732TIP3   OH241610   0.053   2.611   4.011 -0.2161  0.1281 -0.4222
 6732TIP3    H141611   0.031   2.603   4.104  2.4443 -0.9793  0.2081
 6732TIP3    H241612   0.073   2.521   3.984 -1.4748  0.3562 -2.2459
 6733TIP3   OH241613   6.278   1.846  16.441 -0.4983  0.3587  0.1493
 6733TIP3    H141614   6.266   1.863  16.347 -0.0370  1.5372  0.2894
 6733TIP3    H241615   6.365   1.880  16.460 -0.6350  0.2179  1.0264
 6734TIP3   OH241616   0.421   2.847   2.451 -0.0408 -0.2556 -0.2319
 6734TIP3    H141617   0.476   2.817   2.524  1.4061  0.1564 -1.0911
 6734TIP3    H241618   0.382   2.929   2.483  0.4548 -0.1596  0.1559
 6735TIP3   OH241619   1.993   6.455   1.240  0.2889  0.3314 -0.2262
 6735TIP3    H141620   1.958   6.537   1.206 -1.8861 -0.3717  0.1825
 6735TIP3    H241621   1.974   6.457   1.333  0.0635 -0.6826 -0.2349
 6736TIP3   OH241622   6.176   1.555  14.558 -0.0159 -0.0244  0.4297
 6736TIP3    H141623   6.143   1.490  14.496 -1.0497 -0.1300  1.0655
 6736TIP3    H241624   6.266   1.570  14.531 -0.3728 -0.2177 -0.9786
 6737TIP3   OH241625   4.528   3.673  16.139 -0.9722 -0.3321  0.1643
 6737TIP3    H141626   4.570   3.614  16.077  0.1796  0.3225  0.3046
 6737TIP3    H241627   4.566   3.759  16.121 -1.4831  0.0836  0.9869
 6738TIP3   OH241628   2.453   3.123  16.443 -0.5899 -0.1556 -0.1155
 6738TIP3    H141629   2.403   3.191  16.487  0.3652  0.2231  0.4118
 6738TIP3    H241630   2.443   3.046  16.500 -1.0999 -0.2705 -0.3538
 6739TIP3   OH241631   4.327   1.749  12.347  0.9061  0.3068 -0.7308
 6739TIP3    H141632   4.235   1.776  12.348  0.7552 -0.2154 -0.2124
 6739TIP3    H241633   4.330   1.675  12.288  0.9404  0.1463 -0.5297
 6740TIP3   OH241634   3.347   5.956   5.291  0.3532 -0.5201 -0.2852
 6740TIP3    H141635   3.259   5.927   5.315  0.1914 -0.8181 -1.2052
 6740TIP3    H241636   3.359   5.925   5.201  0.1990  2.1550 -1.3331
 6741TIP3   OH241637   0.418   0.851   3.345  0.0191  0.0357 -0.8714
 6741TIP3    H141638   0.472   0.918   3.303 -0.0580  0.5604 -0.1542
 6741TIP3    H241639   0.481   0.796   3.393  0.0819 -0.4072 -1.4550
 6742TIP3   OH241640   0.073   0.562  13.406 -0.4160  0.5628  0.1126
 6742TIP3    H141641   0.038   0.609  13.482  0.0733  0.9963  0.0750
 6742TIP3    H241642   0.004   0.500  13.383  0.2426 -0.9889  2.1171
 6743TIP3   OH241643   2.099   6.348   2.365 -0.1647 -0.1654  0.3860
 6743TIP3    H141644   2.176   6.292   2.354 -0.2066 -0.8042  2.7181
 6743TIP3    H241645   2.026   6.294   2.335  0.0700 -0.4116  0.2533
 6744TIP3   OH241646   6.317   3.291   4.825  0.2577 -0.3401 -0.0506
 6744TIP3    H141647   6.261   3.277   4.749  0.0775  2.8582 -0.6465
 6744TIP3    H241648   6.406   3.285   4.791  0.2545 -1.4206  0.0761
 6745TIP3   OH241649   3.764   1.455  12.683  0.0286  0.6578  0.1715
 6745TIP3    H141650   3.723   1.396  12.620 -0.9195  0.4625  0.9507
 6745TIP3    H241651   3.810   1.519  12.629 -0.7737  0.5042 -0.7250
 6746TIP3   OH241652   3.448   3.934   3.176  0.4621 -0.5887 -0.1133
 6746TIP3    H141653   3.451   3.987   3.255  1.0135 -1.2276  0.3008
 6746TIP3    H241654   3.465   3.996   3.105 -0.8110  0.1345  0.1706
 6747TIP3   OH241655   4.057   1.124  14.330  0.5968  0.3232 -0.4717
 6747TIP3    H141656   4.039   1.032  14.350  2.6813  0.2191  1.1843
 6747TIP3    H241657   4.006   1.141  14.251 -1.6001 -1.6067  0.3940
 6748TIP3   OH241658   1.339   2.668  11.124  0.1355  0.3306 -0.4857
 6748TIP3    H141659   1.273   2.698  11.187 -0.4823  2.8759 -2.2008
 6748TIP3    H241660   1.419   2.712  11.151  0.6104 -0.9327  0.2283
 6749TIP3   OH241661   4.000   0.974   0.172  0.0900  0.0814  0.1572
 6749TIP3    H141662   4.036   1.041   0.114 -2.1610  0.4733 -0.8860
 6749TIP3    H241663   3.931   1.018   0.220 -1.3538 -1.4119 -0.4476
 6750TIP3   OH241664   1.305   2.684  10.843 -0.2088  0.0301 -0.4374
 6750TIP3    H141665   1.387   2.669  10.796 -0.7784 -3.6355 -0.5452
 6750TIP3    H241666   1.322   2.653  10.932 -1.2722 -0.1888 -0.2947
 6751TIP3   OH241667   3.040   2.537  16.762 -0.5459 -0.4846  0.7537
 6751TIP3    H141668   2.945   2.545  16.759 -0.5268 -0.6777 -1.0116
 6751TIP3    H241669   3.067   2.602  16.826 -1.6119  2.0787 -1.2423
 6752TIP3   OH241670   4.286   1.762   3.143  0.3203 -0.5184  0.0401
 6752TIP3    H141671   4.338   1.804   3.074 -0.9281  0.8328 -0.1280
 6752TIP3    H241672   4.270   1.832   3.207 -1.0326 -0.9635  0.2164
 6753TIP3   OH241673   2.531   5.956  11.086  0.2355 -0.5767 -0.1986
 6753TIP3    H141674   2.450   5.988  11.045  0.6826  0.7224 -0.1000
 6753TIP3    H241675   2.522   5.860  11.085 -0.6228 -0.5001 -1.5603
 6754TIP3   OH241676   6.320   2.797   2.883 -0.3506  0.5442  0.7641
 6754TIP3    H141677   6.341   2.759   2.969 -0.4584 -0.0295  0.5463
 6754TIP3    H241678   6.336   2.725   2.822 -1.0413  0.7066  0.3888
 6755TIP3   OH241679   2.936   2.677  15.696 -0.5000 -0.2315 -0.3198
 6755TIP3    H141680   3.028   2.656  15.680 -0.1417  0.1866  1.0790
 6755TIP3    H241681   2.936   2.729  15.776 -1.6813  2.4156 -1.9272
 6756TIP3   OH241682   3.958   5.891   0.498  0.0140 -0.2481  0.0256
 6756TIP3    H141683   3.903   5.818   0.468  0.8990 -0.4503 -1.1647
 6756TIP3    H241684   3.912   5.969   0.469 -0.5929 -0.3314  0.7119
 6757TIP3   OH241685   3.294   2.738  16.745  0.3215 -0.0294  0.3815
 6757TIP3    H141686   3.251   2.669  16.696  1.3392 -0.4287  0.0213
 6757TIP3    H241687   3.226   2.774  16.801 -0.3316 -1.0293  0.2528
 6758TIP3   OH241688   2.116   2.900   5.709  0.6723  0.1829  0.1298
 6758TIP3    H141689   2.167   2.963   5.759 -0.8958  0.7854  1.0614
 6758TIP3    H241690   2.128   2.927   5.617  0.4865  1.5228  0.4692
 6759TIP3   OH241691   5.440   6.406  14.368  0.0339  0.2475  0.0054
 6759TIP3    H141692   5.406   6.359  14.443 -0.4611  1.0151  0.2731
 6759TIP3    H241693   5.363   6.438  14.322  0.3547  0.7188 -0.2166
 6760TIP3   OH241694   0.855   5.881  15.669  0.3165 -0.5859  0.3869
 6760TIP3    H141695   0.781   5.857  15.614 -0.6285  0.7806  0.9863
 6760TIP3    H241696   0.933   5.864  15.616 -0.5299 -0.0913 -1.0515
 6761TIP3   OH241697   0.158   1.061  15.933 -0.3927 -0.0333  0.6108
 6761TIP3    H141698   0.214   1.125  15.975  0.2409  0.1684 -0.5051
 6761TIP3    H241699   0.216   1.013  15.875 -1.3951  0.3291 -0.7346
 6762TIP3   OH241700   1.398   0.249  16.073 -0.3003  0.2548 -0.3661
 6762TIP3    H141701   1.361   0.269  16.160 -0.2877 -0.3076 -0.2308
 6762TIP3    H241702   1.386   0.155  16.063  0.4422  0.1825 -0.6299
 6763TIP3   OH241703   4.649   2.503  13.143  0.2754 -0.0583 -0.1891
 6763TIP3    H141704   4.605   2.523  13.061 -1.5562 -1.0955  0.4803
 6763TIP3    H241705   4.652   2.408  13.146 -0.7870 -0.0774  1.4631
 6764TIP3   OH241706   5.805   5.427   5.166  0.2485 -0.7045 -0.2223
 6764TIP3    H141707   5.716   5.462   5.155  0.3811 -0.2017  0.2524
 6764TIP3    H241708   5.822   5.380   5.085 -0.2140 -0.2688 -0.5827
 6765TIP3   OH241709   5.689   4.245   5.727  0.1939 -0.8591 -0.3903
 6765TIP3    H141710   5.770   4.267   5.681  0.0939 -2.2282 -1.2690
 6765TIP3    H241711   5.663   4.160   5.692 -2.2450  0.0385 -0.9620
 6766TIP3   OH241712   1.892   5.660  14.688  0.1315  0.5712 -0.8857
 6766TIP3    H141713   1.848   5.575  14.695 -0.5649  0.9909  0.2664
 6766TIP3    H241714   1.820   5.723  14.681  0.4527  1.3305  1.6751
 6767TIP3   OH241715   4.922   6.345   3.643  0.1776  0.0892  0.3114
 6767TIP3    H141716   4.963   6.305   3.566  2.0011  2.5872 -0.1607
 6767TIP3    H241717   4.933   6.280   3.713 -1.0936 -2.0356 -1.3409
 6768TIP3   OH241718   5.145   4.815   0.826 -0.2284  0.1933  0.0969
 6768TIP3    H141719   5.235   4.825   0.857  1.0856 -3.0898 -2.0908
 6768TIP3    H241720   5.138   4.874   0.752  0.6724 -0.5272 -0.5916
 6769TIP3   OH241721   0.945   2.820  13.230 -0.3027 -0.0634 -0.5218
 6769TIP3    H141722   0.938   2.770  13.148  1.9905 -1.3482 -0.0179
 6769TIP3    H241723   0.868   2.794  13.280 -0.3507 -1.3432 -1.2116
 6770TIP3   OH241724   0.893   4.749   0.872  0.2164 -0.3155 -0.0969
 6770TIP3    H141725   0.918   4.805   0.799  0.8251  1.0062  1.0585
 6770TIP3    H241726   0.974   4.705   0.897 -0.0077 -0.8277 -0.2776
 6771TIP3   OH241727   2.488   5.837   5.493 -0.6055 -0.0579  0.0614
 6771TIP3    H141728   2.554   5.858   5.426  0.1581 -0.7132  0.5873
 6771TIP3    H241729   2.469   5.921   5.535  1.5455 -0.1682  1.3681
 6772TIP3   OH241730   1.037   2.234  14.666  0.7415  0.0678 -0.1200
 6772TIP3    H141731   1.001   2.316  14.633  1.3924  0.2922 -0.2771
 6772TIP3    H241732   1.062   2.253  14.756 -1.0365 -0.5452  0.5444
 6773TIP3   OH241733   3.112   4.139  12.772  0.7320  0.3260  0.4361
 6773TIP3    H141734   3.019   4.163  12.773  1.1158  1.8990  0.2797
 6773TIP3    H241735   3.149   4.182  12.848  0.8735 -2.5234  2.1312
 6774TIP3   OH241736   3.654   4.933  16.357 -0.0607  0.0389 -0.1985
 6774TIP3    H141737   3.726   4.966  16.303 -0.0161 -0.1970 -0.2834
 6774TIP3    H241738   3.648   4.840  16.335 -0.3414  0.0413 -0.1339
 6775TIP3   OH241739   2.751   2.405  13.524  0.5758 -0.0506  0.1790
 6775TIP3    H141740   2.737   2.456  13.445 -0.6343  0.1258  0.4800
 6775TIP3    H241741   2.787   2.322  13.494  0.6092  0.2062 -0.5021
 6776TIP3   OH241742   4.270   4.383   4.283 -0.0035 -0.9539  0.3968
 6776TIP3    H141743   4.245   4.467   4.245  0.0981 -0.2994  1.7215
 6776TIP3    H241744   4.192   4.328   4.276 -0.5768 -0.2162  0.9754
 6777TIP3   OH241745   5.592   0.247  13.878  0.2397 -0.6224 -0.3431
 6777TIP3    H141746   5.576   0.254  13.972  1.3706 -0.9378 -0.1165
 6777TIP3    H241747   5.505   0.234  13.840 -0.2472 -0.3089  0.6366
 6778TIP3   OH241748   0.716   3.766  12.985 -0.5320 -0.6556  0.0213
 6778TIP3    H141749   0.645   3.778  13.048 -1.5333 -2.5146 -0.6870
 6778TIP3    H241750   0.783   3.717  13.034 -1.7630 -3.0659 -0.5682
 6779TIP3   OH241751   3.658   2.901   3.279  0.2893 -0.5272 -0.0288
 6779TIP3    H141752   3.596   2.968   3.252  2.1154  1.1814 -0.2533
 6779TIP3    H241753   3.684   2.926   3.367  1.9727 -0.1334 -0.5996
 6780TIP3   OH241754   3.729   2.071  11.962 -0.3688 -0.0507 -0.5488
 6780TIP3    H141755   3.705   2.157  11.929 -1.5297 -0.4539 -0.7680
 6780TIP3    H241756   3.646   2.028  11.982  0.2057 -1.0113 -0.1532
 6781TIP3   OH241757   4.343   2.921  15.997 -0.8828  0.1702  0.3974
 6781TIP3    H141758   4.298   3.000  15.969  1.0858  0.8977 -0.9570
 6781TIP3    H241759   4.436   2.945  15.997 -0.3085 -1.8340  0.9976
 6782TIP3   OH241760   4.420   6.318  14.613 -0.2068 -0.2282 -0.4591
 6782TIP3    H141761   4.462   6.317  14.527 -0.7504 -1.4765 -0.7402
 6782TIP3    H241762   4.387   6.229  14.624  2.0184 -0.8732  2.1228
 6783TIP3   OH241763   2.765   0.529  15.881  0.1532 -0.3821  0.3539
 6783TIP3    H141764   2.749   0.456  15.821 -0.9277  0.8517 -0.9344
 6783TIP3    H241765   2.827   0.585  15.833 -0.1736  0.2666  0.6840
 6784TIP3   OH241766   5.788   4.703  15.336  0.3984  0.6099  0.1978
 6784TIP3    H141767   5.785   4.662  15.250  0.2361  1.4346 -0.1967
 6784TIP3    H241768   5.709   4.758  15.340 -0.4284 -0.6128  1.4853
 6785TIP3   OH241769   0.322   1.100  16.744 -0.0618 -0.4325 -0.5134
 6785TIP3    H141770   0.378   1.027  16.772  1.1918  0.8102  0.3366
 6785TIP3    H241771   0.381   1.157  16.694 -0.5056  0.9974  0.5593
 6786TIP3   OH241772   0.118   1.705  14.210 -0.1585 -0.2467  0.4498
 6786TIP3    H141773   0.151   1.623  14.172  0.7720  0.8593 -1.2554
 6786TIP3    H241774   0.051   1.735  14.149  0.7590  1.1238  0.0465
 6787TIP3   OH241775   3.318   2.473   1.801  0.1209 -0.6269  0.5204
 6787TIP3    H141776   3.390   2.462   1.863  0.9759 -0.3127 -0.3834
 6787TIP3    H241777   3.299   2.567   1.802  1.4817 -0.2735 -1.0845
 6788TIP3   OH241778   0.052   0.344   6.347  0.4626 -0.5102 -0.3091
 6788TIP3    H141779   0.078   0.332   6.256  1.0514 -0.0848 -0.2001
 6788TIP3    H241780   0.073   0.261   6.389  3.9647  0.5334  0.3115
 6789TIP3   OH241781   1.167   6.211   1.606  0.5320 -0.0754 -0.4028
 6789TIP3    H141782   1.254   6.246   1.585  0.2378  1.2646  0.4735
 6789TIP3    H241783   1.108   6.283   1.586 -0.6478 -1.6093 -2.8759
 6790TIP3   OH241784   2.101   5.336  11.400  0.2528 -0.0636 -0.1759
 6790TIP3    H141785   2.040   5.387  11.453  0.4263 -0.3456  0.3021
 6790TIP3    H241786   2.065   5.248  11.400 -2.8906  0.8169 -5.1333
 6791TIP3   OH241787   0.815   3.823   6.351  0.1909  0.0134  0.3480
 6791TIP3    H141788   0.723   3.830   6.376 -0.0728  0.9400 -0.7656
 6791TIP3    H241789   0.862   3.873   6.417 -0.1594 -0.0233  0.6266
 6792TIP3   OH241790   0.073   6.019   4.921 -0.0172 -0.0893  0.6089
 6792TIP3    H141791   0.031   6.062   4.846 -0.6463 -1.1526  0.3291
 6792TIP3    H241792   0.101   6.091   4.977  0.2342  0.7224 -0.5162
 6793TIP3   OH241793   5.713   0.451   0.869  0.4042  0.1036 -0.2052
 6793TIP3    H141794   5.658   0.415   0.938 -0.2347  0.6571 -0.4087
 6793TIP3    H241795   5.684   0.406   0.789  1.7864 -1.2251  0.0076
 6794TIP3   OH241796   2.888   1.791   3.778 -0.3168 -0.3185 -0.3050
 6794TIP3    H141797   2.974   1.774   3.815 -1.1080 -1.5926  1.0791
 6794TIP3    H241798   2.890   1.883   3.754  0.9160  0.0863  1.1698
 6795TIP3   OH241799   1.151   4.225  14.767 -0.3128 -0.0924 -0.1823
 6795TIP3    H141800   1.209   4.199  14.839  0.5536  0.3036 -0.7339
 6795TIP3    H241801   1.133   4.317  14.783 -0.3808 -0.0851 -0.3036
 6796TIP3   OH241802   3.697   0.365   0.207  0.5800 -0.3305  0.1920
 6796TIP3    H141803   3.624   0.414   0.168 -0.4596 -2.9573 -1.4132
 6796TIP3    H241804   3.671   0.352   0.298 -0.7033 -0.7270 -0.2127
 6797TIP3   OH241805   4.889   2.103  14.335  0.1041 -0.4390 -0.2940
 6797TIP3    H141806   4.942   2.087  14.413 -0.8994 -1.3175  0.2408
 6797TIP3    H241807   4.861   2.194  14.344 -1.3643 -0.9790  1.2902
 6798TIP3   OH241808   1.064   1.998   4.045  0.1693  0.2863  0.2688
 6798TIP3    H141809   0.987   1.968   3.997 -0.8262  1.3167  1.1415
 6798TIP3    H241810   1.128   1.927   4.036  0.3380  0.6860 -3.1346
 6799TIP3   OH241811   2.217   2.400  16.073 -0.5460 -0.6726 -0.2403
 6799TIP3    H141812   2.285   2.335  16.054  0.2489  0.8070 -3.0934
 6799TIP3    H241813   2.135   2.352  16.065  0.0273 -1.4732 -1.9374
 6800TIP3   OH241814   0.802   0.807   5.987  0.3004 -0.5652  0.2772
 6800TIP3    H141815   0.819   0.758   5.906 -1.0563  0.9062 -0.9577
 6800TIP3    H241816   0.863   0.881   5.983  1.6116 -1.5124  1.6258
 6801TIP3   OH241817   3.722   1.981  14.042  0.7017  0.1610 -0.2424
 6801TIP3    H141818   3.700   1.931  13.963  1.2399  0.0737 -0.3388
 6801TIP3    H241819   3.764   2.060  14.009 -1.7171  1.5539 -0.1865
 6802TIP3   OH241820   2.387   4.964   4.703  0.1609  0.1265 -0.0017
 6802TIP3    H141821   2.473   4.993   4.731  0.2023 -0.3034  0.3315
 6802TIP3    H241822   2.334   4.962   4.783 -0.3202  0.9360 -0.2946
 6803TIP3   OH241823   4.693   1.484  14.288  0.6611  0.4897  0.2003
 6803TIP3    H141824   4.645   1.452  14.211  0.2785  1.7179 -0.0943
 6803TIP3    H241825   4.627   1.487  14.358  1.0353 -0.7342  0.6260
 6804TIP3   OH241826   4.822   6.077  14.601  0.3848  0.2271  0.3309
 6804TIP3    H141827   4.783   6.133  14.668 -5.3972 -2.9435  0.3350
 6804TIP3    H241828   4.797   6.118  14.518  0.2741  0.0570  0.2799
 6805TIP3   OH241829   4.505   1.431  13.452 -0.1614  0.7140 -0.1497
 6805TIP3    H141830   4.463   1.357  13.495  2.1681 -1.5088 -1.4593
 6805TIP3    H241831   4.474   1.427  13.361 -0.9934  2.2116  0.0152
 6806TIP3   OH241832   5.522   0.189  12.800  0.1764  0.0649  0.2421
 6806TIP3    H141833   5.614   0.213  12.811  0.1037  1.3222 -1.5183
 6806TIP3    H241834   5.525   0.102  12.760  0.6614  0.4367 -0.5758
 6807TIP3   OH241835   1.832   3.112  16.453 -0.1601  0.4953 -0.1469
 6807TIP3    H141836   1.915   3.158  16.469  0.0800  0.8202 -2.1149
 6807TIP3    H241837   1.786   3.166  16.389 -1.4586 -0.2069  0.1594
 6808TIP3   OH241838   0.898   0.015  14.863  0.9966  0.2183  0.6593
 6808TIP3    H141839   0.814   0.041  14.823  1.3575  0.5960  0.1329
 6808TIP3    H241840   0.875  -0.058  14.919  0.0457  1.2532  1.6871
 6809TIP3   OH241841   5.402   5.275  12.812  0.4077 -0.4658  0.1849
 6809TIP3    H141842   5.321   5.228  12.835  0.1516  0.2343  0.7472
 6809TIP3    H241843   5.452   5.278  12.894  0.2063  0.6528  0.2839
 6810TIP3   OH241844   6.529   3.899  14.806  0.2715 -0.1748 -0.4411
 6810TIP3    H141845   6.462   3.866  14.866 -2.5638  2.4115 -1.8871
 6810TIP3    H241846   6.580   3.961  14.859 -0.1457 -0.2733  0.0878
 6811TIP3   OH241847   3.746   6.233   6.642  0.0202  0.5490 -1.0267
 6811TIP3    H141848   3.673   6.293   6.625 -0.4770 -0.1539 -1.4035
 6811TIP3    H241849   3.736   6.164   6.577 -0.6325 -1.0644  0.7046
 6812TIP3   OH241850   4.184   4.140  15.021  0.1187 -0.3606  0.0468
 6812TIP3    H141851   4.247   4.068  15.025  1.6002  0.9235  1.0384
 6812TIP3    H241852   4.119   4.112  14.957  1.7533 -1.6984 -1.0986
 6813TIP3   OH241853   0.615   5.188   3.624 -0.0404 -0.6393 -0.3474
 6813TIP3    H141854   0.624   5.094   3.607  0.0045 -1.0059  1.5012
 6813TIP3    H241855   0.686   5.208   3.685 -0.7557  0.3364  0.1870
 6814TIP3   OH241856   3.707   0.506  14.847  0.6752 -0.1323 -0.4523
 6814TIP3    H141857   3.652   0.556  14.908  1.2869 -0.3355  0.2855
 6814TIP3    H241858   3.796   0.521  14.879  1.0798  0.3712 -1.7607
 6815TIP3   OH241859   0.611   3.786   5.731 -0.0218 -0.0489  0.3002
 6815TIP3    H141860   0.655   3.855   5.781  1.7082 -0.7001 -0.2450
 6815TIP3    H241861   0.523   3.782   5.767  0.2389  1.5769  1.1972
 6816TIP3   OH241862   1.931   5.140   0.790 -0.3520  0.6892 -0.3500
 6816TIP3    H141863   1.848   5.130   0.835  0.7710  2.0124  2.2647
 6816TIP3    H241864   1.933   5.232   0.763  0.9890  1.2221  1.3753
 6817TIP3   OH241865   6.728   2.394  13.178 -0.2807 -0.2634 -0.0520
 6817TIP3    H141866   6.785   2.468  13.158  0.1275 -1.2109 -2.8246
 6817TIP3    H241867   6.749   2.371  13.269 -0.9052  3.3458  1.1309
 6818TIP3   OH241868   0.448   5.674   6.516  0.3324 -0.2976  0.5116
 6818TIP3    H141869   0.413   5.621   6.445  0.7237 -0.8528  0.7267
 6818TIP3    H241870   0.423   5.628   6.596 -0.6426  0.6558  0.7658
 6819TIP3   OH241871   5.336   0.772  16.443  0.5131  0.4640 -0.3318
 6819TIP3    H141872   5.302   0.696  16.397 -1.8151  0.2667  1.5040
 6819TIP3    H241873   5.319   0.846  16.384 -0.4855 -0.0241 -0.6754
 6820TIP3   OH241874   3.218   2.507  10.832 -0.3911 -0.5197 -0.0311
 6820TIP3    H141875   3.153   2.437  10.820 -0.9106  0.0506 -0.5819
 6820TIP3    H241876   3.295   2.461  10.867 -0.7079 -1.3794 -0.4147
 6821TIP3   OH241877   5.496   4.724  11.620  0.0439  0.0168 -0.1826
 6821TIP3    H141878   5.581   4.759  11.644  0.6938 -0.9252 -0.9939
 6821TIP3    H241879   5.498   4.721  11.524 -0.2877 -1.4022 -0.1713
 6822TIP3   OH241880   1.107   1.856  12.134 -0.0864 -0.6815 -0.3095
 6822TIP3    H141881   1.151   1.785  12.181  2.3404  0.2856 -0.9475
 6822TIP3    H241882   1.060   1.904  12.202  1.6000 -0.5620  0.8504
 6823TIP3   OH241883   0.610   1.970   0.123 -0.2997  0.2398  0.7034
 6823TIP3    H141884   0.570   1.951   0.208 -1.1992  0.4122  0.3325
 6823TIP3    H241885   0.704   1.969   0.140 -0.3893 -1.6910  1.2961
 6824TIP3   OH241886   6.446   2.684  12.413  0.1158  0.1236 -0.7682
 6824TIP3    H141887   6.370   2.647  12.368  2.1019 -2.7442 -2.1160
 6824TIP3    H241888   6.433   2.662  12.505 -0.5709 -0.5662 -1.0205
 6825TIP3   OH241889   3.942   1.242   0.471  0.8340  0.0790  0.5034
 6825TIP3    H141890   3.908   1.218   0.385  1.5009 -0.2185  0.3156
 6825TIP3    H241891   3.953   1.159   0.517 -2.7543  0.3339  2.1978
 6826TIP3   OH241892   4.851   6.086  16.183  0.0313  0.5551 -0.0456
 6826TIP3    H141893   4.909   6.148  16.138  0.1037 -0.5057 -1.4686
 6826TIP3    H241894   4.785   6.064  16.118 -1.2821  0.7880  1.1572
 6827TIP3   OH241895   3.144   5.149   5.249  0.1204  0.3591  0.2738
 6827TIP3    H141896   3.205   5.159   5.176  0.3913  0.2298  0.4790
 6827TIP3    H241897   3.188   5.088   5.309  0.0438  0.7066  0.6917
 6828TIP3   OH241898   2.081   2.576   5.292 -0.4914 -0.1456  0.2132
 6828TIP3    H141899   2.066   2.485   5.268  0.8243 -0.2968 -0.0845
 6828TIP3    H241900   2.165   2.576   5.338 -0.1852  0.9964 -0.3014
 6829TIP3   OH241901   2.397   5.775   5.188 -0.0870 -0.5184 -0.1137
 6829TIP3    H141902   2.344   5.809   5.117  0.7496  1.1139 -0.0091
 6829TIP3    H241903   2.336   5.727   5.244 -1.6033  1.7473  0.2893
 6830TIP3   OH241904   6.657   3.444  15.275  0.3393 -0.3572 -0.9408
 6830TIP3    H141905   6.711   3.383  15.327 -1.3755 -0.9601  0.2336
 6830TIP3    H241906   6.623   3.390  15.204 -0.0837 -0.4494 -0.6772
 6831TIP3   OH241907   2.063   1.552  15.757  0.1221 -0.6514  0.2442
 6831TIP3    H141908   1.996   1.524  15.820  0.7704  0.3506  1.4227
 6831TIP3    H241909   2.145   1.553  15.807  0.7479 -0.3048 -0.7450
 6832TIP3   OH241910   4.731   1.362   3.260 -0.7305 -0.6792 -0.0232
 6832TIP3    H141911   4.814   1.324   3.291 -0.9577 -1.3488 -0.2278
 6832TIP3    H241912   4.705   1.421   3.330  0.0006 -0.3409 -0.0214
 6833TIP3   OH241913   6.222   3.007  16.923  0.1994  0.2140  0.1357
 6833TIP3    H141914   6.258   2.932  16.875  1.2028 -0.3037  1.6261
 6833TIP3    H241915   6.173   3.056  16.857 -1.0739 -2.0865 -0.7488
 6834TIP3   OH241916   1.438   0.983  13.200 -0.1629  0.6848 -0.2710
 6834TIP3    H141917   1.369   0.962  13.137 -0.1274  1.8226 -0.7226
 6834TIP3    H241918   1.505   1.027  13.147  1.8749 -2.1177 -0.2492
 6835TIP3   OH241919   6.681   0.473   3.876  0.1553 -0.2580  0.3115
 6835TIP3    H141920   6.618   0.487   3.946  0.5588  0.0270  0.6228
 6835TIP3    H241921   6.752   0.423   3.917  0.2013 -0.4563 -0.0017
 6836TIP3   OH241922   5.859   3.344  17.135 -0.5261  0.4650  0.0123
 6836TIP3    H141923   5.858   3.252  17.107  0.7296  0.6518 -0.7453
 6836TIP3    H241924   5.769   3.374  17.124 -0.9837 -0.7119  0.4136
 6837TIP3   OH241925   2.330   4.473  12.006 -0.1235  0.4409 -0.3069
 6837TIP3    H141926   2.253   4.426  12.037 -0.6234  0.5305 -1.3675
 6837TIP3    H241927   2.403   4.434  12.055 -1.0040  1.6093  2.0955
 6838TIP3   OH241928   2.934   0.996   2.772 -0.7275  0.2434  0.2417
 6838TIP3    H141929   2.848   1.009   2.732 -1.1049 -1.3459  0.4884
 6838TIP3    H241930   2.917   0.944   2.850  0.3813  0.5812  0.7281
 6839TIP3   OH241931   5.520   0.023  14.527 -0.4723 -0.1395 -0.1305
 6839TIP3    H141932   5.509   0.116  14.550  0.7950 -0.1990  0.8556
 6839TIP3    H241933   5.481  -0.024  14.601  1.0560 -0.3558  0.5757
 6840TIP3   OH241934   1.322   2.735  14.000  0.1325  0.2258  0.2778
 6840TIP3    H141935   1.374   2.771  13.928 -1.4262  1.1340 -0.4268
 6840TIP3    H241936   1.246   2.792  14.006 -0.3839 -0.5766  1.8509
 6841TIP3   OH241937   1.316   6.174  13.653 -0.3453 -0.3587 -0.1609
 6841TIP3    H141938   1.347   6.251  13.606 -1.5540  0.7042  0.7148
 6841TIP3    H241939   1.256   6.131  13.592 -1.4332  0.6764  0.1423
 6842TIP3   OH241940   6.473   4.407  14.709  0.1136 -0.7363 -0.2154
 6842TIP3    H141941   6.426   4.353  14.646 -1.9476  0.5989  0.0760
 6842TIP3    H241942   6.433   4.494  14.700  2.3345  0.4096  0.3159
 6843TIP3   OH241943   0.671   3.844  16.475  0.0667 -0.2092  0.8417
 6843TIP3    H141944   0.628   3.803  16.400 -0.7479  1.2534  0.4709
 6843TIP3    H241945   0.599   3.873  16.532  0.4665  2.3362  0.1862
 6844TIP3   OH241946   1.117   6.048  14.127 -0.0632  0.4814  0.7061
 6844TIP3    H141947   1.130   6.128  14.177  0.1348  1.5123 -0.9315
 6844TIP3    H241948   1.099   6.077  14.038  1.2158 -1.3061 -0.2143
 6845TIP3   OH241949   3.854   3.298  16.748  0.0331  0.5054  0.0047
 6845TIP3    H141950   3.823   3.322  16.661  1.5064 -0.0590 -0.7138
 6845TIP3    H241951   3.837   3.204  16.754 -2.0519  0.8914  1.2274
 6846TIP3   OH241952   0.659   3.955  14.710 -0.2226  0.3178 -0.2192
 6846TIP3    H141953   0.688   3.877  14.758  0.9051  1.4809  1.0670
 6846TIP3    H241954   0.573   3.931  14.675 -0.7464 -0.8423  1.7405
 6847TIP3   OH241955   5.273   4.570  12.543  0.1625  0.6755  0.6010
 6847TIP3    H141956   5.217   4.494  12.557 -1.2437  1.9331  2.1779
 6847TIP3    H241957   5.212   4.644  12.534  1.5039  1.7406 -0.2517
 6848TIP3   OH241958   6.223   4.918  15.754 -0.2288  0.8379 -0.0663
 6848TIP3    H141959   6.280   4.994  15.763  0.7023  0.1683 -0.1790
 6848TIP3    H241960   6.261   4.867  15.683 -0.6661  0.1132  0.2043
 6849TIP3   OH241961   5.043   6.212  11.328 -0.1653 -0.4387 -0.1834
 6849TIP3    H141962   5.040   6.252  11.241 -0.8238  0.0200  0.0415
 6849TIP3    H241963   5.133   6.183  11.338  0.2519  0.6921 -0.4922
 6850TIP3   OH241964   2.948   1.050  10.296 -0.4185  0.4032  0.2573
 6850TIP3    H141965   2.855   1.057  10.318 -0.5350 -0.0087 -0.0948
 6850TIP3    H241966   2.961   0.957  10.278  0.5191  0.0686  2.3541
 6851TIP3   OH241967   2.942   2.628   0.902 -0.6507  0.0438 -0.0003
 6851TIP3    H141968   2.939   2.630   0.998 -2.0566  0.8435 -0.0429
 6851TIP3    H241969   2.851   2.631   0.875 -0.2508  0.2394 -1.3807
 6852TIP3   OH241970   3.275   6.090   5.727  0.4415 -0.4997  0.8863
 6852TIP3    H141971   3.314   6.011   5.689 -0.7824 -1.1448  0.9070
 6852TIP3    H241972   3.198   6.058   5.774  0.4707  0.5985  1.7317
 6853TIP3   OH241973   5.938   0.629   0.924 -0.6366  0.1294  0.8623
 6853TIP3    H141974   5.990   0.599   0.999 -0.4975 -0.6461  0.4667
 6853TIP3    H241975   5.858   0.578   0.928 -0.0899 -0.8709 -0.2375
 6854TIP3   OH241976   0.647   2.415  11.621  0.1634  0.0313 -0.3118
 6854TIP3    H141977   0.728   2.369  11.598 -0.9096 -2.2660  0.2064
 6854TIP3    H241978   0.647   2.418  11.717 -0.3015  0.0911 -0.3102
 6855TIP3   OH241979   1.063   6.619   5.228 -0.3890 -0.3993 -0.0787
 6855TIP3    H141980   1.002   6.552   5.260  0.0986 -0.3051  1.1189
 6855TIP3    H241981   1.094   6.662   5.308  0.1280  0.5328 -0.7698
 6856TIP3   OH241982   1.206   4.291   0.308  0.2324  0.2221  0.4695
 6856TIP3    H141983   1.193   4.386   0.308  0.9324  0.3761  2.6322
 6856TIP3    H241984   1.293   4.278   0.271 -0.7846  0.1683 -2.1128
 6857TIP3   OH241985   0.337   0.441   3.043 -0.2372 -0.2870  0.2943
 6857TIP3    H141986   0.390   0.428   3.121 -0.8792 -0.5910  0.6848
 6857TIP3    H241987   0.372   0.379   2.979 -0.4122 -0.8140  0.7011
 6858TIP3   OH241988   3.410   2.301   0.840  0.6647 -0.3114  0.1095
 6858TIP3    H141989   3.471   2.239   0.799  0.5117  0.6481 -1.6791
 6858TIP3    H241990   3.452   2.327   0.921  1.6775 -1.2135 -0.1101
 6859TIP3   OH241991   2.497   5.935   2.440 -0.2440 -0.2499 -0.6720
 6859TIP3    H141992   2.568   5.879   2.470  1.6648  1.8132 -1.0452
 6859TIP3    H241993   2.432   5.933   2.510  1.0215 -0.7763  0.5187
 6860TIP3   OH241994   4.996   4.485   5.159 -0.2920  0.0845  0.0410
 6860TIP3    H141995   5.004   4.534   5.241 -0.2763  0.7479 -0.3470
 6860TIP3    H241996   5.083   4.450   5.144 -0.3907 -0.3722  0.5084
 6861TIP3   OH241997   2.319   0.901  14.980  0.6789  0.0625 -0.4206
 6861TIP3    H141998   2.323   0.972  15.044 -2.0855 -1.3832  1.5559
 6861TIP3    H241999   2.383   0.837  15.011 -1.1631 -0.9677  1.5032
 6862TIP3   OH242000   0.215   2.747  16.057  0.3880  0.3219 -0.1268
 6862TIP3    H142001   0.187   2.672  16.108  0.5150  0.0984 -0.3847
 6862TIP3    H242002   0.302   2.769  16.092  0.5617  0.0441 -0.3798
 6863TIP3   OH242003   2.245   5.704   6.007 -0.2276 -0.1045 -0.2710
 6863TIP3    H142004   2.281   5.730   6.092 -0.7353  1.4731 -0.5274
 6863TIP3    H242005   2.151   5.692   6.023 -0.3725  0.4961 -0.6827
 6864TIP3   OH242006   4.083   4.018  14.240 -0.4636  0.5922  0.0439
 6864TIP3    H142007   4.120   4.066  14.166 -0.6069  0.2743 -0.2340
 6864TIP3    H242008   4.072   3.929  14.208 -2.8873  0.9826 -0.4202
 6865TIP3   OH242009   3.714   4.473  16.065 -0.6688  0.2659  0.3493
 6865TIP3    H142010   3.804   4.502  16.054 -0.4647 -1.1086 -2.9647
 6865TIP3    H242011   3.715   4.419  16.144  1.5834 -0.2426  0.0307
 6866TIP3   OH242012   0.234   0.644   2.405 -0.2082 -0.1674  0.2538
 6866TIP3    H142013   0.148   0.652   2.365 -0.4255 -1.5495  0.3967
 6866TIP3    H242014   0.252   0.550   2.406  1.4356  0.1042 -0.0442
 6867TIP3   OH242015   6.097   1.846  12.748  0.2674 -0.1771  0.0756
 6867TIP3    H142016   6.121   1.932  12.712  0.9372  0.1376  1.2307
 6867TIP3    H242017   6.154   1.784  12.702 -1.3927 -0.2687 -2.0256
 6868TIP3   OH242018   2.448   3.645  11.089  0.4356 -0.3849  0.3156
 6868TIP3    H142019   2.430   3.582  11.019  2.4424 -0.6210 -0.0576
 6868TIP3    H242020   2.436   3.730  11.047  1.0050 -0.5279 -0.1588
 6869TIP3   OH242021   2.905   3.808   0.960 -0.3575  0.1213 -0.4690
 6869TIP3    H142022   2.836   3.863   0.998 -0.5089  0.1584 -0.7948
 6869TIP3    H242023   2.858   3.746   0.904 -0.2123 -0.5597  0.1556
 6870TIP3   OH242024   2.700   5.718   4.538  0.1420  0.3692  0.0339
 6870TIP3    H142025   2.701   5.781   4.466  0.3567 -0.8773 -1.0900
 6870TIP3    H242026   2.643   5.758   4.604  0.8157  2.0465 -0.3251
 6871TIP3   OH242027   2.800   2.037  16.728 -0.0927 -0.7527  0.6525
 6871TIP3    H142028   2.826   2.122  16.761 -0.7415 -1.0439  1.9900
 6871TIP3    H242029   2.851   1.974  16.779  1.1744 -1.1756 -1.0417
 6872TIP3   OH242030   5.384   5.451  11.108 -0.1584 -0.4415  0.3687
 6872TIP3    H142031   5.361   5.544  11.100 -0.4434 -0.4710  0.7892
 6872TIP3    H242032   5.336   5.408  11.037 -0.2104 -0.2951  0.3154
 6873TIP3   OH242033   1.514   5.099  12.432 -0.2069 -0.0491  0.1555
 6873TIP3    H142034   1.469   5.183  12.437  0.3555  0.6166 -3.3606
 6873TIP3    H242035   1.445   5.034  12.429 -0.8575  0.6553 -1.1059
 6874TIP3   OH242036   1.535   0.890  14.247 -0.0702 -0.1743  0.0756
 6874TIP3    H142037   1.546   0.882  14.152 -1.7986 -0.2407 -0.1537
 6874TIP3    H242038   1.558   0.980  14.267  1.8583 -0.5854 -0.1407
 6875TIP3   OH242039   1.363   4.553  16.892  0.0009 -0.0523 -0.4144
 6875TIP3    H142040   1.444   4.603  16.895 -0.2633  0.3483  0.3242
 6875TIP3    H242041   1.381   4.475  16.944 -0.4631  0.6357  0.8265
 6876TIP3   OH242042   3.594   2.469   6.596  0.0600 -0.0112 -0.1852
 6876TIP3    H142043   3.506   2.508   6.602 -1.0784 -2.5252  4.1885
 6876TIP3    H242044   3.648   2.523   6.653  0.7159  0.0272 -0.8283
 6877TIP3   OH242045   4.328   0.899   5.482  0.7316  0.0679 -0.0454
 6877TIP3    H142046   4.285   0.851   5.411 -0.5722 -0.0282  0.7730
 6877TIP3    H242047   4.376   0.833   5.530  0.5585 -0.0824 -0.0794
 6878TIP3   OH242048   4.462   1.142   5.496  0.1828 -0.2076  0.4094
 6878TIP3    H142049   4.443   1.049   5.495 -0.2766 -0.1094 -0.4744
 6878TIP3    H242050   4.545   1.149   5.543  0.0145 -1.0105  0.8531
 6879TIP3   OH242051   3.364   6.578  14.955 -0.0047 -0.4327  0.3033
 6879TIP3    H142052   3.335   6.655  14.906 -0.1970 -1.0550 -0.5960
 6879TIP3    H242053   3.399   6.613  15.037  2.6075  0.8813 -1.2287
 6880TIP3   OH242054   1.004   2.248  15.491 -0.5478 -0.2987 -0.7845
 6880TIP3    H142055   1.036   2.232  15.402 -3.8097 -3.1703 -1.6285
 6880TIP3    H242056   1.050   2.184  15.544  0.7854  0.8711 -0.4556
 6881TIP3   OH242057   2.108   5.265  13.044 -0.6271 -0.0077 -0.4808
 6881TIP3    H142058   2.065   5.346  13.073 -0.4311  0.3267 -1.1095
 6881TIP3    H242059   2.179   5.295  12.988 -0.4511 -0.6166 -0.5827
 6882TIP3   OH242060   6.357   2.182  12.976 -0.6971  0.1062 -0.1048
 6882TIP3    H142061   6.446   2.202  13.005 -0.3979  0.6447 -1.3052
 6882TIP3    H242062   6.329   2.108  13.030  0.8635 -0.7304 -0.3919
 6883TIP3   OH242063   1.167   6.802  11.028  0.3950 -0.4728 -0.3120
 6883TIP3    H142064   1.126   6.779  10.945  0.5995  1.7701 -1.1063
 6883TIP3    H242065   1.233   6.734  11.043 -1.1629 -2.1469 -0.8065
 6884TIP3   OH242066   3.138   4.264   3.979 -0.4415  0.0828  0.0442
 6884TIP3    H142067   3.163   4.317   3.903  2.5835  1.1996  1.6594
 6884TIP3    H242068   3.042   4.264   3.977 -0.5154  0.1437 -3.6523
 6885TIP3   OH242069   5.525   5.574   2.216  0.1437  0.0344  0.3234
 6885TIP3    H142070   5.602   5.539   2.170  0.5137 -0.5755  1.3648
 6885TIP3    H242071   5.531   5.669   2.206  0.8573 -0.0297  0.1191
 6886TIP3   OH242072   4.584   0.918  13.924 -0.2543 -0.1261 -0.7693
 6886TIP3    H142073   4.675   0.947  13.918 -0.2753  0.5481  1.2960
 6886TIP3    H242074   4.590   0.826  13.951 -0.0776  0.5362  1.7767
 6887TIP3   OH242075   0.238   1.570  15.788 -0.2567  0.0066  0.4483
 6887TIP3    H142076   0.292   1.494  15.766  0.6431  0.4932  0.9032
 6887TIP3    H242077   0.294   1.645  15.769 -1.6676  0.6473 -1.4568
 6888TIP3   OH242078   0.719   3.055   0.447 -0.1460 -0.0549  0.1999
 6888TIP3    H142079   0.787   3.066   0.514  0.4815 -1.1359 -0.2380
 6888TIP3    H242080   0.677   2.972   0.469 -0.0758 -0.3167 -0.6222
 6889TIP3   OH242081   3.566   2.974   0.621 -0.3666 -0.6222 -0.8145
 6889TIP3    H142082   3.477   3.009   0.621 -1.0250 -2.2033  0.0742
 6889TIP3    H242083   3.621   3.049   0.602 -1.5821  1.2282  2.2086
 6890TIP3   OH242084   5.472   1.658  14.982  0.6477  0.1129 -0.0111
 6890TIP3    H142085   5.526   1.673  15.059  1.3696 -0.8667 -0.3032
 6890TIP3    H242086   5.509   1.579  14.942 -0.5410 -0.1550 -0.6297
 6891TIP3   OH242087   4.549   5.708  17.152 -0.0740 -0.0111  0.2446
 6891TIP3    H142088   4.483   5.734  17.216 -0.7732  0.2593 -0.5670
 6891TIP3    H242089   4.598   5.638  17.195 -1.6438 -1.0380  0.4466
 6892TIP3   OH242090   5.093   5.037   0.685 -0.1746  0.1981 -0.6100
 6892TIP3    H142091   5.034   5.112   0.681 -1.7921 -1.0391 -1.6207
 6892TIP3    H242092   5.075   4.989   0.604  0.1000 -1.7526  0.4239
 6893TIP3   OH242093   3.582   5.554  16.727 -0.5031 -0.5724  0.2181
 6893TIP3    H142094   3.609   5.498  16.800 -0.1538  0.1987  0.7055
 6893TIP3    H242095   3.526   5.621  16.768  0.4876  0.4458 -0.0421
 6894TIP3   OH242096   6.111   0.185   6.273  0.0328  0.3104  0.1662
 6894TIP3    H142097   6.140   0.238   6.347  1.0278  0.0239 -0.0124
 6894TIP3    H242098   6.146   0.229   6.196  0.7875 -0.5276  0.0079
 6895TIP3   OH242099   5.420   4.845   6.183 -0.5825 -0.0731  0.1584
 6895TIP3    H142100   5.513   4.824   6.184 -0.0979  1.8430 -0.3677
 6895TIP3    H242101   5.391   4.831   6.273  0.1297 -0.9381  0.2703
 6896TIP3   OH242102   2.918   4.369   3.513 -0.1649 -0.0136 -0.6764
 6896TIP3    H142103   3.002   4.332   3.487 -0.2284  0.6438 -1.8959
 6896TIP3    H242104   2.935   4.463   3.522  0.0426 -0.2553  2.5394
 6897TIP3   OH242105   5.294   3.148  13.040  0.1266 -0.3480 -0.3108
 6897TIP3    H142106   5.218   3.089  13.042  0.3922 -0.7304  2.1179
 6897TIP3    H242107   5.274   3.214  13.106  1.0405  0.7308 -1.0841
 6898TIP3   OH242108   0.851   0.640   2.009  0.2890 -0.4701  0.2418
 6898TIP3    H142109   0.885   0.602   1.928  0.0954  2.1878 -1.2017
 6898TIP3    H242110   0.842   0.734   1.990 -1.3468  0.0056  2.8056
 6899TIP3   OH242111   3.831   3.636   3.951 -0.1695  0.1600  0.6115
 6899TIP3    H142112   3.868   3.671   3.870  2.0171 -2.7720  0.1681
 6899TIP3    H242113   3.905   3.636   4.013 -0.7608 -1.1900  1.3502
 6900TIP3   OH242114   1.509   1.224  11.761  0.3459  0.9028 -0.3509
 6900TIP3    H142115   1.506   1.136  11.723  0.6959  0.5353  0.4435
 6900TIP3    H242116   1.471   1.214  11.849  0.1564  1.5962 -0.3454
 6901TIP3   OH242117   4.503   3.788   4.342  0.3547  0.0761  0.4255
 6901TIP3    H142118   4.588   3.815   4.309  1.5377 -0.3486  2.8898
 6901TIP3    H242119   4.493   3.834   4.426  0.0707 -2.9134  2.1967
 6902TIP3   OH242120   5.252   6.566  13.634  0.0689 -0.2022 -0.0598
 6902TIP3    H142121   5.294   6.593  13.553  2.0250 -0.4192  0.8422
 6902TIP3    H242122   5.230   6.474  13.620 -2.9376  0.6039 -1.6189
 6903TIP3   OH242123   0.567   3.282  12.168 -0.2182 -0.3919  0.3886
 6903TIP3    H142124   0.605   3.354  12.218 -0.9945 -0.9789  1.8899
 6903TIP3    H242125   0.475   3.279  12.197  0.0735 -2.7172  1.3054
 6904TIP3   OH242126   1.532   4.685   6.042  0.1748  0.5961 -0.2767
 6904TIP3    H142127   1.499   4.775   6.046  0.5797  0.7123  1.0408
 6904TIP3    H242128   1.496   4.650   5.960 -0.6394  1.7027 -0.4234
 6905TIP3   OH242129   4.333   6.434   1.470  0.4669 -0.7134  0.5708
 6905TIP3    H142130   4.318   6.528   1.475  1.4387 -0.5039 -0.2298
 6905TIP3    H242131   4.312   6.402   1.557 -3.9628 -0.4138 -0.1509
 6906TIP3   OH242132   1.822   2.825   4.423  0.4279 -0.4268  0.0198
 6906TIP3    H142133   1.792   2.891   4.486 -0.3322  0.7777 -1.5525
 6906TIP3    H242134   1.745   2.771   4.407  0.8801 -1.3430  0.8178
 6907TIP3   OH242135   2.785   1.139  10.594 -0.1797  0.1637 -0.2964
 6907TIP3    H142136   2.725   1.116  10.523 -2.0551  1.4365  0.7884
 6907TIP3    H242137   2.789   1.235  10.592 -0.0070  0.2048  1.0694
 6908TIP3   OH242138   0.662   4.911  11.454 -0.4575 -0.2162  0.0099
 6908TIP3    H142139   0.623   4.950  11.532 -0.6610  0.8436 -0.6020
 6908TIP3    H242140   0.671   4.818  11.476 -4.1369 -0.7556 -0.0789
 6909TIP3   OH242141   6.662   4.208   3.893  0.0795  0.3915 -0.3810
 6909TIP3    H142142   6.739   4.155   3.874  1.1249  1.1630  1.4449
 6909TIP3    H242143   6.690   4.267   3.962 -2.4155  0.1126  0.9868
 6910TIP3   OH242144   0.427   0.920  13.008 -0.3275  0.3573 -0.2292
 6910TIP3    H142145   0.412   0.866  13.086 -1.0621  1.3435  0.3205
 6910TIP3    H242146   0.417   1.010  13.038  0.1204  0.7883 -1.3128
 6911TIP3   OH242147   3.563   2.770  12.643  0.3552  0.0169  0.1630
 6911TIP3    H142148   3.519   2.704  12.589  0.0636  0.8175 -0.5951
 6911TIP3    H242149   3.640   2.725  12.677 -0.2246 -0.9370  0.2547
 6912TIP3   OH242150   4.918   1.829  15.236 -0.0689 -0.5758 -0.5632
 6912TIP3    H142151   4.850   1.823  15.304  0.3385 -1.0526 -0.1926
 6912TIP3    H242152   4.907   1.916  15.199 -0.8758 -0.6403 -0.4911
 6913TIP3   OH242153   4.792   4.263  11.818 -0.5964  0.4068  0.5053
 6913TIP3    H142154   4.750   4.321  11.754 -1.1510 -0.8831 -0.3420
 6913TIP3    H242155   4.865   4.313  11.852 -0.6654  1.3571 -0.6934
 6914TIP3   OH242156   5.290   6.640  15.787  0.2598 -0.0059  0.0562
 6914TIP3    H142157   5.260   6.674  15.702 -1.6431  0.8117  0.9765
 6914TIP3    H242158   5.310   6.718  15.838  0.2388 -0.4291  0.7269
 6915TIP3   OH242159   4.280   5.368   1.559  0.2842 -0.7985  0.1823
 6915TIP3    H142160   4.362   5.413   1.539 -0.6551  1.1775  0.5179
 6915TIP3    H242161   4.299   5.318   1.639  1.3957 -1.1428 -0.2767
 6916TIP3   OH242162   2.026   1.887  11.611 -0.0071 -0.1486  0.1382
 6916TIP3    H142163   2.021   1.920  11.521 -0.4677 -0.1599  0.1578
 6916TIP3    H242164   2.062   1.960  11.661  0.9722 -0.3916 -0.1786
 6917TIP3   OH242165   6.219   4.448  16.561 -0.1644  0.5071  0.1625
 6917TIP3    H142166   6.146   4.387  16.555 -0.3745  0.7468  0.3053
 6917TIP3    H242167   6.294   4.397  16.529 -0.5617  0.5609 -0.9109
 6918TIP3   OH242168   0.007   3.629   0.710  0.1592 -0.5663 -0.0533
 6918TIP3    H142169  -0.044   3.710   0.705 -1.2099 -1.3239  0.8150
 6918TIP3    H242170   0.003   3.605   0.803  1.1955 -1.2351 -0.1723
 6919TIP3   OH242171   0.935   3.634  10.513  0.5142 -0.1808 -0.1102
 6919TIP3    H142172   0.975   3.720  10.524 -0.4172  0.4559 -1.4446
 6919TIP3    H242173   0.892   3.638  10.428 -2.2847 -0.8486  1.1687
 6920TIP3   OH242174   6.458   3.856  13.956  0.6572  0.5112 -0.2996
 6920TIP3    H142175   6.428   3.816  13.874 -0.1411 -0.8255  0.5930
 6920TIP3    H242176   6.387   3.915  13.981 -0.1721 -0.7689  0.5290
 6921TIP3   OH242177   5.275   2.997  12.118 -0.0536  0.0285  0.2537
 6921TIP3    H142178   5.309   2.974  12.204  2.0201 -0.4988 -0.6199
 6921TIP3    H242179   5.344   2.969  12.057 -1.1125  1.0520 -1.5212
 6922TIP3   OH242180   1.584   1.676  15.975 -0.0567  0.3073 -0.1330
 6922TIP3    H142181   1.541   1.596  16.004  0.2948  0.5593  1.1219
 6922TIP3    H242182   1.537   1.701  15.895  0.1140 -1.3857 -0.8078
 6923TIP3   OH242183   4.152   0.377  13.540  0.2970  0.0801 -0.1575
 6923TIP3    H142184   4.180   0.413  13.624 -0.2675  2.3963 -0.8942
 6923TIP3    H242185   4.225   0.395  13.481  0.5689 -1.2712 -0.2804
 6924TIP3   OH242186   2.775   1.361   2.720 -0.8474  0.4047 -0.5093
 6924TIP3    H142187   2.688   1.351   2.682 -1.2598 -0.6184  0.6242
 6924TIP3    H242188   2.776   1.300   2.794  0.3750  1.3614  0.3057
 6925TIP3   OH242189   3.120   2.721   3.725 -0.2161 -0.6670 -0.4788
 6925TIP3    H142190   3.156   2.759   3.644  2.6797  2.4289  1.9480
 6925TIP3    H242191   3.029   2.701   3.704 -0.1575  1.7939 -3.9762
 6926TIP3   OH242192   0.816   0.202   2.755  0.0206  0.2899  0.4112
 6926TIP3    H142193   0.756   0.178   2.825 -1.4467  1.1498 -0.5110
 6926TIP3    H242194   0.805   0.296   2.745  0.0302  0.1445 -1.1394
 6927TIP3   OH242195   4.468   1.305   3.052  0.1799 -0.2933  0.4073
 6927TIP3    H142196   4.555   1.307   3.091 -0.0945 -0.0041  1.0152
 6927TIP3    H242197   4.434   1.393   3.066 -0.2087 -0.4026  0.1608
 6928TIP3   OH242198   0.391   0.429   3.780  0.4346 -0.2001  0.6859
 6928TIP3    H142199   0.345   0.495   3.728  2.3351  0.6864  0.0078
 6928TIP3    H242200   0.354   0.346   3.752  0.0144  0.4067 -0.6420
 6929TIP3   OH242201   3.988   5.360   1.204 -0.5162  0.0477 -0.2148
 6929TIP3    H142202   3.998   5.362   1.109  0.1912 -0.0231 -0.1539
 6929TIP3    H242203   3.982   5.451   1.230  1.1645  0.1756 -0.1699
 6930TIP3   OH242204   1.316   3.841   2.892  0.1418  0.4617 -0.4206
 6930TIP3    H142205   1.400   3.822   2.850  1.4918  0.7364  2.0052
 6930TIP3    H242206   1.275   3.906   2.834  1.5446  0.2591 -1.7063
 6931TIP3   OH242207   5.225   4.333   2.394  0.1129 -0.1259 -0.2450
 6931TIP3    H142208   5.170   4.388   2.339  2.3730  1.9103 -0.6127
 6931TIP3    H242209   5.298   4.306   2.338  0.9930 -0.3684  0.9562
 6932TIP3   OH242210   0.742   1.996   2.797  0.5236  0.1011  0.4677
 6932TIP3    H142211   0.812   2.060   2.811  0.2951  0.6593 -0.7672
 6932TIP3    H242212   0.666   2.034   2.840  0.0695  1.3303 -1.2816
 6933TIP3   OH242213   5.325   1.684  11.773  0.1856  0.3661 -0.8155
 6933TIP3    H142214   5.398   1.737  11.739  0.2155  1.6550  1.0944
 6933TIP3    H242215   5.250   1.711  11.721  0.6969  0.4048 -1.5523
 6934TIP3   OH242216   6.019   3.241   5.243  0.0492 -0.5285  0.0810
 6934TIP3    H142217   6.067   3.258   5.162 -1.1517  0.6649 -0.4237
 6934TIP3    H242218   5.931   3.276   5.226 -0.6806 -1.6362  1.3639
 6935TIP3   OH242219   3.695   5.615  17.133  0.2874 -0.1497  0.1324
 6935TIP3    H142220   3.781   5.635  17.171  0.1699 -1.1184  0.9429
 6935TIP3    H242221   3.695   5.662  17.050  2.0702 -1.0914 -0.4500
 6936TIP3   OH242222   6.781   3.685  12.711 -0.4965  0.3828  0.2723
 6936TIP3    H142223   6.770   3.767  12.760 -0.9814  0.2606  0.3709
 6936TIP3    H242224   6.874   3.664  12.721 -0.9105 -0.5635  2.6051
 6937TIP3   OH242225   3.155   3.880   5.157  0.2856 -0.2140  0.4792
 6937TIP3    H142226   3.115   3.795   5.177  1.0791 -0.6831  0.1509
 6937TIP3    H242227   3.205   3.902   5.235  0.3707 -0.2310  0.4306
 6938TIP3   OH242228   1.157   0.531  14.830 -0.1691 -0.4004  0.1806
 6938TIP3    H142229   1.148   0.497  14.740 -0.5758 -0.8743  0.3979
 6938TIP3    H242230   1.164   0.626  14.819  0.5209 -0.5103 -0.4034
 6939TIP3   OH242231   3.712   2.140  15.670  0.3189 -0.0367 -0.2867
 6939TIP3    H142232   3.791   2.194  15.661  0.7436 -0.8174 -1.5179
 6939TIP3    H242233   3.670   2.146  15.584 -0.7169 -0.0208  0.2107
 6940TIP3   OH242234   5.854   2.551   1.243  0.6100  0.5543  0.0154
 6940TIP3    H142235   5.833   2.483   1.179  1.4559  1.5671 -1.3815
 6940TIP3    H242236   5.774   2.603   1.250 -0.4361 -1.1630  1.9424
 6941TIP3   OH242237   3.798   2.545   5.636 -0.6329  0.3708 -0.2305
 6941TIP3    H142238   3.881   2.553   5.588 -0.2347  0.4545  0.4570
 6941TIP3    H242239   3.810   2.600   5.713 -2.7185  3.5673 -1.9463
 6942TIP3   OH242240   4.622   0.974  15.370  0.7051 -0.2955 -0.3514
 6942TIP3    H142241   4.660   1.024  15.442  1.7290 -0.6863 -0.5876
 6942TIP3    H242242   4.663   0.887  15.378 -0.1323 -0.7291 -0.6489
 6943TIP3   OH242243   3.617   1.580  14.769 -0.0190  0.1314 -0.0381
 6943TIP3    H142244   3.649   1.539  14.689  0.4013  2.3678 -1.0958
 6943TIP3    H242245   3.562   1.652  14.739  0.0607  0.9711  1.6922
 6944TIP3   OH242246   0.973   6.299  11.935 -0.2199 -0.6999 -0.3004
 6944TIP3    H142247   1.044   6.236  11.949 -2.2322 -2.4901  3.2670
 6944TIP3    H242248   0.901   6.248  11.899 -0.7023  0.4507 -1.0490
 6945TIP3   OH242249   0.669   4.257  13.659  0.1558  0.1018 -0.4100
 6945TIP3    H142250   0.637   4.227  13.744  0.6509 -0.5299 -0.4396
 6945TIP3    H242251   0.725   4.332  13.680 -1.0820  1.0420 -0.3370
 6946TIP3   OH242252   5.341   0.074  10.870  0.0707  0.3393  0.2648
 6946TIP3    H142253   5.434   0.056  10.882 -0.0288 -1.0877 -0.8030
 6946TIP3    H242254   5.312   0.007  10.807 -1.8813  0.1510  1.3024
 6947TIP3   OH242255   4.901   4.191   5.842 -0.4556  0.1174 -0.6881
 6947TIP3    H142256   4.875   4.177   5.751 -3.5626 -2.8585  0.4377
 6947TIP3    H242257   4.977   4.134   5.855 -1.3144 -1.1109 -0.9399
 6948TIP3   OH242258   0.388   1.382   6.327 -0.0120 -0.1739 -0.2497
 6948TIP3    H142259   0.334   1.434   6.387 -0.7392 -0.3190 -0.7719
 6948TIP3    H242260   0.450   1.336   6.385 -0.0661  0.4301  0.3048
 6949TIP3   OH242261   2.332   2.724  14.501  0.0318  0.1486  0.0253
 6949TIP3    H142262   2.275   2.652  14.527  0.9635 -0.1181  1.5123
 6949TIP3    H242263   2.280   2.803  14.516  0.0715 -0.0791  1.5667
 6950TIP3   OH242264   3.259   0.363   2.841  0.0667 -0.0347  0.0115
 6950TIP3    H142265   3.180   0.379   2.790  0.6981 -0.6914 -1.2155
 6950TIP3    H242266   3.275   0.445   2.888 -0.7060  0.4835 -0.6162
 6951TIP3   OH242267   5.465   5.616  10.838 -0.3706  0.5384  0.1540
 6951TIP3    H142268   5.442   5.524  10.848  1.7680 -0.0586  0.0935
 6951TIP3    H242269   5.415   5.661  10.907 -0.4427 -0.8533  1.0509
 6952TIP3   OH242270   4.132   1.188  15.076  0.1692 -0.6516  0.3481
 6952TIP3    H142271   4.147   1.255  15.009 -0.4208 -1.3841 -0.5508
 6952TIP3    H242272   4.219   1.173  15.114  0.3967  0.2404  0.2078
 6953TIP3   OH242273   0.755   3.333  11.370  0.4456  0.1760  0.0541
 6953TIP3    H142274   0.686   3.329  11.304 -0.5028 -0.6047  1.0780
 6953TIP3    H242275   0.799   3.248  11.366  1.1093  0.5228 -0.3142
 6954TIP3   OH242276   0.247   3.674   3.705  0.2416 -0.6257 -0.1684
 6954TIP3    H142277   0.287   3.587   3.708 -0.1411 -1.0531 -3.8322
 6954TIP3    H242278   0.287   3.716   3.630  0.2119  2.3565  1.3492
 6955TIP3   OH242279   2.337   1.635  11.444  0.6910  0.1654 -0.6616
 6955TIP3    H142280   2.369   1.585  11.370 -0.5335  0.1514 -1.2063
 6955TIP3    H242281   2.280   1.702  11.405  0.2260  0.3096  0.2422
 6956TIP3   OH242282   6.482   6.554   4.619  0.0169  0.4698 -0.1654
 6956TIP3    H142283   6.443   6.595   4.542  1.2310  1.2419 -0.4039
 6956TIP3    H242284   6.435   6.471   4.629 -0.6656  0.7043 -1.2778
 6957TIP3   OH242285   2.595   1.345  12.917 -0.0747  0.1709  0.2217
 6957TIP3    H142286   2.613   1.278  12.984  0.6535  1.1182  0.9969
 6957TIP3    H242287   2.500   1.344  12.907 -0.1276 -0.5074  0.7157
 6958TIP3   OH242288   5.854   2.218   5.308 -0.2486 -0.1960 -0.1602
 6958TIP3    H142289   5.910   2.280   5.356 -0.2886 -0.3010  0.0216
 6958TIP3    H242290   5.908   2.140   5.297  0.3157  0.3677 -1.6364
 6959TIP3   OH242291   3.662   3.577  13.830 -0.0085 -0.3735  0.0902
 6959TIP3    H142292   3.676   3.637  13.757 -1.7870 -0.0854 -0.0511
 6959TIP3    H242293   3.600   3.622  13.887  1.7487 -0.3448  2.1047
 6960TIP3   OH242294   4.281   6.197  12.407  0.3910  0.0411  0.4685
 6960TIP3    H142295   4.270   6.265  12.474 -0.9208  0.3680 -0.0430
 6960TIP3    H242296   4.369   6.211  12.372  0.8799  0.2307  1.7069
 6961TIP3   OH242297   5.171   2.679   1.643 -0.3125 -0.1918  0.5293
 6961TIP3    H142298   5.195   2.769   1.623  0.2232 -0.8585 -2.1770
 6961TIP3    H242299   5.136   2.645   1.561 -0.6855 -2.4049  1.5397
 6962TIP3   OH242300   0.796   1.934   3.929 -0.1282  0.5256 -0.6059
 6962TIP3    H142301   0.733   1.863   3.924 -0.6540  1.0525 -1.7281
 6962TIP3    H242302   0.744   2.014   3.917  0.2110  1.2635  2.0574
 6963TIP3   OH242303   3.600   6.505   0.336 -0.4159  0.1194  1.0141
 6963TIP3    H142304   3.623   6.502   0.244 -3.0654 -2.2232  0.2803
 6963TIP3    H242305   3.668   6.453   0.380  1.5638  2.2738  0.7016
 6964TIP3   OH242306   0.944   5.567   0.942 -0.5789  0.0767 -0.2564
 6964TIP3    H142307   0.942   5.539   1.034 -0.6588 -1.5135 -0.7144
 6964TIP3    H242308   1.035   5.589   0.925 -0.3989 -0.5027 -0.0402
 6965TIP3   OH242309   3.288   5.295   6.038 -0.4696  0.3927  0.0292
 6965TIP3    H142310   3.279   5.283   6.133  0.2846 -3.3303 -0.2038
 6965TIP3    H242311   3.200   5.277   6.004 -0.9008  2.3654 -0.0287
 6966TIP3   OH242312   0.622   2.238   3.436  0.3321 -0.7503 -0.3131
 6966TIP3    H142313   0.619   2.154   3.482 -1.3689 -0.4897  0.1053
 6966TIP3    H242314   0.628   2.214   3.344  1.1885 -1.3055 -0.1256
 6967TIP3   OH242315   2.010   0.993  11.887  0.0863  0.4396 -0.1555
 6967TIP3    H142316   2.047   0.920  11.837  0.9451  1.3464 -0.8947
 6967TIP3    H242317   1.946   0.952  11.945  0.5132 -0.8919 -0.5752
 6968TIP3   OH242318   2.161   2.038  14.814 -0.8149 -0.6635 -0.2282
 6968TIP3    H142319   2.164   1.954  14.767 -0.9988 -1.0380  0.4204
 6968TIP3    H242320   2.106   2.093  14.759  0.8526 -0.3279 -1.6611
 6969TIP3   OH242321   1.383   6.199  16.848  0.3215  0.4188  0.6292
 6969TIP3    H142322   1.424   6.227  16.929  0.0661 -1.7477  1.5769
 6969TIP3    H242323   1.308   6.147  16.875 -1.1367  1.5306 -1.0510
 6970TIP3   OH242324   6.687   3.791  16.438 -0.4936 -0.4539 -0.7188
 6970TIP3    H142325   6.697   3.884  16.420 -1.5648  0.0925  1.2950
 6970TIP3    H242326   6.608   3.784  16.491 -0.0827 -2.4353 -0.2699
 6971TIP3   OH242327   6.004   5.982   0.669 -0.1192  0.5798  0.4903
 6971TIP3    H142328   6.034   5.896   0.699 -0.1353  0.2587 -0.3834
 6971TIP3    H242329   6.031   6.043   0.739  0.3422 -0.0587  0.8793
 6972TIP3   OH242330   5.805   4.772  16.786  0.1095  0.3136  0.3444
 6972TIP3    H142331   5.863   4.841  16.753 -0.0784  0.4558  0.3111
 6972TIP3    H242332   5.862   4.716  16.838  0.2669  0.4888  0.3626
 6973TIP3   OH242333   6.530   6.095  13.123 -0.0922  0.8647 -0.1063
 6973TIP3    H142334   6.534   6.000  13.120 -1.3486  0.7871  0.0107
 6973TIP3    H242335   6.618   6.122  13.150  0.2380 -0.2618  0.0037
 6974TIP3   OH242336   3.770   1.359   6.236  0.1618 -0.0497  0.3192
 6974TIP3    H142337   3.752   1.428   6.300 -0.4251  0.3550 -0.2668
 6974TIP3    H242338   3.756   1.278   6.284 -2.7783  0.2177  0.1179
 6975TIP3   OH242339   6.782   4.416   0.646  0.3991 -0.1584 -0.2361
 6975TIP3    H142340   6.781   4.472   0.724  0.6588 -0.8216  0.2514
 6975TIP3    H242341   6.771   4.477   0.573 -0.5051  0.4081  0.3524
 6976TIP3   OH242342   4.559   2.015   3.058  0.2325 -0.3769  0.3871
 6976TIP3    H142343   4.524   2.085   3.002  0.1297  0.0560  0.9750
 6976TIP3    H242344   4.640   2.051   3.094  0.4755 -0.7823  0.2449
 6977TIP3   OH242345   5.885   3.411   1.690 -0.1794 -0.4297  0.8938
 6977TIP3    H142346   5.928   3.491   1.719 -1.2134  0.3487  0.3485
 6977TIP3    H242347   5.917   3.343   1.750  2.3783 -0.0732  0.0733
 6978TIP3   OH242348   0.155   6.757  16.857  0.2988 -0.1938  0.4618
 6978TIP3    H142349   0.167   6.795  16.945 -0.8248  1.5174 -0.0634
 6978TIP3    H242350   0.239   6.715  16.838  1.4241  1.4537  1.4283
 6979TIP3   OH242351   4.306   2.271  13.597  0.2264 -0.2552 -0.2304
 6979TIP3    H142352   4.224   2.236  13.631  0.4114 -1.3431 -0.8511
 6979TIP3    H242353   4.373   2.243  13.659  0.0242  1.6948  0.9671
 6980TIP3   OH242354   0.689   5.078  12.919  0.1349  0.4339  0.0579
 6980TIP3    H142355   0.655   5.159  12.881 -0.8265 -0.2931 -0.6787
 6980TIP3    H242356   0.749   5.043  12.853  0.0243  0.1968  0.0831
 6981TIP3   OH242357   5.281   4.120   0.698  0.1360 -0.3208 -0.5249
 6981TIP3    H142358   5.298   4.030   0.672 -1.6894 -1.3228  1.4753
 6981TIP3    H242359   5.368   4.158   0.713  0.9247 -2.7031  1.5059
 6982TIP3   OH242360   1.720   4.070  14.859  0.5165  0.1681  0.5346
 6982TIP3    H142361   1.765   3.992  14.828  0.8918 -0.0645  1.6345
 6982TIP3    H242362   1.663   4.095  14.786  0.6715 -0.9021  0.0245
 6983TIP3   OH242363   3.999   3.809  12.419 -0.0135 -0.0732  0.2943
 6983TIP3    H142364   3.914   3.852  12.411  0.3472  1.0096  1.9093
 6983TIP3    H242365   4.009   3.790  12.512  1.2329 -0.7702  0.0481
 6984TIP3   OH242366   0.101   0.272  13.887  0.0646 -0.3372  0.2193
 6984TIP3    H142367   0.066   0.338  13.948  0.7019 -1.0281  1.3708
 6984TIP3    H242368   0.066   0.297  13.802 -0.7175  0.7655  0.8401
 6985TIP3   OH242369   5.162   3.602   4.200 -0.0096 -0.0261 -0.0632
 6985TIP3    H142370   5.226   3.606   4.130  1.2052 -1.1987  0.9336
 6985TIP3    H242371   5.111   3.523   4.182 -0.8650  0.6217 -0.5662
 6986TIP3   OH242372   1.075   3.661  13.907  0.0266 -0.1237 -0.2265
 6986TIP3    H142373   0.992   3.707  13.913  1.1939  2.0312  0.8827
 6986TIP3    H242374   1.140   3.731  13.898  1.8565 -1.6093  0.7490
 6987TIP3   OH242375   2.638   0.241  15.313  0.1876 -0.1613 -0.0066
 6987TIP3    H142376   2.616   0.293  15.236  2.2754  0.3831 -0.2725
 6987TIP3    H242377   2.727   0.267  15.336  0.2749 -1.6181  1.5187
 6988TIP3   OH242378   3.780   2.540   1.118 -0.2156  0.7720 -0.2191
 6988TIP3    H142379   3.774   2.564   1.210  1.7242 -0.5199  0.2888
 6988TIP3    H242380   3.873   2.546   1.097 -0.3767 -0.7441 -1.5679
 6989TIP3   OH242381   1.438   6.032  13.277 -0.1001  0.2930  0.5399
 6989TIP3    H142382   1.524   6.060  13.307  1.0299 -0.0072 -2.1149
 6989TIP3    H242383   1.411   5.966  13.340  1.7157  0.2238  1.3171
 6990TIP3   OH242384   2.812   2.589   2.033  0.4552  0.0091 -0.5917
 6990TIP3    H142385   2.823   2.494   2.021  0.1294  0.0376 -1.1830
 6990TIP3    H242386   2.900   2.624   2.020  0.4175 -0.1333 -1.3292
 6991TIP3   OH242387   6.334   0.867  15.292 -0.0890  0.0033  0.1448
 6991TIP3    H142388   6.381   0.946  15.319  1.1925  0.2305 -2.5068
 6991TIP3    H242389   6.374   0.797  15.344  0.5054  0.7398  0.7137
 6992TIP3   OH242390   4.459   5.159  14.433  0.4173 -0.5230 -0.0818
 6992TIP3    H142391   4.397   5.209  14.487  0.9720 -1.8590  1.9059
 6992TIP3    H242392   4.407   5.086  14.399  0.1929  0.0342 -0.9575
 6993TIP3   OH242393   1.999   3.280  12.519  0.2547  0.6019 -0.2947
 6993TIP3    H142394   1.976   3.340  12.449 -1.6684  0.2739 -0.0031
 6993TIP3    H242395   2.028   3.200  12.474  1.4910  1.2322 -0.6715
 6994TIP3   OH242396   5.731   6.349  15.118  0.5688 -0.2397 -0.0054
 6994TIP3    H142397   5.751   6.256  15.108  0.2921 -0.3033  0.0194
 6994TIP3    H242398   5.638   6.351  15.139  0.4525  0.0770 -0.5390
 6995TIP3   OH242399   1.091   5.998  12.608  0.0315 -0.4556  0.0702
 6995TIP3    H142400   1.043   5.915  12.612 -0.5101 -0.2662 -1.6920
 6995TIP3    H242401   1.028   6.061  12.572  0.7600  0.4754  0.3769
 6996TIP3   OH242402   4.606   2.215   1.742  0.7518  0.0497  0.1515
 6996TIP3    H142403   4.641   2.275   1.676  1.1024  0.5765  0.8047
 6996TIP3    H242404   4.547   2.158   1.693  3.3761 -1.6805 -1.2278
 6997TIP3   OH242405   5.389   4.479  16.152  0.6064 -0.2183  0.4042
 6997TIP3    H142406   5.466   4.426  16.171  1.1854 -0.3267 -1.9872
 6997TIP3    H242407   5.415   4.536  16.081 -1.0686  0.8628  0.5892
 6998TIP3   OH242408   3.460   5.045   5.380 -0.3010  0.1136 -0.5640
 6998TIP3    H142409   3.440   4.959   5.343  1.6002  0.1421 -1.7831
 6998TIP3    H242410   3.375   5.079   5.408 -0.9496 -2.8969  1.7182
 6999TIP3   OH242411   6.225   4.064  13.551  0.3524 -0.2473 -0.1463
 6999TIP3    H142412   6.272   4.087  13.632 -0.5625  0.6019  0.1669
 6999TIP3    H242413   6.163   3.996  13.578 -0.5679  0.6598  0.0793
 7000TIP3   OH242414   5.092   5.078   2.575 -0.6712  0.1891 -0.6213
 7000TIP3    H142415   5.072   5.002   2.519 -0.0133  0.7665 -1.6702
 7000TIP3    H242416   5.130   5.039   2.654  0.4971 -0.5738 -1.5092
 7001TIP3   OH242417   0.122   5.728  15.726  0.0866 -0.2765 -0.0000
 7001TIP3    H142418   0.161   5.794  15.669  0.4320 -0.0187  0.5251
 7001TIP3    H242419   0.197   5.689  15.772 -0.0919 -1.1447 -0.4089
 7002TIP3   OH242420   3.862   4.174  16.012  0.5629 -0.4623  0.1326
 7002TIP3    H142421   3.905   4.091  16.033 -1.5171 -1.3053  1.3677
 7002TIP3    H242422   3.914   4.240  16.059  0.2876 -1.5059  2.0288
 7003TIP3   OH242423   3.647   4.016  11.687 -0.2351 -0.3482  0.0706
 7003TIP3    H142424   3.722   4.073  11.704  0.3752 -1.2575  0.5643
 7003TIP3    H242425   3.589   4.029  11.763 -0.2327 -0.1672  0.0407
 7004TIP3   OH242426   0.335   1.538  12.812  0.5030  0.6814  0.4839
 7004TIP3    H142427   0.417   1.558  12.858  0.6199  2.3780 -0.3896
 7004TIP3    H242428   0.346   1.578  12.725 -0.7760 -0.1134 -0.0647
 7005TIP3   OH242429   6.355   5.320   0.884  0.1788  0.2220  0.1438
 7005TIP3    H142430   6.327   5.322   0.793  0.5972  1.4505  0.0271
 7005TIP3    H242431   6.316   5.398   0.923  1.1189  0.4465  0.6746
 7006TIP3   OH242432   1.195   3.018  11.226  0.1634 -0.1816 -0.0591
 7006TIP3    H142433   1.152   3.095  11.189  0.1882  0.5198  1.3191
 7006TIP3    H242434   1.286   3.023  11.195  0.1501  0.3091 -0.0150
 7007TIP3   OH242435   2.315   0.277  13.184  0.0864  0.6762  0.4218
 7007TIP3    H142436   2.316   0.365  13.147 -0.8486  1.1231  1.3787
 7007TIP3    H242437   2.377   0.227  13.131 -0.0734  1.6626 -0.7292
 7008TIP3   OH242438   1.979   5.977   0.203  0.4035 -0.1781 -0.2216
 7008TIP3    H142439   1.933   6.060   0.194 -0.2071 -0.4542  0.3433
 7008TIP3    H242440   1.960   5.948   0.292  1.6751 -0.2965  0.0338
 7009TIP3   OH242441   1.697   4.180   1.084 -0.8398 -0.1017 -0.1356
 7009TIP3    H142442   1.694   4.273   1.109  1.5095  0.7698 -2.5537
 7009TIP3    H242443   1.607   4.159   1.059 -1.4556  1.4709  0.6202
 7010TIP3   OH242444   2.094   2.735  15.314 -0.1666  0.4446  0.0740
 7010TIP3    H142445   2.123   2.778  15.394 -0.4575  0.2758  0.2727
 7010TIP3    H242446   2.154   2.766  15.246  0.2683  0.3438  0.4142
 7011TIP3   OH242447   0.752   1.304   2.701  0.1239 -0.0962 -0.7681
 7011TIP3    H142448   0.726   1.388   2.663  0.8300  0.9877  1.0025
 7011TIP3    H242449   0.839   1.320   2.738 -0.9838 -0.5973  2.4069
 7012TIP3   OH242450   5.996   4.489  14.700  0.0789 -0.2240 -0.2122
 7012TIP3    H142451   5.965   4.408  14.740 -1.3619 -0.1158 -1.0334
 7012TIP3    H242452   5.998   4.470  14.606 -2.9685  1.4332 -0.7398
 7013TIP3   OH242453   6.403   0.688   1.223 -0.3902 -0.1639 -0.6598
 7013TIP3    H142454   6.330   0.680   1.285 -0.2864  0.2057 -0.4863
 7013TIP3    H242455   6.454   0.608   1.236  0.0559  0.2574  0.2937
 7014TIP3   OH242456   5.860   3.634  12.640  0.0975  0.4101 -0.0561
 7014TIP3    H142457   5.765   3.624  12.639 -0.0828  1.4200  2.0502
 7014TIP3    H242458   5.874   3.729  12.633  1.0596  0.1883 -1.9742
 7015TIP3   OH242459   3.326   1.789  12.354 -0.1765 -0.0255 -0.1521
 7015TIP3    H142460   3.366   1.704  12.334  2.1353  0.5932  1.5316
 7015TIP3    H242461   3.295   1.821  12.269 -0.6583 -2.2896 -0.9005
 7016TIP3   OH242462   0.108   2.786  15.790  0.1379  0.2652 -0.0823
 7016TIP3    H142463   0.136   2.698  15.765  0.1089  0.0247  0.7171
 7016TIP3    H242464   0.131   2.794  15.882 -1.2468  0.5314  0.2723
 7017TIP3   OH242465   1.269   0.381  15.038  0.3931 -0.0529 -0.5285
 7017TIP3    H142466   1.199   0.385  14.971  0.8720 -0.0314 -1.0340
 7017TIP3    H242467   1.287   0.473  15.058  0.0998 -0.0643 -0.2106
 7018TIP3   OH242468   5.720   2.275  11.473 -0.0036  0.1069 -0.3930
 7018TIP3    H142469   5.701   2.367  11.455 -2.0473 -0.0555  0.5601
 7018TIP3    H242470   5.636   2.239  11.502  0.7922 -2.0168 -0.5391
 7019TIP3   OH242471   1.451   1.117  15.698 -0.3187 -0.8444 -0.1107
 7019TIP3    H142472   1.365   1.150  15.724  0.9324  3.4405 -0.6378
 7019TIP3    H242473   1.455   1.133  15.604  0.7024 -2.0344 -0.2980
 7020TIP3   OH242474   5.460   3.724  14.409 -0.4392  0.2179 -0.2204
 7020TIP3    H142475   5.529   3.745  14.471 -1.0211 -1.3736  1.0416
 7020TIP3    H242476   5.485   3.639  14.373 -1.6601 -0.3312  0.1784
 7021TIP3   OH242477   1.201   2.018   5.618  0.3078 -0.5978 -0.2556
 7021TIP3    H142478   1.141   2.028   5.544  1.1965  0.3751 -0.8793
 7021TIP3    H242479   1.265   1.953   5.588  0.0537 -1.0181  0.0931
 7022TIP3   OH242480   5.379   5.264  12.269 -0.2540  0.0731 -0.6962
 7022TIP3    H142481   5.406   5.299  12.355 -0.1522 -0.8385 -0.3444
 7022TIP3    H242482   5.283   5.264  12.272 -0.2510  0.0630 -0.5866
 7023TIP3   OH242483   0.388   2.458   4.849 -0.0515  0.1963  0.1748
 7023TIP3    H142484   0.370   2.521   4.780  0.3625 -0.3922 -0.4841
 7023TIP3    H242485   0.309   2.456   4.902 -0.7745 -0.1134 -0.8994
 7024TIP3   OH242486   1.728   5.672   2.470 -0.3143 -0.1883 -0.5829
 7024TIP3    H142487   1.746   5.578   2.466 -2.1066 -0.7577  2.2763
 7024TIP3    H242488   1.655   5.684   2.410  1.0278 -0.2031 -2.3204
 7025TIP3   OH242489   5.619   6.788   2.261 -0.1144 -0.4014  0.5128
 7025TIP3    H142490   5.682   6.839   2.312 -0.8695  1.4434 -0.3098
 7025TIP3    H242491   5.539   6.841   2.261 -0.4934 -0.8845 -1.6235
 7026TIP3   OH242492   5.906   2.090   0.161 -0.4384  0.3045  0.1637
 7026TIP3    H142493   5.936   2.068   0.249  1.5844 -1.2207 -0.8206
 7026TIP3    H242494   5.986   2.102   0.110 -1.5127 -0.2869 -1.7981
 7027TIP3   OH242495   5.118   4.558   1.178 -0.3558  0.9799  0.0605
 7027TIP3    H142496   5.086   4.544   1.267 -0.2023  1.9847  0.2833
 7027TIP3    H242497   5.059   4.506   1.123  0.4593 -0.8544  0.8482
 7028TIP3   OH242498   0.289   3.296  12.257  0.2123 -0.5549 -0.0074
 7028TIP3    H142499   0.203   3.323  12.227  0.7701  1.0669 -0.2169
 7028TIP3    H242500   0.290   3.315  12.351  1.0289  1.4018 -0.3764
 7029TIP3   OH242501   2.667   1.980   2.760 -0.3406  0.1371 -0.5119
 7029TIP3    H142502   2.612   1.907   2.788 -1.5128  0.6607 -1.3577
 7029TIP3    H242503   2.630   2.006   2.676  0.7858  0.9608 -0.7663
 7030TIP3   OH242504   6.211   6.108  13.231 -0.2073 -0.3086 -0.1993
 7030TIP3    H142505   6.242   6.023  13.263  0.0280  0.1098  0.7134
 7030TIP3    H242506   6.206   6.098  13.136  1.4204 -0.8206 -0.2520
 7031TIP3   OH242507   0.488   5.958  12.366 -1.0239 -0.7520 -0.1108
 7031TIP3    H142508   0.562   5.957  12.305 -1.3207  2.0264 -0.6597
 7031TIP3    H242509   0.443   5.875  12.350  1.6648 -2.3423 -0.0533
 7032TIP3   OH242510   2.754   3.186  13.822  0.0039  0.2767  0.1670
 7032TIP3    H142511   2.844   3.159  13.802  0.0155  0.8852 -0.6211
 7032TIP3    H242512   2.752   3.280  13.804 -1.1132  0.0552 -1.0075
 7033TIP3   OH242513   6.472   4.633  14.026 -0.2615 -0.5151  0.3278
 7033TIP3    H142514   6.419   4.620  13.947  1.2660 -2.5886 -0.4502
 7033TIP3    H242515   6.561   4.644  13.994 -0.0655  2.8588  1.6042
 7034TIP3   OH242516   3.029   2.444  10.465 -0.0727  0.0383  0.6871
 7034TIP3    H142517   3.011   2.447  10.559 -1.8074  2.0669  0.3637
 7034TIP3    H242518   2.947   2.416  10.426  0.5842 -0.6154 -0.2721
 7035TIP3   OH242519   2.135   1.633   4.259  0.3079  0.5305 -0.6749
 7035TIP3    H142520   2.083   1.691   4.314  1.5437 -1.8559  3.5118
 7035TIP3    H242521   2.077   1.561   4.237  0.7212 -0.2981  0.7942
 7036TIP3   OH242522   3.997   6.310  12.202  0.2049 -0.3929 -0.1196
 7036TIP3    H142523   3.950   6.337  12.123 -0.0198 -0.9043 -0.1678
 7036TIP3    H242524   3.929   6.277  12.260  0.4584 -0.7629 -0.0304
 7037TIP3   OH242525   0.764   3.044  12.721  0.1001 -0.0164  0.7383
 7037TIP3    H142526   0.839   3.024  12.664 -0.7491 -0.9910 -0.0661
 7037TIP3    H242527   0.782   2.995  12.802  0.7391  0.4491  0.8897
 7038TIP3   OH242528   5.731   6.661  14.119  0.2254  0.4566  0.3061
 7038TIP3    H142529   5.687   6.661  14.204  1.3806 -0.2726  0.9350
 7038TIP3    H242530   5.752   6.753  14.102 -1.7945  0.8695 -0.1789
 7039TIP3   OH242531   4.834   0.193   2.481 -0.5993 -0.6271 -0.0892
 7039TIP3    H142532   4.853   0.142   2.560  1.3080  0.4155  0.1911
 7039TIP3    H242533   4.771   0.259   2.509 -1.3020 -1.3562  0.0980
 7040TIP3   OH242534   1.279   1.474  11.035  0.2408 -0.3241 -0.5165
 7040TIP3    H142535   1.235   1.473  10.949 -1.3529  0.8755  0.2386
 7040TIP3    H242536   1.329   1.555  11.035 -0.5892  0.2040  0.0549
 7041TIP3   OH242537   4.503   2.042   0.966  0.1082  0.2003 -0.2919
 7041TIP3    H142538   4.425   2.088   0.996 -0.3113  0.5818 -1.8863
 7041TIP3    H242539   4.563   2.111   0.939  1.7305  0.0037  2.4557
 7042TIP3   OH242540   2.850   4.175  14.094  0.0652  0.3569  0.1872
 7042TIP3    H142541   2.765   4.134  14.111 -1.1714  1.9764 -1.5713
 7042TIP3    H242542   2.872   4.149  14.004 -0.0378  2.1909 -0.4303
 7043TIP3   OH242543   4.711   3.393   3.983  0.0186 -0.3435 -0.1828
 7043TIP3    H142544   4.725   3.448   3.906  2.3414 -0.1923  0.2675
 7043TIP3    H242545   4.669   3.450   4.047 -0.0438  0.1215 -0.6352
 7044TIP3   OH242546   5.200   2.692  12.130 -0.4497  0.7470  0.0940
 7044TIP3    H142547   5.213   2.763  12.066 -0.7190 -0.4382 -1.3120
 7044TIP3    H242548   5.281   2.642  12.126 -0.4675  0.6608  0.7110
 7045TIP3   OH242549   6.535   6.559   3.177 -0.0431  0.4056  0.2090
 7045TIP3    H142550   6.558   6.644   3.138 -1.0541 -0.1020 -1.6151
 7045TIP3    H242551   6.605   6.542   3.240  1.0980  1.7931 -0.6166
 7046TIP3   OH242552   4.193   2.137   2.861  0.0374 -0.2326 -0.4706
 7046TIP3    H142553   4.177   2.139   2.955 -1.0661 -0.2845 -0.6394
 7046TIP3    H242554   4.284   2.165   2.851  0.3937 -0.9266  0.6518
 7047TIP3   OH242555   4.774   2.638   6.404 -0.5528 -0.0745 -0.5261
 7047TIP3    H142556   4.815   2.698   6.342 -0.1130  0.8452  0.6094
 7047TIP3    H242557   4.801   2.551   6.375  0.9299  0.4226 -0.7219
 7048TIP3   OH242558   4.942   2.851   2.745 -0.3510 -0.0578  0.3692
 7048TIP3    H142559   4.977   2.924   2.694 -2.4381  1.4512  1.0015
 7048TIP3    H242560   4.850   2.845   2.720 -0.3065 -2.3409  0.5358
 7049TIP3   OH242561   1.452   1.168  15.415  0.3680 -0.2044  0.1238
 7049TIP3    H142562   1.447   1.081  15.376 -3.0456  0.5178 -1.4054
 7049TIP3    H242563   1.448   1.228  15.340  0.3916  1.2805  1.2692
 7050TIP3   OH242564   5.900   3.241  10.479  0.0862  0.1155 -0.1048
 7050TIP3    H142565   5.951   3.165  10.506  0.8549  0.2897 -1.0343
 7050TIP3    H242566   5.954   3.285  10.413 -1.6920 -0.2491 -1.8990
 7051TIP3   OH242567   3.691   5.827  11.241  0.0115 -0.0092  0.2761
 7051TIP3    H142568   3.753   5.756  11.253 -1.2164 -1.3107 -0.7892
 7051TIP3    H242569   3.642   5.804  11.162 -1.2015  1.4397  0.5479
 7052TIP3   OH242570   6.039   5.061  13.294 -0.0603 -0.0904 -0.6778
 7052TIP3    H142571   6.126   5.032  13.321 -0.9456 -1.9638  0.4111
 7052TIP3    H242572   6.008   4.991  13.236 -1.6943 -0.6681  0.7920
 7053TIP3   OH242573   3.473   1.660  12.945 -0.3071  0.9026 -0.2729
 7053TIP3    H142574   3.453   1.593  13.010 -0.8438  0.8273 -0.5098
 7053TIP3    H242575   3.387   1.694  12.918 -0.0760  1.1539 -0.7057
 7054TIP3   OH242576   6.275   3.731   1.664 -0.5204 -0.4156  0.0901
 7054TIP3    H142577   6.253   3.822   1.685 -0.3536 -0.3523 -0.0100
 7054TIP3    H242578   6.311   3.735   1.576  1.5022 -0.2721  0.8749
 7055TIP3   OH242579   2.496   4.987  14.253 -0.6307 -0.7670 -0.0464
 7055TIP3    H142580   2.523   5.048  14.323 -0.5955 -0.3520 -0.4202
 7055TIP3    H242581   2.546   5.015  14.177 -2.3227  0.2005 -0.8407
 7056TIP3   OH242582   3.356   5.136  16.365 -0.4780 -0.1596  0.6160
 7056TIP3    H142583   3.275   5.180  16.392 -0.8981 -1.5929  1.8476
 7056TIP3    H242584   3.350   5.048  16.404  0.9627 -0.8354 -0.5691
 7057TIP3   OH242585   0.758   5.833   4.577 -0.9365  0.1144  0.1809
 7057TIP3    H142586   0.718   5.815   4.662  0.0517  0.3170  0.7063
 7057TIP3    H242587   0.840   5.878   4.598  0.5320 -1.9826 -0.7520
 7058TIP3   OH242588   1.497   6.426  13.752  0.2686  0.1921  0.1085
 7058TIP3    H142589   1.475   6.344  13.796  2.6595 -0.7908 -0.3714
 7058TIP3    H242590   1.413   6.463  13.726 -0.8805 -1.9858  0.5434
 7059TIP3   OH242591   2.733   4.145  11.416 -0.0767  0.2186 -0.4546
 7059TIP3    H142592   2.692   4.085  11.354  0.3995 -0.5582 -0.0300
 7059TIP3    H242593   2.664   4.208  11.437 -1.6060 -1.8918  1.3456
 7060TIP3   OH242594   3.625   3.120  14.923 -0.2334  0.6198 -0.0755
 7060TIP3    H142595   3.647   3.097  15.013  0.4565  0.2585 -0.3290
 7060TIP3    H242596   3.538   3.082  14.909  0.6491 -1.4404 -0.3140
 7061TIP3   OH242597   1.128   4.007   3.584 -0.0756 -0.6313  0.0579
 7061TIP3    H142598   1.144   4.026   3.491  0.9805  2.6786  0.7899
 7061TIP3    H242599   1.177   4.074   3.631  0.7074 -3.1409  3.1236
 7062TIP3   OH242600   2.749   6.744  14.539  0.0150  0.1241  0.3756
 7062TIP3    H142601   2.656   6.760  14.528 -0.3190 -1.6448  0.3049
 7062TIP3    H242602   2.757   6.649  14.545  1.9749  0.1193 -1.1581
 7063TIP3   OH242603   1.695   1.233   0.603  0.4704  0.6115  0.0545
 7063TIP3    H142604   1.612   1.227   0.556  0.9418  2.7152 -1.1903
 7063TIP3    H242605   1.670   1.245   0.695 -0.5227 -0.7130 -0.0085
 7064TIP3   OH242606   6.307   1.519   4.125 -0.5590 -0.2152 -0.2956
 7064TIP3    H142607   6.365   1.508   4.200 -0.8392 -1.8935 -0.2925
 7064TIP3    H242608   6.257   1.437   4.120 -1.0348  0.1265 -1.8945
 7065TIP3   OH242609   4.265   1.626   0.624  0.6679  0.1675 -0.9605
 7065TIP3    H142610   4.175   1.648   0.601  0.9999  0.9758 -1.5569
 7065TIP3    H242611   4.307   1.710   0.639  1.0528 -0.2441  0.4446
 7066TIP3   OH242612   0.581   0.482  14.619 -0.1436 -0.0690  0.0568
 7066TIP3    H142613   0.601   0.485  14.526  1.5654 -2.2645  0.2852
 7066TIP3    H242614   0.486   0.468  14.622 -0.0994 -0.8869 -1.3954
 7067TIP3   OH242615   3.523   5.120   6.050 -0.3610  0.3016  0.1654
 7067TIP3    H142616   3.457   5.158   5.993 -1.1091  0.9448  1.4166
 7067TIP3    H242617   3.581   5.193   6.071 -0.3642  0.1816  0.6030
 7068TIP3   OH242618   2.513   4.078  14.804 -0.5633  0.0894 -0.3688
 7068TIP3    H142619   2.441   4.060  14.864 -0.6358 -1.0459 -0.7775
 7068TIP3    H242620   2.523   4.173  14.806 -2.2185  0.2973 -0.4792
 7069TIP3   OH242621   4.025   0.561  13.202  0.5396 -0.4311 -0.2018
 7069TIP3    H142622   3.984   0.497  13.143 -2.5863  0.5247  0.7461
 7069TIP3    H242623   4.029   0.517  13.287  2.5021 -0.8348 -0.4497
 7070TIP3   OH242624   4.818   1.568  12.746  0.0155  0.3622  0.3099
 7070TIP3    H142625   4.792   1.634  12.681  0.6722  1.0823  0.7521
 7070TIP3    H242626   4.819   1.486  12.697 -0.1609  0.7861 -0.4313
 7071TIP3   OH242627   6.010   5.898  11.632 -0.2820  0.1418  0.4721
 7071TIP3    H142628   5.940   5.875  11.570  0.0134 -3.4260  1.2641
 7071TIP3    H242629   5.981   5.863  11.715  0.6527  2.3119  1.8001
 7072TIP3   OH242630   6.390   2.218   0.176  0.0330  0.0597 -0.0273
 7072TIP3    H142631   6.482   2.227   0.201 -0.2930  1.1460  0.8534
 7072TIP3    H242632   6.354   2.157   0.241  0.4736 -1.7072 -1.3622
 7073TIP3   OH242633   1.128   2.043   2.868 -0.0384 -0.1385 -0.6588
 7073TIP3    H142634   1.068   2.117   2.857  2.1819  1.9729  0.3336
 7073TIP3    H242635   1.192   2.055   2.798  1.3111 -0.0590  0.5474
 7074TIP3   OH242636   1.220   3.569  11.284 -0.0271 -0.3160  0.3403
 7074TIP3    H142637   1.234   3.554  11.190 -1.3006 -1.8543  0.3622
 7074TIP3    H242638   1.199   3.663  11.290 -1.7044 -0.5284 -1.1898
 7075TIP3   OH242639   0.849   1.939   1.677 -0.4149 -0.0475  0.9526
 7075TIP3    H142640   0.843   2.032   1.655  2.4322  0.0151  0.1088
 7075TIP3    H242641   0.793   1.896   1.613 -0.6392  0.9754  0.4375
 7076TIP3   OH242642   5.168   2.140  12.879  0.3939 -0.1894  0.3810
 7076TIP3    H142643   5.189   2.057  12.836 -1.4358 -0.6821  0.3744
 7076TIP3    H242644   5.251   2.188  12.880  0.8898 -0.8974 -2.0416
 7077TIP3   OH242645   1.639   3.625   1.419  0.7113  0.0465 -0.0016
 7077TIP3    H142646   1.557   3.621   1.467  1.5701 -2.1697  1.4253
 7077TIP3    H242647   1.616   3.596   1.330 -0.0048 -0.7363  0.4324
 7078TIP3   OH242648   5.767   0.962   5.793 -0.3802 -0.1558 -0.6150
 7078TIP3    H142649   5.805   1.010   5.719 -2.7241  2.0950 -0.5004
 7078TIP3    H242650   5.775   1.023   5.866 -0.6900 -1.2052  0.3026
 7079TIP3   OH242651   5.790   2.727   6.359  0.4031  0.3934 -0.0480
 7079TIP3    H142652   5.834   2.674   6.424 -1.3360 -2.0817 -0.7212
 7079TIP3    H242653   5.827   2.699   6.275 -0.3329  0.4284 -0.4010
 7080TIP3   OH242654   4.417   2.930  15.277 -0.1297  0.2946  0.2911
 7080TIP3    H142655   4.365   2.912  15.199 -1.2715  1.8444  0.6494
 7080TIP3    H242656   4.493   2.979  15.246  0.1891 -0.3739 -0.0049
 7081TIP3   OH242657   3.235   4.089   2.072 -0.6287 -0.0790 -0.0629
 7081TIP3    H142658   3.169   4.097   2.141 -0.1383 -0.8774  0.5008
 7081TIP3    H242659   3.306   4.147   2.100  0.6874 -2.2824  1.4349
 7082TIP3   OH242660   0.238   1.500  16.640  0.0509 -0.0365 -0.7090
 7082TIP3    H142661   0.215   1.544  16.558 -1.0203 -1.4013 -1.1831
 7082TIP3    H242662   0.200   1.554  16.709  2.7848  2.3283 -0.8767
 7083TIP3   OH242663   6.453   4.474   2.106 -0.0175 -0.3986 -0.1566
 7083TIP3    H142664   6.437   4.481   2.200  2.4380 -0.2819  0.3234
 7083TIP3    H242665   6.407   4.550   2.068  2.3170  2.0025  1.4965
 7084TIP3   OH242666   1.295   6.021  10.644  0.1879 -0.3516  0.1456
 7084TIP3    H142667   1.228   6.069  10.597  0.9470 -0.7203 -1.3710
 7084TIP3    H242668   1.249   5.946  10.682 -0.1028 -1.2223 -1.8173
 7085TIP3   OH242669   2.865   0.391   0.230  0.4528  0.0088 -0.7026
 7085TIP3    H142670   2.897   0.308   0.196 -0.9531 -0.8092 -0.1241
 7085TIP3    H242671   2.833   0.370   0.318 -1.1429  0.8806 -1.0447
 7086TIP3   OH242672   2.096   4.949   4.595  0.7409 -0.7658  0.2244
 7086TIP3    H142673   2.104   4.917   4.505 -0.9986 -3.4005  0.8815
 7086TIP3    H242674   2.185   4.977   4.618  1.0350  0.9756 -2.5787
 7087TIP3   OH242675   4.493   0.363  15.733  0.1439 -0.2031  0.4807
 7087TIP3    H142676   4.530   0.386  15.648 -0.5576  0.4731  0.3422
 7087TIP3    H242677   4.568   0.355  15.791  0.5364  0.8431  0.1471
 7088TIP3   OH242678   4.272   6.413  14.213 -0.3042 -0.4949 -0.5198
 7088TIP3    H142679   4.268   6.337  14.155 -2.3536 -0.5192 -0.4036
 7088TIP3    H242680   4.324   6.384  14.288 -1.5956 -2.0127 -0.1807
 7089TIP3   OH242681   3.994   2.534   0.042  0.0143 -0.0576  0.1414
 7089TIP3    H142682   3.916   2.570  -0.001 -0.2590  0.1337  0.7924
 7089TIP3    H242683   4.064   2.597   0.021  0.1809 -0.6193 -1.0782
 7090TIP3   OH242684   6.161   2.228  11.480  0.3259 -0.4045  0.7700
 7090TIP3    H142685   6.154   2.135  11.498 -0.8497 -0.3493  0.6569
 7090TIP3    H242686   6.158   2.270  11.566  1.0053 -0.4682  0.8312
 7091TIP3   OH242687   0.418   0.212   4.761 -0.4865  0.8550  0.0087
 7091TIP3    H142688   0.439   0.305   4.750 -2.8007  1.8757  2.9013
 7091TIP3    H242689   0.439   0.193   4.853 -0.2447 -1.4639 -0.4560
 7092TIP3   OH242690   0.856   3.059  15.773 -0.1984 -0.2188  0.0176
 7092TIP3    H142691   0.904   3.142  15.772  1.0337 -0.8928 -0.1198
 7092TIP3    H242692   0.802   3.061  15.694  0.1019  0.3078 -0.1774
 7093TIP3   OH242693   0.440   3.870  16.603 -0.1162 -0.9269 -0.5048
 7093TIP3    H142694   0.393   3.858  16.686 -0.9902  0.7107 -0.7197
 7093TIP3    H242695   0.411   3.797  16.549 -2.6759  0.1221 -0.7052
 7094TIP3   OH242696   0.264   0.700  14.493 -0.2488  0.0222  0.4388
 7094TIP3    H142697   0.243   0.607  14.502  1.4234 -0.3437  1.0386
 7094TIP3    H242698   0.300   0.724  14.578  2.2122  0.3912 -0.6304
 7095TIP3   OH242699   5.416   2.685   1.901  0.2197 -0.0333 -0.0456
 7095TIP3    H142700   5.448   2.615   1.958  1.8801 -0.4919 -1.4831
 7095TIP3    H242701   5.354   2.642   1.843  0.6054 -0.1527 -0.3747
 7096TIP3   OH242702   1.285   6.139   3.206 -0.0329 -0.1547  0.1751
 7096TIP3    H142703   1.205   6.142   3.154  0.4581 -0.0360 -0.5843
 7096TIP3    H242704   1.328   6.223   3.189 -0.9522  0.8959  2.5467
 7097TIP3   OH242705   5.090   2.840   3.008 -0.0500  0.1946 -0.1189
 7097TIP3    H142706   5.041   2.823   2.928 -0.7494 -0.5248  0.4406
 7097TIP3    H242707   5.024   2.835   3.077  0.2762  2.1685  0.3928
 7098TIP3   OH242708   2.090   0.085  16.836  0.0178  0.4442  0.5043
 7098TIP3    H142709   2.042   0.107  16.916  0.9535  1.7372  0.7400
 7098TIP3    H242710   2.063   0.151  16.772  0.4632  0.3754  0.2370
 7099TIP3   OH242711   1.316   2.901   3.751 -0.5820  0.2313  0.2337
 7099TIP3    H142712   1.240   2.934   3.703 -0.9405  1.5126  1.5807
 7099TIP3    H242713   1.285   2.894   3.842  0.7511  0.2732  0.7148
 7100TIP3   OH242714   6.339   2.992   2.022  0.0327  0.0945  0.1729
 7100TIP3    H142715   6.326   3.066   1.963 -0.4199  0.2637  0.4781
 7100TIP3    H242716   6.290   2.920   1.981  1.5868 -0.4454 -0.8441
 7101TIP3   OH242717   0.553   4.985   2.811 -0.7052  0.5973 -0.5350
 7101TIP3    H142718   0.523   5.048   2.876 -0.0079  0.9792 -0.5763
 7101TIP3    H242719   0.597   5.038   2.744  1.8001 -0.0891  0.4920
 7102TIP3   OH242720   0.922   3.269   3.322 -0.0464  0.3165  0.1691
 7102TIP3    H142721   1.007   3.259   3.279 -0.0039  1.1690  0.0530
 7102TIP3    H242722   0.935   3.338   3.386  0.2898 -1.8807  2.6479
 7103TIP3   OH242723   5.338   0.974   3.542 -0.1849  0.4406  0.4747
 7103TIP3    H142724   5.367   0.905   3.601  2.5532  0.8852 -0.2498
 7103TIP3    H242725   5.269   1.019   3.591 -0.1677 -1.1227  2.0317
 7104TIP3   OH242726   6.280   3.904   0.557 -0.6057 -0.9169 -0.2856
 7104TIP3    H142727   6.303   3.822   0.600  0.6837  0.4480  1.7984
 7104TIP3    H242728   6.187   3.895   0.537 -0.6522 -2.6285  0.4546
 7105TIP3   OH242729   2.880   3.013   0.816 -0.0141 -0.1364 -0.1352
 7105TIP3    H142730   2.902   3.059   0.897 -2.1628  0.7030  0.0353
 7105TIP3    H242731   2.800   2.963   0.837  0.0680 -0.8625 -1.4064
 7106TIP3   OH242732   0.695   4.129  17.032 -1.0581  0.0113  0.4323
 7106TIP3    H142733   0.645   4.126  17.114 -1.6032  2.2949  0.2384
 7106TIP3    H242734   0.753   4.053  17.037 -1.9395 -0.6069  2.3594
 7107TIP3   OH242735   6.459   4.605   2.951  0.0121  0.2940  0.0246
 7107TIP3    H142736   6.366   4.620   2.972 -0.0191 -0.4638  0.4713
 7107TIP3    H242737   6.492   4.556   3.026  0.5099 -0.3768 -0.6228
 7108TIP3   OH242738   6.466   1.855   3.473 -0.6140  0.1664  0.6310
 7108TIP3    H142739   6.410   1.849   3.396 -0.6887  3.0162  0.3612
 7108TIP3    H242740   6.525   1.780   3.466 -1.0381 -0.0126 -1.8603
 7109TIP3   OH242741   5.468   4.663  13.829  0.0068  0.3877 -0.0953
 7109TIP3    H142742   5.380   4.629  13.810 -0.3356 -0.5458  2.7050
 7109TIP3    H242743   5.525   4.618  13.766 -1.2698 -0.5249 -0.6498
 7110TIP3   OH242744   1.399   4.048  11.444  0.2679  0.2533 -0.3276
 7110TIP3    H142745   1.350   4.126  11.420  0.7118  0.4679 -0.5439
 7110TIP3    H242746   1.491   4.075  11.442  0.4355 -0.3072 -0.5500
 7111TIP3   OH242747   2.535   0.538  13.304 -0.5298  0.5083 -0.2746
 7111TIP3    H142748   2.558   0.458  13.352  0.6816  1.2824  0.4998
 7111TIP3    H242749   2.561   0.609  13.363 -1.4377  1.4831 -1.0124
 7112TIP3   OH242750   6.280   1.878  12.989 -0.1744  0.2204  0.0152
 7112TIP3    H142751   6.197   1.861  12.945  0.1506  1.4910 -1.1456
 7112TIP3    H242752   6.254   1.916  13.074 -0.7987  1.6500 -0.7847
 7113TIP3   OH242753   6.243   5.074   1.985 -0.2175 -0.3399  0.2235
 7113TIP3    H142754   6.229   5.048   2.076  2.2869  0.6452  0.9713
 7113TIP3    H242755   6.213   5.165   1.981  1.6731  0.3317  0.6784
 7114TIP3   OH242756   3.632   6.593   1.927  0.6260  0.4393 -0.1733
 7114TIP3    H142757   3.552   6.583   1.876  0.6925 -0.6362 -0.0773
 7114TIP3    H242758   3.678   6.666   1.885  0.1797  0.2666 -0.9819
 7115TIP3   OH242759   5.938   3.538   5.450 -0.4369 -0.2554 -0.0956
 7115TIP3    H142760   5.877   3.566   5.519  1.4699  0.6842  1.3286
 7115TIP3    H242761   5.941   3.443   5.458  0.4794 -0.1220  1.8943
 7116TIP3   OH242762   5.220   1.690   5.803 -0.0523  0.0437 -0.6325
 7116TIP3    H142763   5.168   1.741   5.865 -0.9497 -0.5200 -0.8911
 7116TIP3    H242764   5.242   1.610   5.851  0.9407  0.4613 -0.3862
 7117TIP3   OH242765   5.434   1.772   5.010  0.3492 -0.0376 -0.0445
 7117TIP3    H142766   5.528   1.787   4.999  0.2146  1.0967  0.1773
 7117TIP3    H242767   5.397   1.860   5.018 -1.0342 -0.3017 -2.5203
 7118TIP3   OH242768   5.480   3.911  11.455  0.3184 -0.0908  0.2645
 7118TIP3    H142769   5.407   3.888  11.512 -1.4770  1.1621 -1.4377
 7118TIP3    H242770   5.453   3.991  11.411  2.5012  0.1164 -0.8609
 7119TIP3   OH242771   6.038   2.979   4.222 -0.6890 -0.2013 -0.6904
 7119TIP3    H142772   6.045   3.017   4.134  1.2399  1.4725  0.0870
 7119TIP3    H242773   6.122   3.000   4.263 -1.8346 -0.1875  1.8340
 7120TIP3   OH242774   5.418   0.513   2.498  0.0982  0.6168 -0.0300
 7120TIP3    H142775   5.514   0.516   2.490 -0.0375  0.0219 -2.6689
 7120TIP3    H242776   5.398   0.421   2.513 -0.1551  0.1864 -2.5746
 7121TIP3   OH242777   2.184   6.754  12.312  0.4030  0.2763 -0.2861
 7121TIP3    H142778   2.089   6.765  12.314  0.4295  0.8105 -1.1819
 7121TIP3    H242779   2.199   6.665  12.345 -0.3708  0.3358  0.2476
 7122TIP3   OH242780   6.010   0.441  14.060  0.3341 -0.2502 -0.5602
 7122TIP3    H142781   6.051   0.459  14.144  1.3016 -0.6549 -0.9267
 7122TIP3    H242782   5.934   0.498  14.057  1.3458  1.1883 -0.2088
 7123TIP3   OH242783   3.101   3.624   5.236 -0.2610  0.4225 -0.3092
 7123TIP3    H142784   3.178   3.577   5.204  0.1240  1.5189 -1.0665
 7123TIP3    H242785   3.070   3.572   5.310 -0.3920 -1.4882 -1.6421
 7124TIP3   OH242786   4.123   6.155  15.426  0.5724  0.0744  0.5100
 7124TIP3    H142787   4.100   6.068  15.394 -0.3904  0.6919 -0.5225
 7124TIP3    H242788   4.067   6.167  15.503 -0.0923  0.2013  0.0159
 7125TIP3   OH242789   2.304   1.034   1.118 -0.1693  0.4738  0.0025
 7125TIP3    H142790   2.339   1.041   1.207  0.7415 -1.3468 -0.1678
 7125TIP3    H242791   2.376   0.999   1.066 -2.2063 -3.9721 -0.2585
 7126TIP3   OH242792   2.030   4.648  16.347 -0.0374  0.3780  0.0819
 7126TIP3    H142793   1.969   4.633  16.275  0.4031 -0.8196 -0.0594
 7126TIP3    H242794   2.090   4.715  16.313  0.0647 -0.0556 -0.6109
 7127TIP3   OH242795   6.475   0.585  12.985 -0.2646  0.2234 -0.2176
 7127TIP3    H142796   6.478   0.491  12.967  1.1437  0.2589 -0.2966
 7127TIP3    H242797   6.509   0.626  12.905  1.3976  0.6444  0.6570
 7128TIP3   OH242798   1.221   0.522  12.109 -0.1883  0.4146  0.4265
 7128TIP3    H142799   1.250   0.576  12.035 -0.8815  0.8128  0.4409
 7128TIP3    H242800   1.263   0.437  12.094 -1.0495  0.1992 -0.9304
 7129TIP3   OH242801   2.703   0.927  13.888 -0.2325 -0.2106  0.4346
 7129TIP3    H142802   2.722   0.947  13.979  0.6590 -1.4343  0.5444
 7129TIP3    H242803   2.786   0.942  13.842 -0.9511  1.4928 -0.4010
 7130TIP3   OH242804   5.030   1.165   1.571  0.3947 -0.0527  0.1197
 7130TIP3    H142805   5.014   1.179   1.478  2.1304 -0.8776 -0.3400
 7130TIP3    H242806   5.014   1.071   1.584  0.4775 -0.0039  0.5861
 7131TIP3   OH242807   3.331   1.954   1.002 -1.0264  0.0484  0.4739
 7131TIP3    H142808   3.322   1.918   0.914 -2.9478 -0.0492  0.6514
 7131TIP3    H242809   3.273   2.031   1.002  0.1152  0.9401  1.2223
 7132TIP3   OH242810   0.525   2.015  15.703  0.3693 -0.3344  0.4902
 7132TIP3    H142811   0.556   2.002  15.613 -1.6560 -0.4083 -0.2555
 7132TIP3    H242812   0.499   1.928  15.732 -0.8917 -0.0188  0.3631
 7133TIP3   OH242813   0.345   2.716  14.001 -0.0460  0.2253 -0.7825
 7133TIP3    H142814   0.313   2.791  13.950 -1.1633 -0.4387 -1.0926
 7133TIP3    H242815   0.313   2.733  14.090  0.6606  0.6596 -0.6021
 7134TIP3   OH242816   0.224   0.996   0.379  0.1796  0.1437  0.0768
 7134TIP3    H142817   0.144   1.045   0.363  0.4481  0.9771  1.1758
 7134TIP3    H242818   0.293   1.049   0.338  0.4286  0.5562  0.9957
 7135TIP3   OH242819   5.692   4.391   2.003 -0.6991 -0.1263 -0.1049
 7135TIP3    H142820   5.750   4.457   2.041 -1.4382  0.5943 -0.2074
 7135TIP3    H242821   5.743   4.309   2.007 -0.8792 -0.2125  2.8547
 7136TIP3   OH242822   1.061   2.433   3.092 -0.0393 -0.5341 -0.7352
 7136TIP3    H142823   1.141   2.383   3.108 -0.4847 -0.9749  0.1466
 7136TIP3    H242824   0.990   2.377   3.122 -0.4542  1.3473  2.2093
 7137TIP3   OH242825   3.844   5.823   6.144 -0.2197  0.1146  0.0304
 7137TIP3    H142826   3.809   5.747   6.098 -0.7819  0.4579 -0.1104
 7137TIP3    H242827   3.770   5.857   6.195 -0.4373  1.5553 -1.1855
 7138TIP3   OH242828   4.641   5.870   2.749 -0.0760  0.6187  0.0426
 7138TIP3    H142829   4.604   5.920   2.822 -0.1068 -0.6021  0.8834
 7138TIP3    H242830   4.664   5.785   2.787  0.7159  0.2645 -1.1774
 7139TIP3   OH242831   5.453   0.755   3.154  0.3979  0.3854  0.1553
 7139TIP3    H142832   5.483   0.813   3.223 -1.5826  0.6519  0.8595
 7139TIP3    H242833   5.434   0.672   3.197  2.0755 -0.4591 -0.6407
 7140TIP3   OH242834   6.592   0.573  13.834 -0.0051 -0.4930 -1.1373
 7140TIP3    H142835   6.498   0.556  13.841 -0.6802  2.9969  0.1106
 7140TIP3    H242836   6.624   0.560  13.924  0.1085  1.1059 -0.9317
 7141TIP3   OH242837   0.417   3.068  13.154 -0.1350 -0.2526 -0.0667
 7141TIP3    H142838   0.480   3.140  13.150 -0.8505  0.3540 -0.6516
 7141TIP3    H242839   0.422   3.027  13.068 -1.4249  0.5816 -0.5586
 7142TIP3   OH242840   4.169   0.054  13.349 -0.0714  0.5140  0.0295
 7142TIP3    H142841   4.093   0.084  13.400  0.8850  2.6933  0.2953
 7142TIP3    H242842   4.232   0.026  13.415 -0.4969 -1.0115 -0.1796
 7143TIP3   OH242843   0.385   3.870  17.098  0.3761  0.1948  0.2145
 7143TIP3    H142844   0.358   3.961  17.113  1.2414  0.4584  0.2210
 7143TIP3    H242845   0.341   3.845  17.016 -1.9377 -0.2556  1.5117
 7144TIP3   OH242846   0.861   1.460  12.645  0.2622 -0.1818  0.3668
 7144TIP3    H142847   0.827   1.371  12.646  1.0105 -0.5112  2.3725
 7144TIP3    H242848   0.952   1.451  12.618  0.8660 -0.3188  2.2727
 7145TIP3   OH242849   2.357   3.794   0.845 -0.0243 -0.1484 -0.3361
 7145TIP3    H142850   2.301   3.806   0.922 -1.5654 -0.8813 -1.2905
 7145TIP3    H242851   2.404   3.877   0.837 -3.4418  1.8602 -1.3856
 7146TIP3   OH242852   3.830   4.206   3.870 -0.0278  0.0529 -0.4599
 7146TIP3    H142853   3.782   4.253   3.802  2.1855 -0.0034 -2.1979
 7146TIP3    H242854   3.836   4.116   3.837  1.0166  0.0150 -0.2033
 7147TIP3   OH242855   6.021   5.897  15.428 -0.3217  0.3617  0.1432
 7147TIP3    H142856   6.018   5.992  15.444 -3.3691  0.4499 -0.2866
 7147TIP3    H242857   6.065   5.861  15.504 -0.0515  2.0212  0.8308
 7148TIP3   OH242858   3.556   5.222  12.463 -0.5646 -0.1920  0.3093
 7148TIP3    H142859   3.643   5.255  12.439 -0.6886  0.3946  0.6660
 7148TIP3    H242860   3.547   5.141  12.412  0.5029 -0.6651  0.8359
 7149TIP3   OH242861   1.920   5.470   3.744 -0.1869 -0.3341  0.1607
 7149TIP3    H142862   1.930   5.513   3.829  2.0749  1.0154 -0.6879
 7149TIP3    H242863   1.830   5.490   3.717 -0.3910  0.6857  1.4675
 7150TIP3   OH242864   6.347   6.164   2.608  0.3418  0.3785 -0.4511
 7150TIP3    H142865   6.400   6.108   2.665  0.5120  0.0488 -0.9291
 7150TIP3    H242866   6.337   6.113   2.527  0.1907  0.8842 -0.7532
 7151TIP3   OH242867   6.232   4.821  16.520 -0.0538 -0.5034 -0.2096
 7151TIP3    H142868   6.151   4.816  16.569  0.8540 -1.2936  1.2762
 7151TIP3    H242869   6.249   4.915  16.510 -0.0568 -0.3064  1.3861
 7152TIP3   OH242870   4.506   3.317  14.071  0.2750  0.5745  0.3949
 7152TIP3    H142871   4.486   3.237  14.120 -2.7629  0.2070 -1.1497
 7152TIP3    H242872   4.460   3.386  14.118  0.4893  0.8839  0.1499
 7153TIP3   OH242873   0.745   5.010  16.921  0.3475  0.7888  0.6073
 7153TIP3    H142874   0.703   5.087  16.961  3.0900  1.4398  2.5506
 7153TIP3    H242875   0.838   5.018  16.945  0.9616 -2.5452 -0.1295
 7154TIP3   OH242876   3.637   1.406   5.315 -0.8452 -0.4534  0.2903
 7154TIP3    H142877   3.713   1.354   5.342 -0.2634  0.0916 -0.2642
 7154TIP3    H242878   3.598   1.357   5.243 -1.0007 -0.7152  0.5508
 7155TIP3   OH242879   4.842   4.257   3.222  0.0422  0.9219 -0.5647
 7155TIP3    H142880   4.864   4.309   3.144  1.5537 -0.3931 -1.0729
 7155TIP3    H242881   4.922   4.209   3.242 -1.1120 -0.7901  0.2099
 7156TIP3   OH242882   0.461   4.864   5.045 -0.1961 -0.2556  0.3293
 7156TIP3    H142883   0.506   4.837   4.965 -0.2755  0.9329 -0.1440
 7156TIP3    H242884   0.382   4.811   5.048 -0.5843  0.2445 -0.8141
 7157TIP3   OH242885   3.466   0.966   2.433 -0.1161  0.2061 -0.1739
 7157TIP3    H142886   3.524   0.900   2.395  1.3072  0.5941  1.2003
 7157TIP3    H242887   3.389   0.967   2.375 -0.2005 -2.6137 -0.2449
 7158TIP3   OH242888   6.281   2.230   4.975  0.1440 -0.0287  0.1823
 7158TIP3    H142889   6.289   2.195   5.064  1.7860 -0.6991 -0.1843
 7158TIP3    H242890   6.226   2.166   4.929 -0.9495  0.4731  0.7803
 7159TIP3   OH242891   0.712   0.298  13.221 -0.2183 -0.3215 -0.1578
 7159TIP3    H142892   0.763   0.333  13.147  0.9004 -0.5423  0.4846
 7159TIP3    H242893   0.745   0.346  13.297 -0.4699 -0.9830  0.3725
 7160TIP3   OH242894   3.031   3.322  14.034 -0.3430  0.4024  0.7482
 7160TIP3    H142895   2.991   3.256  14.091 -0.2929 -1.2222 -0.9847
 7160TIP3    H242896   3.025   3.403  14.084 -0.1618 -0.9345  3.1025
 7161TIP3   OH242897   2.085   3.117   0.640 -0.1968 -0.5701  0.2608
 7161TIP3    H142898   2.105   3.124   0.547 -2.2380 -1.4741 -0.3005
 7161TIP3    H242899   2.127   3.194   0.680  1.8642 -0.8925 -1.1516
 7162TIP3   OH242900   5.201   1.636  16.220 -0.0773  0.1618 -0.3197
 7162TIP3    H142901   5.247   1.713  16.254  0.4346  0.1282 -0.9040
 7162TIP3    H242902   5.192   1.653  16.127 -2.2473  0.6533 -0.0637
 7163TIP3   OH242903   2.735   6.006  15.917  0.0601 -0.3225 -0.1410
 7163TIP3    H142904   2.733   5.919  15.958 -1.1030  0.2796  1.1683
 7163TIP3    H242905   2.651   6.013  15.872 -0.4512  0.5995  0.8921
 7164TIP3   OH242906   5.803   3.593   2.001  0.6524 -0.2702  0.2784
 7164TIP3    H142907   5.838   3.585   2.090 -1.4807 -0.8173  1.1083
 7164TIP3    H242908   5.775   3.505   1.977  0.2770  0.0591 -0.5591
 7165TIP3   OH242909   4.732   6.742  15.367 -0.1549  0.7746  0.6712
 7165TIP3    H142910   4.822   6.732  15.335 -0.5120  1.1656 -0.5330
 7165TIP3    H242911   4.704   6.827  15.333 -1.7555 -0.3407 -1.0019
 7166TIP3   OH242912   5.329   5.538   4.841  0.1754  0.0037 -0.8553
 7166TIP3    H142913   5.320   5.618   4.789  0.1077 -0.0745 -0.9663
 7166TIP3    H242914   5.318   5.467   4.777  1.3743 -0.1036 -0.9582
 7167TIP3   OH242915   1.564   5.108  14.505 -0.1963 -0.4552  0.0295
 7167TIP3    H142916   1.551   5.016  14.526  0.9437 -0.4940  0.6389
 7167TIP3    H242917   1.482   5.135  14.463 -0.7638 -1.5830  0.3751
 7168TIP3   OH242918   3.254   4.171  11.166 -0.3376  0.3123 -0.1437
 7168TIP3    H142919   3.243   4.125  11.249  2.1131 -0.9798 -0.4601
 7168TIP3    H242920   3.172   4.156  11.119 -0.4220 -1.9883  0.6380
 7169TIP3   OH242921   3.679   4.746  15.733  0.4999  0.3304 -0.1222
 7169TIP3    H142922   3.765   4.780  15.755  0.4058  1.0934 -0.8673
 7169TIP3    H242923   3.696   4.658  15.698  1.2089  1.2150 -2.1294
 7170TIP3   OH242924   4.560   3.117  12.821  0.4097 -0.6506 -0.2515
 7170TIP3    H142925   4.572   3.180  12.750 -1.5947 -2.5454 -2.4708
 7170TIP3    H242926   4.619   3.045  12.799  0.2011 -1.0157  0.3516
 7171TIP3   OH242927   5.550   4.097   2.053 -0.5673  0.7034 -0.3945
 7171TIP3    H142928   5.604   4.022   2.077  1.0709  2.3751  1.5107
 7171TIP3    H242929   5.556   4.102   1.957  0.4704 -0.7291 -0.4306
 7172TIP3   OH242930   5.695   6.747  15.653 -0.4851 -0.2515 -0.1963
 7172TIP3    H142931   5.635   6.820  15.645  1.0341  1.1927  0.8431
 7172TIP3    H242932   5.718   6.745  15.746  0.1261 -1.5398 -0.3503
 7173TIP3   OH242933   3.206   4.414   0.634  0.0352 -0.1452  0.3374
 7173TIP3    H142934   3.183   4.502   0.605  1.9831  0.1267 -0.4677
 7173TIP3    H242935   3.122   4.375   0.661 -1.1761  1.1765 -1.3459
 7174TIP3   OH242936   3.936   2.477  15.429  0.7923 -0.0150  0.0336
 7174TIP3    H142937   4.003   2.545  15.434  1.2986 -0.4497 -0.6667
 7174TIP3    H242938   3.974   2.409  15.373  1.3012 -1.9938  2.5789
 7175TIP3   OH242939   3.721   1.793  15.271  0.4841  0.1175  0.3873
 7175TIP3    H142940   3.631   1.822  15.285  1.1580  2.5511  0.2199
 7175TIP3    H242941   3.744   1.745  15.350 -1.1394 -1.1570  0.1379
 7176TIP3   OH242942   4.892   5.542   0.605 -0.0393  0.2232  0.4651
 7176TIP3    H142943   4.816   5.593   0.578  0.8702  0.4101 -2.0352
 7176TIP3    H242944   4.952   5.607   0.643  0.6361  0.9243 -1.6434
 7177TIP3   OH242945   4.163   3.975  13.954  0.8604  0.6616 -0.2220
 7177TIP3    H142946   4.174   4.058  13.907  0.0361  1.1579  0.4507
 7177TIP3    H242947   4.173   3.908  13.886 -3.3844  1.4001 -1.8801
 7178TIP3   OH242948   5.091   2.933  14.064 -0.1906 -0.0750  0.2305
 7178TIP3    H142949   5.180   2.938  14.031  0.0261  1.1310  0.9557
 7178TIP3    H242950   5.044   2.881  13.999  0.7989  0.1587 -0.6884
 7179TIP3   OH242951   5.477   5.467  15.075 -0.7576 -0.1925  0.0127
 7179TIP3    H142952   5.462   5.534  15.142 -2.5425 -0.3002 -0.2264
 7179TIP3    H242953   5.451   5.385  15.117  2.2456 -0.9607  0.6023
 7180TIP3   OH242954   4.583   5.662   4.216 -0.6043 -0.4193  0.2710
 7180TIP3    H142955   4.654   5.699   4.164  0.3092  1.1660  2.5138
 7180TIP3    H242956   4.627   5.609   4.282 -1.5633 -0.2677  1.0518
 7181TIP3   OH242957   6.543   5.752  13.915  0.7249  0.0226  0.4314
 7181TIP3    H142958   6.594   5.714  13.987  1.5351  0.4230  0.0750
 7181TIP3    H242959   6.553   5.690  13.843 -0.8879 -0.8840  0.9275
 7182TIP3   OH242960   0.894   2.299  11.576 -0.3563  0.1777 -0.0867
 7182TIP3    H142961   0.936   2.333  11.498  0.8555  0.4248  0.6459
 7182TIP3    H242962   0.895   2.204  11.565  1.7149  0.0804  0.5270
 7183TIP3   OH242963   4.307   5.367   0.345  0.8040 -0.5956 -0.0401
 7183TIP3    H142964   4.230   5.349   0.399 -1.3326  3.1320 -1.4963
 7183TIP3    H242965   4.289   5.323   0.262  0.4975 -0.1814 -0.1944
 7184TIP3   OH242966   3.881   2.799   0.895  0.2930 -0.4337 -0.1688
 7184TIP3    H142967   3.935   2.792   0.816 -1.5061  0.8510 -1.5901
 7184TIP3    H242968   3.815   2.731   0.884  1.3739 -1.8177  1.4307
 7185TIP3   OH242969   3.548   3.943  13.933  0.5316 -0.0322 -0.1475
 7185TIP3    H142970   3.455   3.935  13.951  0.4331  1.7718  0.4192
 7185TIP3    H242971   3.553   3.977  13.844  0.5728  1.0328  0.2462
 7186TIP3   OH242972   3.861   3.312  11.556 -0.2642  0.0740  0.4682
 7186TIP3    H142973   3.952   3.283  11.560  0.1243  1.3332  1.0815
 7186TIP3    H242974   3.853   3.375  11.627 -1.9395 -0.8741  1.1687
 7187TIP3   OH242975   4.881   2.313   0.013  0.0714  0.6586  0.1548
 7187TIP3    H142976   4.922   2.271   0.089  0.6885  2.2511  0.7548
 7187TIP3    H242977   4.801   2.353   0.049 -1.8369 -1.9546 -0.8925
 7188TIP3   OH242978   3.595   1.699   3.222  0.0700 -0.1703  0.0544
 7188TIP3    H142979   3.515   1.722   3.270  0.0851 -0.7272  0.3514
 7188TIP3    H242980   3.597   1.761   3.149 -0.9667 -0.5388 -0.3164
 7189TIP3   OH242981   5.694   4.112  17.052  0.1788  0.5297  0.2240
 7189TIP3    H142982   5.698   4.196  17.098  0.1910  0.3121  0.6310
 7189TIP3    H242983   5.760   4.058  17.096 -0.0217  0.2217  0.1484
 7190TIP3   OH242984   3.833   0.069  14.384 -0.0586 -0.2378 -0.1956
 7190TIP3    H142985   3.799   0.093  14.470 -1.4078 -2.4379 -0.0536
 7190TIP3    H242986   3.783   0.123  14.322 -1.1298 -0.7021  0.2494
 7191TIP3   OH242987   3.327   1.386  15.521 -0.2198 -0.0440  0.5987
 7191TIP3    H142988   3.387   1.317  15.548  1.5462  0.9235 -0.6253
 7191TIP3    H242989   3.384   1.460  15.499 -1.8184  0.7906 -1.0227
 7192TIP3   OH242990   3.699   4.444  13.622 -0.4809 -0.8630 -0.3625
 7192TIP3    H142991   3.749   4.362  13.626 -0.1375 -0.6891 -0.9656
 7192TIP3    H242992   3.616   4.423  13.665 -0.5717 -1.6524 -0.9023
 7193TIP3   OH242993   4.693   2.360  13.922  0.1304  0.0100 -0.0675
 7193TIP3    H142994   4.701   2.301  13.997  2.0572  0.3386  0.0241
 7193TIP3    H242995   4.771   2.416  13.926  1.3974 -1.2461 -3.4280
 7194TIP3   OH242996   1.593   5.720   3.241  0.7608  0.3732  0.1708
 7194TIP3    H142997   1.562   5.693   3.155 -0.9400 -1.1792  1.2054
 7194TIP3    H242998   1.650   5.649   3.270 -0.6882 -0.3653  1.3275
 7195TIP3   OH242999   5.803   2.092  10.938  0.9768  0.2212 -0.3779
 7195TIP3    H143000   5.851   2.130  10.865 -0.3882 -1.6026 -2.3656
 7195TIP3    H243001   5.865   2.032  10.980  1.8109  1.3780  0.0756
 7196TIP3   OH243002   0.855   0.276  10.999 -0.2749 -0.6396 -0.2745
 7196TIP3    H143003   0.830   0.247  10.911  1.4259  0.0290 -1.0227
 7196TIP3    H243004   0.792   0.233  11.057 -1.2295 -1.3671 -1.7844
 7197TIP3   OH243005   5.313   1.476   5.569  0.3921 -0.4388  0.3616
 7197TIP3    H143006   5.276   1.426   5.641  1.2305  0.5218  1.4862
 7197TIP3    H243007   5.253   1.460   5.495 -0.8687 -0.8790  1.4465
 7198TIP3   OH243008   2.316   4.139  16.807  0.6480  0.1231 -0.1017
 7198TIP3    H143009   2.241   4.196  16.788 -0.1849 -0.5008  1.1411
 7198TIP3    H243010   2.297   4.058  16.759  1.4021  0.5536 -1.1652
 7199TIP3   OH243011   2.109   3.951   2.907  0.2643 -0.5339 -0.4502
 7199TIP3    H143012   2.084   3.868   2.949 -1.0319 -2.2322 -4.1351
 7199TIP3    H243013   2.051   4.016   2.947 -2.0050 -2.3054 -0.6281
 7200TIP3   OH243014   0.123   3.823  14.397 -0.0390  0.1031  0.3588
 7200TIP3    H143015   0.046   3.842  14.451 -0.6958 -0.0443 -0.5038
 7200TIP3    H243016   0.088   3.786  14.317  0.8380  1.2287 -0.5982
 7201TIP3   OH243017   0.983   5.782  13.434  0.0943 -0.0001  0.0166
 7201TIP3    H143018   1.078   5.787  13.426  0.1643 -0.6154  0.4084
 7201TIP3    H243019   0.952   5.767  13.345  0.3337  0.5945 -0.1691
 7202TIP3   OH243020   6.419   2.750  14.946 -0.0029  0.2573 -0.3079
 7202TIP3    H143021   6.459   2.664  14.940 -1.6238 -0.6176  0.7710
 7202TIP3    H243022   6.344   2.746  14.886  0.8072  1.5123 -1.5002
 7203TIP3   OH243023   1.617   2.538  15.366 -0.5263  0.0063 -0.0396
 7203TIP3    H143024   1.557   2.466  15.387 -0.4352 -0.3432 -0.9499
 7203TIP3    H243025   1.684   2.534  15.434 -1.5798  0.4730  1.0661
 7204TIP3   OH243026   3.466   2.460  16.227  0.3200 -0.0865 -0.1359
 7204TIP3    H143027   3.462   2.532  16.290 -0.6714 -1.2218  1.1463
 7204TIP3    H243028   3.560   2.441  16.218  0.7560  2.2951 -1.6681
 7205TIP3   OH243029   5.519   6.393   4.467 -0.1900 -0.0621 -0.5018
 7205TIP3    H143030   5.576   6.322   4.498 -0.6731 -0.4501 -0.4797
 7205TIP3    H243031   5.473   6.356   4.392 -1.7105 -0.3769  0.5339
 7206TIP3   OH243032   2.801   4.791  11.101 -0.5044  0.5171  0.2595
 7206TIP3    H143033   2.706   4.795  11.111 -0.6541  0.7161 -1.0540
 7206TIP3    H243034   2.822   4.698  11.103 -0.6561  0.4977  1.1043
 7207TIP3   OH243035   2.793   6.506  15.912  0.2828 -0.4568  0.3349
 7207TIP3    H143036   2.838   6.581  15.951 -0.2614  1.1558 -1.9627
 7207TIP3    H243037   2.850   6.432  15.932  0.5330  0.3775  3.2299
 7208TIP3   OH243038   3.598   0.474   4.662  0.4510  0.6017 -0.1011
 7208TIP3    H143039   3.632   0.473   4.573 -0.4131  0.6899 -0.4463
 7208TIP3    H243040   3.504   0.457   4.652 -0.1014  2.9552  0.5758
 7209TIP3   OH243041   5.578   5.950  12.398  0.4059 -0.4763 -0.1190
 7209TIP3    H143042   5.669   5.960  12.427  0.4918 -1.5628  0.0397
 7209TIP3    H243043   5.570   5.857  12.380  0.0941 -0.0005 -2.7411
 7210TIP3   OH243044   1.244   4.275  16.832 -0.2464 -0.3037  0.1965
 7210TIP3    H143045   1.161   4.321  16.830 -0.3604 -0.5173 -0.0714
 7210TIP3    H243046   1.293   4.309  16.757 -0.8067 -1.4878 -0.7289
 7211TIP3   OH243047   5.430   2.167  12.959 -0.5175 -0.8397 -0.7005
 7211TIP3    H143048   5.422   2.089  13.014 -0.4484  0.1425  0.7479
 7211TIP3    H243049   5.417   2.240  13.019  4.3802  0.5334 -0.8958
 7212TIP3   OH243050   4.233   3.074  14.131  0.6418 -0.1307 -0.3826
 7212TIP3    H143051   4.172   3.002  14.145 -0.4114  0.6973 -0.5770
 7212TIP3    H243052   4.296   3.040  14.068 -0.7161 -0.3933 -1.6379
 7213TIP3   OH243053   3.310   2.370   4.538 -0.0242 -0.3801  0.1182
 7213TIP3    H143054   3.254   2.389   4.463 -0.9080 -2.1591  0.2549
 7213TIP3    H243055   3.390   2.334   4.500 -0.3936 -1.0967 -0.0073
 7214TIP3   OH243056   5.066   6.081  13.002  0.2453  0.1652  0.0147
 7214TIP3    H143057   5.073   6.142  12.928  0.0339  0.1758  0.0048
 7214TIP3    H243058   5.045   6.136  13.077  2.6004  0.4714  0.5418
 7215TIP3   OH243059   1.855   5.216  15.497  0.1163 -0.3711 -0.0943
 7215TIP3    H143060   1.941   5.176  15.491 -0.1681 -0.8063 -1.7458
 7215TIP3    H243061   1.795   5.151  15.460 -0.4699  1.1982 -2.0906
 7216TIP3   OH243062   0.677   3.255  16.985  0.2169  0.3112 -0.4238
 7216TIP3    H143063   0.593   3.231  17.024  1.3105 -0.8989  1.3392
 7216TIP3    H243064   0.715   3.173  16.955  2.3491  0.1690  2.2342
 7217TIP3   OH243065   5.074   5.251  13.912 -0.1595 -0.5017 -0.0828
 7217TIP3    H143066   5.069   5.227  14.004 -1.6495  0.2719  0.0763
 7217TIP3    H243067   5.131   5.185  13.872  1.7076 -0.0045  1.6269
 7218TIP3   OH243068   1.404   6.704   5.101 -0.4591 -0.5128  0.6936
 7218TIP3    H143069   1.364   6.629   5.144 -1.2179  0.0747  1.0424
 7218TIP3    H243070   1.443   6.669   5.021 -1.7465 -1.0969  0.2926
 7219TIP3   OH243071   0.666   4.584   4.213 -0.1864 -0.4705  1.1239
 7219TIP3    H143072   0.639   4.676   4.215  1.7669  0.1789  0.7021
 7219TIP3    H243073   0.698   4.571   4.124  1.3930 -0.9464  1.7229
 7220TIP3   OH243074   1.873   2.401   0.886 -0.7224  0.1005  0.0472
 7220TIP3    H143075   1.795   2.373   0.933 -2.2329  2.3539 -0.9500
 7220TIP3    H243076   1.946   2.370   0.940 -2.3214 -0.2707  2.1069
 7221TIP3   OH243077   0.628   0.570  16.076 -0.5385 -0.0494  0.2346
 7221TIP3    H143078   0.603   0.478  16.084 -2.4799  0.3345 -0.7103
 7221TIP3    H243079   0.718   0.568  16.044 -0.0955 -1.5908  1.4792
 7222TIP3   OH243080   6.048   4.949  15.346 -0.1694 -0.0320 -0.0707
 7222TIP3    H143081   6.089   4.954  15.259 -1.6097 -0.1644 -0.7979
 7222TIP3    H243082   5.985   4.877  15.339  0.0636 -0.3918  1.2706
 7223TIP3   OH243083   5.316   3.090  15.349  0.3074 -0.5911 -0.5116
 7223TIP3    H143084   5.320   3.010  15.402  1.2786  0.2713  0.7858
 7223TIP3    H243085   5.273   3.154  15.405  0.3715  0.0530 -1.1801
 7224TIP3   OH243086   5.990   6.206  13.030  0.3181  0.1421  0.5299
 7224TIP3    H143087   5.970   6.141  12.963 -1.8100  0.4800  0.7838
 7224TIP3    H243088   5.943   6.285  13.002 -0.0849  0.4749  2.0691
 7225TIP3   OH243089   1.489   1.179   0.416  0.2791 -0.2722  0.6101
 7225TIP3    H143090   1.449   1.258   0.379  0.6837 -0.4191 -0.1588
 7225TIP3    H243091   1.414   1.124   0.440 -0.0052 -0.2617 -0.1947
 7226TIP3   OH243092   0.002   2.897  11.506  0.3413 -1.0011 -0.0976
 7226TIP3    H143093   0.089   2.905  11.466  0.2024 -1.5930 -0.5517
 7226TIP3    H243094  -0.047   2.973  11.474  0.9724 -0.1417  0.9329
 7227TIP3   OH243095   5.829   3.454  14.720 -0.0857 -0.5789  0.4059
 7227TIP3    H143096   5.806   3.369  14.683 -0.6835  0.0278 -0.6458
 7227TIP3    H243097   5.771   3.464  14.796 -1.0528 -0.4891 -0.3253
 7228TIP3   OH243098   5.300   6.330  15.918 -0.6861  0.4696 -0.7021
 7228TIP3    H143099   5.367   6.399  15.921  0.4218 -0.4889 -2.0212
 7228TIP3    H243100   5.256   6.342  15.834 -0.5148 -0.3767 -0.9277
 7229TIP3   OH243101   4.772   1.260  12.747 -0.0613 -0.1671  0.4577
 7229TIP3    H143102   4.768   1.174  12.706  2.7584 -0.2676  0.2095
 7229TIP3    H243103   4.840   1.252  12.814  2.2613  2.4534 -1.3366
 7230TIP3   OH243104   4.861   3.042   4.515 -0.4022 -0.2316  0.4421
 7230TIP3    H143105   4.899   2.957   4.538 -1.8224 -0.7289  1.0454
 7230TIP3    H243106   4.878   3.051   4.421 -0.3897 -1.2600  0.3387
 7231TIP3   OH243107   2.979   1.803   2.659  0.0805 -0.1063  0.3398
 7231TIP3    H143108   2.970   1.746   2.735  0.8496 -1.6094 -0.6541
 7231TIP3    H243109   2.950   1.889   2.690 -0.8581 -0.9631  1.9500
 7232TIP3   OH243110   5.772   2.105   5.851  0.6266  0.2520  0.0950
 7232TIP3    H143111   5.709   2.034   5.840 -0.0666  0.8381  0.3027
 7232TIP3    H243112   5.722   2.178   5.885  1.5358  0.5303  0.8766
 7233TIP3   OH243113   2.044   6.659  13.556  0.0830  0.2749  0.0717
 7233TIP3    H143114   2.084   6.647  13.470 -1.9553 -0.0706 -0.9040
 7233TIP3    H243115   1.970   6.598  13.556 -0.5998  1.0429  1.6665
 7234TIP3   OH243116   4.562   1.869   0.672 -0.0385  0.9643 -0.2258
 7234TIP3    H143117   4.550   1.964   0.666 -0.5103  0.9071 -0.2607
 7234TIP3    H243118   4.486   1.839   0.722  0.9243  0.7775  1.1511
 7235TIP3   OH243119   4.220   2.663   0.968 -0.4594 -0.0730  0.6111
 7235TIP3    H143120   4.187   2.739   0.919 -1.0279 -1.2391 -0.8880
 7235TIP3    H243121   4.314   2.679   0.977 -0.3872  0.3100 -0.6541
 7236TIP3   OH243122   5.518   0.037  11.951 -0.8079  0.0665 -0.0153
 7236TIP3    H143123   5.603   0.034  11.995 -0.5417 -0.9180 -0.5852
 7236TIP3    H243124   5.535   0.084  11.869 -0.9754  0.4964  0.1885
 7237TIP3   OH243125   0.862   4.619  14.313 -0.4756 -0.5795  0.1814
 7237TIP3    H143126   0.831   4.660  14.393 -0.3201 -1.8861  0.9338
 7237TIP3    H243127   0.806   4.542  14.302 -0.6398 -0.3029 -1.0927
 7238TIP3   OH243128   5.333   0.268   2.619  0.2924 -0.5769 -0.6978
 7238TIP3    H143129   5.385   0.189   2.603  0.6622  0.0240 -2.6588
 7238TIP3    H243130   5.249   0.251   2.577 -0.4598 -0.7561  0.7779
 7239TIP3   OH243131   2.412   1.296   3.390  0.2673  0.0769  0.1950
 7239TIP3    H143132   2.437   1.364   3.328 -1.1423 -0.4891 -1.0391
 7239TIP3    H243133   2.336   1.331   3.436  0.2020 -0.2320  0.3268
 7240TIP3   OH243134   5.083   6.755  13.975  0.0294 -0.1578  0.3215
 7240TIP3    H143135   4.988   6.753  13.964 -0.0352 -0.8671  0.9842
 7240TIP3    H243136   5.097   6.751  14.070  0.6854  1.6080  0.3503
 7241TIP3   OH243137   4.680   1.332  15.087  0.0735 -0.5488  0.2067
 7241TIP3    H143138   4.660   1.418  15.051  1.5368 -0.0681  0.4633
 7241TIP3    H243139   4.722   1.350  15.170 -0.2009 -1.5457  0.5776
 7242TIP3   OH243140   4.987   1.991   5.362 -0.6498  0.1152  0.5750
 7242TIP3    H143141   4.960   1.906   5.329 -0.7218  0.5813 -0.6364
 7242TIP3    H243142   5.073   2.006   5.323 -1.3985  1.3453 -0.7283
 7243TIP3   OH243143   1.291   2.461  16.729 -0.1748  0.2085 -0.3188
 7243TIP3    H143144   1.300   2.491  16.638  0.6021 -0.6738 -0.5534
 7243TIP3    H243145   1.377   2.476  16.768  0.3647 -1.9218 -0.5427
 7244TIP3   OH243146   6.810   1.626   3.856 -0.5726  0.4018  0.1274
 7244TIP3    H143147   6.718   1.602   3.854  0.3081 -3.5008 -0.5414
 7244TIP3    H243148   6.833   1.640   3.764 -0.0951 -0.5920  0.0853
 7245TIP3   OH243149   4.982   4.363   4.446  0.1113  0.2543 -0.2197
 7245TIP3    H143150   4.995   4.455   4.469 -0.6431  0.7840 -1.7708
 7245TIP3    H243151   5.070   4.327   4.438  0.4181  0.2655  2.4279
 7246TIP3   OH243152   4.970   2.439  14.673 -0.2450 -0.3864  0.3612
 7246TIP3    H143153   5.029   2.379  14.718  0.3894 -1.2078 -1.4925
 7246TIP3    H243154   4.999   2.438  14.582 -1.8208  0.7963 -0.1979
 7247TIP3   OH243155   2.380   0.742  17.077 -0.1549  0.6604  0.2265
 7247TIP3    H143156   2.399   0.754  17.170  0.0528  2.3547  0.0100
 7247TIP3    H243157   2.430   0.664  17.052 -1.5376 -0.8291  1.8668
 7248TIP3   OH243158   1.830   0.228  13.524 -0.2377  0.0996  0.5388
 7248TIP3    H143159   1.832   0.322  13.542 -0.9976  1.2368 -4.0192
 7248TIP3    H243160   1.737   0.207  13.516 -0.0571 -0.0377 -2.0953
 7249TIP3   OH243161   0.849   1.209   2.155  0.8659 -0.0573  0.4010
 7249TIP3    H143162   0.764   1.228   2.196  0.5688 -0.3157 -0.0835
 7249TIP3    H243163   0.910   1.267   2.200  0.7685 -1.1410  2.0176
 7250TIP3   OH243164   4.656   6.605   0.604 -0.1606 -0.4796  0.0018
 7250TIP3    H143165   4.742   6.583   0.639  0.1567 -0.2314 -0.6004
 7250TIP3    H243166   4.664   6.586   0.510  0.2340  2.4202 -0.6378
 7251TIP3   OH243167   5.580   2.213   4.808  0.9992  0.0975 -0.6528
 7251TIP3    H143168   5.576   2.133   4.755  0.6781  0.3421 -1.0025
 7251TIP3    H243169   5.633   2.273   4.756  0.8453  0.2720 -0.6077
 7252TIP3   OH243170   6.360   0.447  14.879 -0.0303  0.2291  0.1739
 7252TIP3    H143171   6.336   0.510  14.810 -1.5229 -0.0879  0.3772
 7252TIP3    H243172   6.417   0.384  14.835 -0.0490  0.6681 -0.4938
 7253TIP3   OH243173   3.456   5.782   4.258 -0.1743  0.2134 -0.0052
 7253TIP3    H143174   3.507   5.779   4.338  0.9012 -1.7989 -0.6934
 7253TIP3    H243175   3.482   5.704   4.209 -1.2275  1.0456 -2.0583
 7254TIP3   OH243176   3.786   6.669   4.336 -0.2809  0.2206 -0.7092
 7254TIP3    H143177   3.842   6.737   4.299  0.4835 -0.3979 -0.7270
 7254TIP3    H243178   3.757   6.618   4.260 -2.3356  1.5742 -0.8961
 7255TIP3   OH243179   0.655   6.721   3.698 -0.3375  0.1365 -0.0662
 7255TIP3    H143180   0.582   6.743   3.641 -1.3227 -0.2009  1.0162
 7255TIP3    H243181   0.647   6.784   3.771 -0.1803 -0.5640  0.5675
 7256TIP3   OH243182   5.737   2.451  13.068  0.5048 -0.3827 -0.2211
 7256TIP3    H143183   5.688   2.438  13.149 -0.2837 -0.0662 -0.6320
 7256TIP3    H243184   5.701   2.386  13.007  2.0914 -1.6084  0.0897
 7257TIP3   OH243185   1.919   4.997  14.555  0.5279 -0.2673 -0.2528
 7257TIP3    H143186   1.891   4.939  14.484  0.0798  0.0325 -0.3238
 7257TIP3    H243187   1.889   4.952  14.635 -0.6982  0.3240 -0.3531
 7258TIP3   OH243188   5.037   5.990   5.648  0.1675  0.3737  0.2108
 7258TIP3    H143189   5.092   5.912   5.654  1.1319  1.0983  1.1511
 7258TIP3    H243190   4.959   5.961   5.600  2.2775 -0.1623 -3.2662
 7259TIP3   OH243191   4.673   3.635  14.371 -0.1120 -0.1551  0.1107
 7259TIP3    H143192   4.713   3.548  14.362 -1.0573 -0.7386  1.2008
 7259TIP3    H243193   4.593   3.618  14.421  0.1631  1.4780  1.1646
 7260TIP3   OH243194   0.977   2.703   4.179 -0.0193 -0.6100 -0.6840
 7260TIP3    H143195   0.967   2.614   4.144  0.9522 -1.0725  0.1616
 7260TIP3    H243196   0.980   2.691   4.274  1.1158  0.2049 -0.5949
 7261TIP3   OH243197   3.362   1.466   3.453  0.2617  0.2579 -0.4178
 7261TIP3    H143198   3.393   1.553   3.426  1.6143 -0.0683  0.0222
 7261TIP3    H243199   3.368   1.467   3.548 -1.8205  0.4227 -0.2409
 7262TIP3   OH243200   3.134   2.161  16.457  0.1182 -0.1447  0.1726
 7262TIP3    H143201   3.220   2.144  16.495 -0.5984 -1.1953  1.4140
 7262TIP3    H243202   3.095   2.228  16.514 -0.4646 -0.7867  0.5401
 7263TIP3   OH243203   0.566   3.551  10.329 -0.5265  0.6080 -0.4001
 7263TIP3    H143204   0.548   3.574  10.420 -1.2967 -0.2453 -0.3130
 7263TIP3    H243205   0.651   3.590  10.310  0.3665 -0.4907  1.1618
 7264TIP3   OH243206   0.684   4.478   4.467 -0.2758  0.5027 -0.1992
 7264TIP3    H143207   0.685   4.544   4.537  0.0142  0.1503  0.1358
 7264TIP3    H243208   0.671   4.528   4.387 -1.0255  0.8758  0.1431
 7265TIP3   OH243209   2.459   1.755  14.203  0.2939  0.2448 -0.0302
 7265TIP3    H143210   2.403   1.779  14.277  0.1719  0.2949 -0.1375
 7265TIP3    H243211   2.496   1.671  14.227 -1.5060 -0.8508 -0.8589
 7266TIP3   OH243212   6.023   6.679  12.658 -1.1321  0.2363  0.4440
 7266TIP3    H143213   6.089   6.645  12.718 -1.8964 -0.6827  0.7992
 7266TIP3    H243214   6.056   6.657  12.571 -2.3027 -3.0125  0.6573
 7267TIP3   OH243215   5.397   2.427   0.909 -0.0010  0.3338 -0.3006
 7267TIP3    H143216   5.356   2.348   0.874  0.1084  0.6939 -1.2804
 7267TIP3    H243217   5.427   2.402   0.997  0.7289 -0.9406 -0.8862
 7268TIP3   OH243218   6.555   2.473  17.023  0.4012  0.3647 -0.0114
 7268TIP3    H143219   6.594   2.442  16.941 -0.4409  0.4378 -0.4625
 7268TIP3    H243220   6.628   2.480  17.084  0.8415 -1.0439 -0.3396
 7269TIP3   OH243221   6.608   3.735   4.973  0.1098  0.5866 -0.5586
 7269TIP3    H143222   6.539   3.781   5.021 -0.4927  0.2951 -1.1146
 7269TIP3    H243223   6.586   3.642   4.984  1.0129  0.4408  0.1184
 7270TIP3   OH243224   4.220   3.733   5.400 -0.2023 -0.0627  0.2976
 7270TIP3    H143225   4.276   3.675   5.450 -0.0467  1.3349  1.8180
 7270TIP3    H243226   4.149   3.677   5.367  0.2044 -1.1798  1.2962
 7271TIP3   OH243227   0.772   1.903   0.480 -0.1511 -0.6729  0.0168
 7271TIP3    H143228   0.761   1.813   0.510  0.5357 -0.5790  0.5695
 7271TIP3    H243229   0.685   1.929   0.449 -0.7524 -0.9614  1.4169
 7272TIP3   OH243230   2.598   5.763  13.827  0.5327 -0.5458  0.0648
 7272TIP3    H143231   2.690   5.760  13.853  0.4592  0.4723  0.5139
 7272TIP3    H243232   2.550   5.753  13.909  0.2722  0.3564  0.0379
 7273TIP3   OH243233   0.498   0.861  15.431  0.3710  0.1376 -0.4790
 7273TIP3    H143234   0.460   0.921  15.367  0.0202  0.9169  0.4303
 7273TIP3    H243235   0.576   0.826  15.389 -0.0793  0.3110 -1.4809
 7274TIP3   OH243236   5.590   6.341  12.225  0.5146 -0.0289  1.0252
 7274TIP3    H143237   5.595   6.313  12.133 -1.8026  1.8721  0.2312
 7274TIP3    H243238   5.551   6.267  12.271 -0.6670 -0.0834 -0.0230
 7275TIP3   OH243239   4.209   4.433  11.650 -0.3760 -0.1880  0.1673
 7275TIP3    H143240   4.145   4.498  11.678 -1.2153  0.0140 -2.0387
 7275TIP3    H243241   4.294   4.474  11.666 -0.8496  0.6328  0.6191
 7276TIP3   OH243242   2.223   4.361  13.365 -0.7069  0.5488 -0.1036
 7276TIP3    H143243   2.280   4.363  13.442  1.6156 -0.2889 -1.6997
 7276TIP3    H243244   2.205   4.454  13.347 -0.3671  0.8021  0.8052
 7277TIP3   OH243245   2.429   5.062  14.566 -0.2875  0.6049  0.1853
 7277TIP3    H143246   2.340   5.031  14.549  0.1479 -0.5859 -0.0419
 7277TIP3    H243247   2.425   5.098  14.654 -0.9457  0.3268  0.2769
 7278TIP3   OH243248   3.466   3.511   1.819 -0.3779 -0.1481 -0.1388
 7278TIP3    H143249   3.403   3.553   1.760 -0.8739 -0.1503  0.3833
 7278TIP3    H243250   3.484   3.427   1.778 -0.3972  0.0190 -0.5039
 7279TIP3   OH243251   2.744   4.316  12.621 -0.5821  0.3338  0.1093
 7279TIP3    H143252   2.650   4.326  12.634 -0.2357  2.4614  1.3610
 7279TIP3    H243253   2.783   4.396  12.657  1.6107  0.2369 -1.7779
 7280TIP3   OH243254   6.356   0.235   2.185  0.3253  0.5212  0.1284
 7280TIP3    H143255   6.265   0.208   2.174 -0.1087  1.6435  0.8244
 7280TIP3    H243256   6.401   0.155   2.211 -0.3392 -0.1781 -0.8169
 7281TIP3   OH243257   4.950   5.756   5.979 -0.4843  0.3364 -0.0138
 7281TIP3    H143258   5.017   5.825   5.980 -0.3095  0.1734 -0.3263
 7281TIP3    H243259   4.992   5.681   6.022 -0.8109  0.5449  0.6843
 7282TIP3   OH243260   0.435   0.756  16.040 -0.2662 -0.7419  0.0908
 7282TIP3    H143261   0.521   0.714  16.049 -0.4172 -0.8343  1.2223
 7282TIP3    H243262   0.441   0.804  15.957  1.4036  0.4423  0.8321
 7283TIP3   OH243263   0.569   2.056   3.185  0.1197  0.7416 -0.1470
 7283TIP3    H143264   0.549   2.054   3.091  0.1950 -2.6508 -0.2255
 7283TIP3    H243265   0.642   1.995   3.195 -1.5780 -1.0616  2.4268
 7284TIP3   OH243266   5.213   6.728   1.847 -0.3360 -0.0688  1.0987
 7284TIP3    H143267   5.132   6.682   1.870 -0.9290 -0.6793 -1.7909
 7284TIP3    H243268   5.271   6.660   1.813  0.7818  0.6106  1.5995
 7285TIP3   OH243269   5.235   5.595  14.603  0.1762  0.1296 -0.3206
 7285TIP3    H143270   5.280   5.533  14.547  0.0981  0.5444 -0.8433
 7285TIP3    H243271   5.248   5.561  14.692 -0.7402 -1.2107 -0.6660
 7286TIP3   OH243272   4.394   0.556   5.330  0.0146  0.1920  0.1213
 7286TIP3    H143273   4.338   0.532   5.404 -0.0648 -0.0330 -0.0080
 7286TIP3    H243274   4.446   0.477   5.313  0.9122  0.6337  0.7131
 7287TIP3   OH243275   2.289   3.516   4.609 -0.1061  0.1765  0.5428
 7287TIP3    H143276   2.292   3.421   4.621 -0.9817 -0.0297 -0.6589
 7287TIP3    H243277   2.294   3.551   4.698 -1.0076 -1.0431  1.1124
 7288TIP3   OH243278   2.961   4.690   3.248  1.1120  0.4426 -0.5514
 7288TIP3    H143279   2.990   4.678   3.157  1.7532 -0.3531 -0.2554
 7288TIP3    H243280   3.006   4.768   3.278  0.4792  1.0251 -1.0748
 7289TIP3   OH243281   0.451   1.878  11.865 -0.1857 -0.1944  0.4549
 7289TIP3    H143282   0.387   1.949  11.851 -0.0395  0.0306  0.9276
 7289TIP3    H243283   0.414   1.804  11.817  1.3661  1.1198 -3.1896
 7290TIP3   OH243284   2.002   2.497  15.429 -0.0345  0.3478 -0.3624
 7290TIP3    H143285   2.019   2.436  15.358 -0.9812  0.9015 -1.0777
 7290TIP3    H243286   2.026   2.582  15.394 -0.7483  0.6561 -0.1128
 7291TIP3   OH243287   1.775   5.804   5.313  0.3217  0.1024  0.0707
 7291TIP3    H143288   1.793   5.808   5.219 -1.8678 -1.8712 -0.5289
 7291TIP3    H243289   1.703   5.867   5.326  0.7090  0.4684  0.4668
 7292TIP3   OH243290   5.958   1.283   2.607 -0.2495  0.3034 -0.3107
 7292TIP3    H143291   5.933   1.202   2.562  2.4349 -1.5319  1.2408
 7292TIP3    H243292   5.913   1.278   2.691  0.7714 -0.1859  0.2260
 7293TIP3   OH243293   5.931   4.551   4.134  0.2663 -0.0787  0.1464
 7293TIP3    H143294   5.918   4.643   4.111  1.1793 -0.1868 -0.8981
 7293TIP3    H243295   5.986   4.554   4.212 -1.4150  0.2676  1.3808
 7294TIP3   OH243296   4.582   0.883   1.036  0.3669  0.1199  0.6119
 7294TIP3    H143297   4.576   0.790   1.058  1.4982  0.2546  1.5974
 7294TIP3    H243298   4.509   0.898   0.976 -0.2627 -1.2449  0.9902
 7295TIP3   OH243299   2.665   2.413   0.267 -0.1458  1.0007 -0.8327
 7295TIP3    H143300   2.674   2.410   0.363 -0.4319 -0.1221 -0.8321
 7295TIP3    H243301   2.572   2.426   0.252  0.0317  2.2849 -0.9667
 7296TIP3   OH243302   4.425   2.242  16.428  0.4342  0.3179  0.1262
 7296TIP3    H143303   4.477   2.189  16.487  1.3407  1.5680  0.4814
 7296TIP3    H243304   4.342   2.255  16.474  0.4739 -0.1796  0.3426
 7297TIP3   OH243305   3.863   4.240   0.466  0.2093 -0.4333 -0.8009
 7297TIP3    H143306   3.914   4.321   0.476  1.0588 -0.7889 -2.0917
 7297TIP3    H243307   3.798   4.261   0.399 -0.2898 -0.4947 -0.3427
 7298TIP3   OH243308   5.052   5.859   5.172  0.6198  0.0410  0.1969
 7298TIP3    H143309   5.136   5.814   5.183  0.6034  0.2673  1.4617
 7298TIP3    H243310   4.989   5.788   5.157  0.6752 -0.3481  1.6654
 7299TIP3   OH243311   0.890   5.617  16.675 -0.4304 -0.8457 -0.1354
 7299TIP3    H143312   0.966   5.560  16.668  1.5766  1.8514 -3.5562
 7299TIP3    H243313   0.831   5.587  16.606 -0.4487 -0.3092 -0.3649
 7300TIP3   OH243314   0.421   3.346  12.517  0.1262 -0.2006 -0.1116
 7300TIP3    H143315   0.377   3.349  12.602  1.6263 -0.8210  0.7126
 7300TIP3    H243316   0.461   3.432  12.507 -2.8469  1.1758 -1.8288
 7301TIP3   OH243317   1.748   3.172   0.805 -0.1625 -0.6558  0.3580
 7301TIP3    H143318   1.720   3.245   0.750 -0.0592 -1.5544 -0.9075
 7301TIP3    H243319   1.666   3.129   0.831 -0.2047 -0.2920  0.8603
 7302TIP3   OH243320   1.315   3.378   0.013 -0.0679  0.3375  0.1592
 7302TIP3    H143321   1.391   3.435   0.027 -0.9533  1.3718  0.8707
 7302TIP3    H243322   1.240   3.436   0.015 -0.7965 -0.3573 -2.6128
 7303TIP3   OH243323   5.353   6.700  13.382 -0.3594  0.9684 -0.5938
 7303TIP3    H143324   5.340   6.682  13.289 -0.9044  1.3220 -0.5968
 7303TIP3    H243325   5.447   6.695  13.395 -0.3060  0.6019 -1.1003
 7304TIP3   OH243326   3.413   4.204  11.471  0.0119 -0.7002 -0.1266
 7304TIP3    H143327   3.351   4.276  11.483  1.2328  0.1865  1.2224
 7304TIP3    H243328   3.357   4.127  11.462 -1.3262  0.3577 -1.3891
 7305TIP3   OH243329   4.175   1.823   4.608  0.5591 -0.1190 -0.2288
 7305TIP3    H143330   4.191   1.756   4.675  0.8066 -0.8767 -1.0360
 7305TIP3    H243331   4.084   1.850   4.623  0.0169 -1.5742 -0.6936
 7306TIP3   OH243332   3.246   4.766  14.163 -0.0830  0.0434  0.0698
 7306TIP3    H143333   3.324   4.785  14.111  0.0987  0.1675  0.3833
 7306TIP3    H243334   3.248   4.830  14.234  1.5529 -2.2119  2.2331
 7307TIP3   OH243335   3.725   3.224   6.037 -0.3110 -0.8455 -0.4895
 7307TIP3    H143336   3.800   3.257   6.088 -1.0279 -0.1549  0.1378
 7307TIP3    H243337   3.759   3.217   5.948  1.1666 -2.7205  0.1681
 7308TIP3   OH243338   0.472   0.342   2.761  0.5578  0.0865 -0.2495
 7308TIP3    H143339   0.539   0.392   2.716 -0.9967  0.2430 -2.5324
 7308TIP3    H243340   0.389   0.377   2.728 -0.6104 -2.2722 -0.0320
 7309TIP3   OH243341   6.248   2.999   5.610  0.5134 -0.4579  0.9708
 7309TIP3    H143342   6.288   2.980   5.695  3.0573  0.4859  0.1002
 7309TIP3    H243343   6.307   3.063   5.570  0.3049 -2.0102 -2.1226
 7310TIP3   OH243344   6.072   6.419  11.897  0.0865 -0.0857  0.0064
 7310TIP3    H143345   6.158   6.376  11.900  0.2534  0.2498 -0.0138
 7310TIP3    H243346   6.082   6.498  11.950 -0.3941 -0.3715  0.5394
 7311TIP3   OH243347   6.771   5.167  15.614 -0.3124  0.0121 -0.0726
 7311TIP3    H143348   6.701   5.230  15.633 -1.0101 -1.3553  2.2691
 7311TIP3    H243349   6.812   5.151  15.699  0.6611 -1.7272 -0.8284
 7312TIP3   OH243350   5.286   2.603   3.965  0.2259  0.0182  0.5372
 7312TIP3    H143351   5.246   2.545   4.029  0.9575 -0.1398  0.8597
 7312TIP3    H243352   5.377   2.611   3.993 -0.0906  2.2220  1.1754
 7313TIP3   OH243353   2.559   0.059  14.102 -0.3180  0.1527  0.3730
 7313TIP3    H143354   2.622   0.098  14.162  0.1427 -0.5546  0.3522
 7313TIP3    H243355   2.481   0.044  14.155 -0.4943  1.0556  0.3916
 7314TIP3   OH243356   5.453   3.668   4.332  0.0136  0.0356  0.3963
 7314TIP3    H143357   5.432   3.717   4.412  1.7778  1.8198 -0.1609
 7314TIP3    H243358   5.408   3.584   4.343  0.0361  0.3070  3.1544
 7315TIP3   OH243359   2.705   3.973  11.157  0.7715  0.1830  0.0314
 7315TIP3    H143360   2.723   3.953  11.065 -0.5030  0.6462 -0.3487
 7315TIP3    H243361   2.611   3.991  11.159  0.1031 -2.8371  1.9595
 7316TIP3   OH243362   1.589   4.716   3.746  0.0544 -0.1729 -0.9191
 7316TIP3    H143363   1.672   4.696   3.790  0.6975  2.1434 -0.9600
 7316TIP3    H243364   1.522   4.690   3.808  0.8876  0.1980  0.1591
 7317TIP3   OH243365   1.655   5.087  12.659  0.1739  0.5486 -0.1926
 7317TIP3    H143366   1.602   5.118  12.585  0.0880  0.4719 -0.1635
 7317TIP3    H243367   1.706   5.015  12.623 -0.8222 -0.3418  0.1436
 7318TIP3   OH243368   4.054   5.278   0.345 -0.0052 -0.1986  0.3646
 7318TIP3    H143369   4.053   5.222   0.267 -0.7510 -0.1722  0.3499
 7318TIP3    H243370   3.967   5.266   0.384 -0.5284  1.6693 -0.1574
 7319TIP3   OH243371   0.700   3.349   2.269 -0.0069 -0.6213 -0.2261
 7319TIP3    H143372   0.639   3.328   2.199 -1.0015 -0.6385  0.6133
 7319TIP3    H243373   0.748   3.267   2.285 -1.3729 -1.2961  0.6229
 7320TIP3   OH243374   0.941   3.728   1.170  0.1182 -0.1878  0.0163
 7320TIP3    H143375   0.864   3.786   1.165  0.1455 -0.1409  0.1480
 7320TIP3    H243376   0.906   3.644   1.200 -0.1746 -0.6980 -1.6482
 7321TIP3   OH243377   3.823   1.809  13.728  0.1636 -0.2133  0.2085
 7321TIP3    H143378   3.842   1.800  13.822 -1.5863 -0.7432  0.5663
 7321TIP3    H243379   3.762   1.737  13.710 -1.4449  1.2938 -0.7435
 7322TIP3   OH243380   4.831   0.634   6.608 -0.2607 -0.3208 -0.9440
 7322TIP3    H143381   4.884   0.556   6.589  1.0202  0.3120 -0.0969
 7322TIP3    H243382   4.798   0.662   6.522 -1.8323 -2.4947 -1.1343
 7323TIP3   OH243383   0.879   5.317  13.216 -0.0692 -0.3588  0.3062
 7323TIP3    H143384   0.840   5.234  13.246  0.1317  0.1248  2.0122
 7323TIP3    H243385   0.915   5.356  13.295 -2.0694  2.4316 -0.0198
 7324TIP3   OH243386   3.239   5.275   6.299 -0.3472 -0.2419  0.0304
 7324TIP3    H143387   3.267   5.193   6.340 -2.0551 -0.9422 -0.1222
 7324TIP3    H243388   3.271   5.343   6.358  1.7829 -0.9390 -0.2490
 7325TIP3   OH243389   5.524   1.524  10.726  0.1337  0.1988  0.7084
 7325TIP3    H143390   5.498   1.577  10.801 -1.3181  0.0385  0.3516
 7325TIP3    H243391   5.446   1.473  10.705  0.8879 -0.6301 -0.1852
 7326TIP3   OH243392   4.152   5.965   4.816 -0.0842  0.5344  0.3400
 7326TIP3    H143393   4.242   5.935   4.828 -0.1609  0.1306 -0.0589
 7326TIP3    H243394   4.124   5.991   4.903 -0.8793 -3.0005  1.3042
 7327TIP3   OH243395   2.874   3.312  11.442 -0.4837 -0.2219 -1.3943
 7327TIP3    H143396   2.831   3.314  11.357 -0.6578  1.1776 -1.2839
 7327TIP3    H243397   2.961   3.276  11.424  0.5442  2.6315 -2.6954
 7328TIP3   OH243398   3.135   5.486  12.722  0.0680  0.0077  0.4017
 7328TIP3    H143399   3.215   5.526  12.688 -0.8408 -0.1984 -2.1596
 7328TIP3    H243400   3.144   5.393  12.702 -1.1543  0.1070 -0.7630
 7329TIP3   OH243401   6.139   6.764   0.355 -0.7203  0.1443  0.0155
 7329TIP3    H143402   6.204   6.733   0.417  0.0060  0.2769 -0.6573
 7329TIP3    H243403   6.055   6.751   0.399 -0.2265  0.2952  1.0390
 7330TIP3   OH243404   0.355   5.389   4.198  0.2976 -0.2300  0.5131
 7330TIP3    H143405   0.281   5.382   4.138 -1.5381  3.6661  1.9662
 7330TIP3    H243406   0.347   5.313   4.256 -0.8983 -1.3331 -1.0431
 7331TIP3   OH243407   0.734   4.055   1.426 -0.0770 -0.0701 -0.2427
 7331TIP3    H143408   0.714   4.056   1.519 -0.7310  2.4104 -0.3273
 7331TIP3    H243409   0.830   4.062   1.422  0.1091 -1.9720  0.1950
 7332TIP3   OH243410   0.557   0.228   1.610 -0.0488  0.3281  0.2833
 7332TIP3    H143411   0.470   0.253   1.581 -0.6137 -1.0776  0.6902
 7332TIP3    H243412   0.576   0.147   1.563  1.0242  0.5918  0.2375
 7333TIP3   OH243413   3.846   3.324  11.190 -0.0602 -0.1638  0.3256
 7333TIP3    H143414   3.832   3.357  11.278 -2.0551  1.1727 -0.4218
 7333TIP3    H243415   3.895   3.393  11.146 -1.5350  0.4810 -0.3699
 7334TIP3   OH243416   4.747   1.007   1.403  0.0207  0.5485 -0.4819
 7334TIP3    H143417   4.670   1.061   1.382 -0.8849 -0.9470 -1.1642
 7334TIP3    H243418   4.715   0.917   1.399  1.7073 -0.0916 -0.2901
 7335TIP3   OH243419   5.612   0.968  13.410 -0.7474  0.1458  0.3402
 7335TIP3    H143420   5.600   0.964  13.505 -1.5490  0.4986  0.2622
 7335TIP3    H243421   5.531   0.932  13.374 -0.7561  0.7014 -0.2084
 7336TIP3   OH243422   5.947   6.295  16.442  0.6398  0.2683 -0.8122
 7336TIP3    H143423   5.998   6.312  16.521 -1.3382  2.5083  0.1401
 7336TIP3    H243424   5.986   6.352  16.375  1.6102 -0.7734 -1.1487
 7337TIP3   OH243425   3.507   4.234  15.516  0.0105  0.2125  0.5133
 7337TIP3    H143426   3.566   4.192  15.577 -1.8717 -0.0442  2.2628
 7337TIP3    H243427   3.424   4.240  15.563 -1.0808  1.5208 -1.4346
 7338TIP3   OH243428   2.407   6.129  16.559 -0.0727 -0.2385  0.4174
 7338TIP3    H143429   2.414   6.189  16.633 -1.5618 -0.0274  0.4207
 7338TIP3    H243430   2.407   6.042  16.600 -2.6112 -0.1005  0.9156
 7339TIP3   OH243431   6.472   4.999   0.586 -0.0154 -0.0037  0.4010
 7339TIP3    H143432   6.470   5.094   0.577  1.3675 -0.0176 -0.3497
 7339TIP3    H243433   6.535   4.970   0.519 -0.6631 -1.4692  0.3905
 7340TIP3   OH243434   3.321   2.208   5.889  0.3149  0.2197 -0.3489
 7340TIP3    H143435   3.309   2.274   5.822  1.8610  0.1478 -0.7362
 7340TIP3    H243436   3.384   2.146   5.852  0.2899 -0.4755  0.7031
 7341TIP3   OH243437   6.481   0.167   1.701 -0.6115 -0.4863 -0.1504
 7341TIP3    H143438   6.527   0.167   1.785  3.5459  2.0934 -2.0959
 7341TIP3    H243439   6.415   0.235   1.710  1.3246  1.4349  0.4947
 7342TIP3   OH243440   1.328   3.760   5.631 -0.4481  0.2851  0.1407
 7342TIP3    H143441   1.259   3.696   5.615 -2.2100  2.0321  0.3245
 7342TIP3    H243442   1.329   3.815   5.553  0.1634  0.7814  0.4881
 7343TIP3   OH243443   6.497   3.351   4.202  0.0477  0.7500 -0.6519
 7343TIP3    H143444   6.433   3.347   4.132 -1.7179  0.6972  0.8863
 7343TIP3    H243445   6.445   3.352   4.283  1.9868  0.5343  0.6836
 7344TIP3   OH243446   0.734   2.738   0.372  0.2009  0.0374 -0.5223
 7344TIP3    H143447   0.644   2.765   0.390 -0.3697  0.3609 -3.3806
 7344TIP3    H243448   0.740   2.649   0.406 -0.1258  1.1062  2.5784
 7345TIP3   OH243449   5.166   0.174   0.760 -0.3131 -0.4163 -0.5215
 7345TIP3    H143450   5.246   0.188   0.710 -1.0270  1.8327 -1.1658
 7345TIP3    H243451   5.099   0.222   0.711 -1.6134 -0.4701  1.1330
 7346TIP3   OH243452   1.286   6.140   5.227 -0.0678  0.3808  0.3174
 7346TIP3    H143453   1.221   6.196   5.184  0.0224  0.7077  0.6032
 7346TIP3    H243454   1.363   6.196   5.236 -0.0680  0.2959  0.8603
 7347TIP3   OH243455   3.202   1.660  15.787  0.9813  0.1183  0.1035
 7347TIP3    H143456   3.141   1.598  15.828 -0.3277  1.2395 -0.0483
 7347TIP3    H243457   3.289   1.629  15.812  0.2981  0.2398  3.0494
 7348TIP3   OH243458   6.533   0.915  16.611 -0.2875 -0.8165  0.0197
 7348TIP3    H143459   6.536   0.847  16.544  1.6659  0.1030 -0.8810
 7348TIP3    H243460   6.610   0.969  16.595 -0.7370  0.4944  1.9094
 7349TIP3   OH243461   5.597   3.143  16.718 -0.1694 -0.4301  0.1618
 7349TIP3    H143462   5.613   3.158  16.625 -0.5579  0.5684  0.2492
 7349TIP3    H243463   5.653   3.068  16.740 -1.2138 -1.6558 -1.2120
 7350TIP3   OH243464   6.154   0.131  14.880 -0.2393 -0.3527  0.5511
 7350TIP3    H143465   6.230   0.111  14.825 -0.6074 -1.2480  0.3527
 7350TIP3    H243466   6.134   0.223  14.860  1.2162  0.1355  1.1460
 7351TIP3   OH243467   0.755   0.254   4.717  0.4882 -0.1140  0.0551
 7351TIP3    H143468   0.734   0.306   4.794  2.0916  0.4233  0.1635
 7351TIP3    H243469   0.715   0.302   4.644  0.2507  0.1842  0.3779
 7352TIP3   OH243470   6.539   5.282  14.869  0.3160  0.0381  0.2132
 7352TIP3    H143471   6.468   5.218  14.863 -0.7772  0.9830  2.1391
 7352TIP3    H243472   6.518   5.334  14.946  2.3743  1.2834  0.0090
 7353TIP3   OH243473   4.156   2.228  14.113  0.0548 -0.1173  0.3129
 7353TIP3    H143474   4.235   2.217  14.166  0.1500 -1.7208 -0.1120
 7353TIP3    H243475   4.113   2.305  14.149  0.4988 -0.7195  2.2349
 7354TIP3   OH243476   4.881   0.985  13.884  0.2290  0.3596  0.0486
 7354TIP3    H143477   4.852   1.076  13.878  1.9266  0.8874 -0.6657
 7354TIP3    H243478   4.970   0.986  13.850  1.3001 -1.0857  2.5436
 7355TIP3   OH243479   0.298   3.927  12.209 -0.2592  0.3032  0.2850
 7355TIP3    H143480   0.379   3.910  12.256  1.1563 -0.5230 -2.2216
 7355TIP3    H243481   0.235   3.863  12.243  1.2238 -1.4377 -0.0915
 7356TIP3   OH243482   3.307   0.354   6.534  0.2315 -0.1579 -0.5630
 7356TIP3    H143483   3.302   0.339   6.629  2.7989  0.5455 -0.2349
 7356TIP3    H243484   3.316   0.449   6.526  0.9507 -0.2963 -1.4492
 7357TIP3   OH243485   2.676   4.388  13.584  0.1539  0.7908 -0.3768
 7357TIP3    H143486   2.649   4.355  13.670  0.4185  0.7968 -0.2919
 7357TIP3    H243487   2.705   4.310  13.536 -2.1220  0.4104 -1.2773
 7358TIP3   OH243488   6.161   3.388   2.738 -0.4548  0.0063 -0.6422
 7358TIP3    H143489   6.227   3.320   2.748  0.6080  1.0950  0.0464
 7358TIP3    H243490   6.079   3.346   2.765  0.0379 -1.2069 -0.9874
 7359TIP3   OH243491   2.349   0.722  13.861  0.6747  0.2674 -0.3676
 7359TIP3    H143492   2.320   0.654  13.922 -0.4470  0.5036 -0.6183
 7359TIP3    H243493   2.271   0.775  13.844  1.7134  2.2630  0.6252
 7360TIP3   OH243494   2.866   1.802   4.745 -0.1181 -0.4316  0.1919
 7360TIP3    H143495   2.822   1.748   4.811 -0.3219 -0.4996  0.0018
 7360TIP3    H243496   2.806   1.802   4.670  0.3127 -0.7243 -0.1629
 7361TIP3   OH243497   1.600   5.026   3.279  0.0421 -0.4506  0.3215
 7361TIP3    H143498   1.587   5.044   3.186 -0.7148 -0.3740  0.4337
 7361TIP3    H243499   1.591   5.111   3.322 -1.3752 -0.7239  0.6305
 7362TIP3   OH243500   4.279   3.355  15.990 -0.1122  0.4575  0.4471
 7362TIP3    H143501   4.299   3.442  16.025 -1.6438 -0.3020  3.5420
 7362TIP3    H243502   4.208   3.370  15.928  1.0205  1.5958 -0.6295
 7363TIP3   OH243503   5.170   0.025   0.242 -0.6543  0.0077 -0.5119
 7363TIP3    H143504   5.132  -0.047   0.192  0.8401 -0.8841 -0.4409
 7363TIP3    H243505   5.160   0.101   0.186 -2.5437 -0.1664 -0.4618
 7364TIP3   OH243506   0.819   1.489  14.744 -0.1092 -0.1482  0.5639
 7364TIP3    H143507   0.775   1.519  14.823  0.1292 -0.2621  0.7427
 7364TIP3    H243508   0.760   1.513  14.672  0.0786  0.7661  0.6947
 7365TIP3   OH243509   6.809   0.202  11.140 -0.3223  0.0623  0.8117
 7365TIP3    H143510   6.889   0.151  11.135 -0.3572  0.1528 -1.3031
 7365TIP3    H243511   6.812   0.260  11.064 -2.3326  0.1448  0.7462
 7366TIP3   OH243512   4.899   5.638   5.165  0.0812  0.0746  0.0332
 7366TIP3    H143513   4.840   5.562   5.172 -0.9758  0.8645 -0.1183
 7366TIP3    H243514   4.987   5.600   5.170 -0.4277 -1.0386  1.2017
 7367TIP3   OH243515   6.416   3.374   3.226  0.5272  0.1331 -0.4530
 7367TIP3    H143516   6.425   3.357   3.320 -1.8999 -2.0842 -0.4985
 7367TIP3    H243517   6.489   3.327   3.186  0.4387 -0.5982  0.2276
 7368TIP3   OH243518   4.758   0.840  16.662 -0.0920 -0.1777 -0.0851
 7368TIP3    H143519   4.854   0.842  16.660  0.0151 -0.8353  1.9081
 7368TIP3    H243520   4.734   0.772  16.598  0.7847 -0.2303 -0.3741
 7369TIP3   OH243521   3.115   2.816  12.641  0.0368  0.5019  0.6489
 7369TIP3    H143522   3.181   2.848  12.702 -1.5258  0.7873  2.2654
 7369TIP3    H243523   3.084   2.894  12.596 -1.5842  0.8972  2.3664
 7370TIP3   OH243524   0.762   5.656  11.537  0.0098 -0.3756 -0.4558
 7370TIP3    H143525   0.771   5.742  11.495  0.9355 -0.7599 -1.0879
 7370TIP3    H243526   0.669   5.651  11.560  0.3421  1.7488  1.7382
 7371TIP3   OH243527   0.413   4.209  14.584  0.2996  0.3027  0.0767
 7371TIP3    H143528   0.391   4.153  14.510 -1.0558  0.8172  0.0541
 7371TIP3    H243529   0.495   4.251  14.560  0.3389 -0.2277 -0.7392
 7372TIP3   OH243530   0.679   1.836  14.007  0.0104  0.1503  0.3790
 7372TIP3    H143531   0.734   1.873  13.938 -1.5335  1.2312 -0.3252
 7372TIP3    H243532   0.657   1.910  14.063 -1.2869 -0.1041  0.2351
 7373TIP3   OH243533   5.194   1.169  15.052  0.1245  0.3050 -0.1139
 7373TIP3    H143534   5.151   1.084  15.041 -0.0382  0.2920  0.5698
 7373TIP3    H243535   5.134   1.220  15.106 -0.3645  1.3091 -1.5510
 7374TIP3   OH243536   4.306   1.865   0.768 -0.3355 -0.7347 -0.0575
 7374TIP3    H143537   4.280   1.846   0.859 -0.2104  0.6987  0.3078
 7374TIP3    H243538   4.304   1.960   0.763  1.7375 -0.6960 -0.9560
 7375TIP3   OH243539   2.583   5.028  16.104 -0.5228 -0.1420 -0.2534
 7375TIP3    H143540   2.607   4.945  16.063 -0.4596 -1.6589  2.5836
 7375TIP3    H243541   2.504   5.056  16.056 -0.3649 -1.6598 -1.4859
 7376TIP3   OH243542   1.999   2.182  14.634  0.2260  0.5082  0.4324
 7376TIP3    H143543   2.044   2.220  14.559  2.2266 -1.9689  0.2397
 7376TIP3    H243544   1.909   2.168  14.604  0.4390  1.5216 -0.7387
 7377TIP3   OH243545   6.800   1.719   4.383  0.6510 -0.2904  0.3554
 7377TIP3    H143546   6.818   1.776   4.309  1.1344 -0.6520  0.1884
 7377TIP3    H243547   6.788   1.632   4.345  1.3527 -0.5643  0.7326
 7378TIP3   OH243548   2.319   6.486  12.170  0.1773 -0.1031 -0.0267
 7378TIP3    H143549   2.262   6.472  12.246  1.1193  0.9943  0.9115
 7378TIP3    H243550   2.272   6.549  12.116 -0.7354 -1.2759 -0.6514
 7379TIP3   OH243551   1.422   0.498   1.293 -0.3329 -0.4497  0.6835
 7379TIP3    H143552   1.454   0.569   1.349  0.4916 -1.4925  1.5716
 7379TIP3    H243553   1.501   0.450   1.269 -0.8750 -1.0238  0.0097
 7380TIP3   OH243554   5.006   1.136   5.167  0.4784  0.3690  0.5544
 7380TIP3    H143555   4.951   1.057   5.165 -0.1677  0.8137  0.6763
 7380TIP3    H243556   4.973   1.191   5.096  0.0203  1.1281  1.3405
 7381TIP3   OH243557   4.880   0.621  16.277 -0.4258  0.6826 -0.2620
 7381TIP3    H143558   4.901   0.530  16.297 -1.2865  0.2231 -1.4058
 7381TIP3    H243559   4.954   0.651  16.224 -0.2255  0.6154 -0.0279
 7382TIP3   OH243560   0.256   6.502   1.712 -0.2878  0.1336  0.0476
 7382TIP3    H143561   0.344   6.504   1.749 -0.6452 -0.7036  0.9755
 7382TIP3    H243562   0.250   6.417   1.668 -0.3123  0.5853 -0.8364
 7383TIP3   OH243563   1.344   1.737  13.023 -0.5519 -0.0005  0.7381
 7383TIP3    H143564   1.330   1.693  13.107  1.4193 -0.5376  0.8328
 7383TIP3    H243565   1.256   1.763  12.995 -1.3251 -0.2897  2.6906
 7384TIP3   OH243566   6.093   0.574   5.304  0.4256 -0.1632 -0.1077
 7384TIP3    H143567   6.175   0.606   5.268  1.3191 -1.5390  0.6234
 7384TIP3    H243568   6.026   0.603   5.241  1.0944  3.0600  0.4786
 7385TIP3   OH243569   1.526   3.212  11.835 -0.2763  0.2125 -0.3650
 7385TIP3    H143570   1.483   3.290  11.799  1.1456  0.7812 -0.9084
 7385TIP3    H243571   1.468   3.182  11.905 -2.2137  0.1609 -1.8948
 7386TIP3   OH243572   3.550   5.414   0.081 -0.2414  0.1931 -0.2117
 7386TIP3    H143573   3.464   5.455   0.087 -0.2980  0.2064 -1.0296
 7386TIP3    H243574   3.606   5.480   0.041 -0.1013 -0.1607 -0.6166
 7387TIP3   OH243575   5.715   5.962  13.913  0.7572 -0.0800  0.3742
 7387TIP3    H143576   5.671   5.923  13.988  1.9345  0.1479  1.1995
 7387TIP3    H243577   5.807   5.965  13.937  0.8257  2.6702  0.1126
 7388TIP3   OH243578   3.230   3.121  11.074  0.1256  0.0851 -0.1687
 7388TIP3    H143579   3.185   3.197  11.037  2.4065  0.6199 -2.1765
 7388TIP3    H243580   3.236   3.060  11.000  0.0031 -1.2481  0.8989
 7389TIP3   OH243581   4.702   1.376  15.753  0.5855 -0.1387  0.3354
 7389TIP3    H143582   4.669   1.295  15.713 -0.1448  0.1696  0.2995
 7389TIP3    H243583   4.703   1.439  15.681 -2.5477  0.9586  1.1097
 7390TIP3   OH243584   2.053   6.577   3.666  0.7722 -0.8221 -0.0529
 7390TIP3    H143585   1.982   6.531   3.711  2.1326 -1.1897  1.8482
 7390TIP3    H243586   2.117   6.509   3.645  2.2041 -0.0818  1.6065
 7391TIP3   OH243587   3.630   5.375  16.947  0.0709  0.1278  0.1857
 7391TIP3    H143588   3.725   5.376  16.942  0.2950  1.3921  3.0109
 7391TIP3    H243589   3.610   5.394  17.038 -2.9286  0.8508 -0.5099
 7392TIP3   OH243590   2.439   5.134  13.809 -0.0033 -0.3819 -0.3084
 7392TIP3    H143591   2.486   5.166  13.731  1.7046 -1.0154  0.4094
 7392TIP3    H243592   2.420   5.042  13.790 -0.2194 -0.3444 -0.2708
 7393TIP3   OH243593   3.147   4.586   1.691  0.4443 -0.1530 -0.3086
 7393TIP3    H143594   3.199   4.574   1.771  1.8628  0.9928 -1.0118
 7393TIP3    H243595   3.135   4.497   1.657 -2.5225 -1.0381  2.4792
 7394TIP3   OH243596   1.243   6.608  16.923  0.0551  0.7673 -0.0647
 7394TIP3    H143597   1.333   6.595  16.954  0.8781  1.4716 -1.9778
 7394TIP3    H243598   1.252   6.615  16.828 -2.2084 -0.5072 -0.4391
 7395TIP3   OH243599   5.520   5.278   3.079 -0.3723 -0.1234  1.0998
 7395TIP3    H143600   5.504   5.210   3.145 -1.5731  0.9606  1.9827
 7395TIP3    H243601   5.495   5.237   2.996 -0.8110 -0.8521  1.5793
 7396TIP3   OH243602   5.756   0.541  15.545  0.2019  0.5893  0.4853
 7396TIP3    H143603   5.756   0.448  15.524 -0.5415  1.0093 -1.6372
 7396TIP3    H243604   5.691   0.579  15.485  0.8222  2.5422  0.9777
 7397TIP3   OH243605   3.297   3.854  12.421 -0.1920 -0.2239  0.0403
 7397TIP3    H143606   3.210   3.850  12.460  0.2387 -1.1682  0.9452
 7397TIP3    H243607   3.300   3.780  12.360 -0.4909  0.6298 -1.0509
 7398TIP3   OH243608   2.954   4.506   4.560  0.1416  0.0851 -0.2904
 7398TIP3    H143609   2.965   4.482   4.468 -0.6986 -0.2486 -0.3125
 7398TIP3    H243610   3.018   4.453   4.607  0.6987  0.3913 -0.6968
 7399TIP3   OH243611   3.820   0.230   5.484  0.4390  0.0676  0.0329
 7399TIP3    H143612   3.863   0.313   5.465 -0.8450  0.6253 -0.5294
 7399TIP3    H243613   3.727   0.252   5.492  0.1446 -1.2269  0.4326
 7400TIP3   OH243614   0.047   0.054   6.421  0.6346 -0.3743  0.2784
 7400TIP3    H143615  -0.013   0.018   6.487 -0.2013 -1.3224 -0.9597
 7400TIP3    H243616   0.079  -0.023   6.374  3.1462  0.0690  1.1183
 7401TIP3   OH243617   0.583   6.312   3.418 -0.2785 -0.0659 -0.1500
 7401TIP3    H143618   0.531   6.350   3.348 -0.8321 -0.8896 -0.2013
 7401TIP3    H243619   0.639   6.247   3.374  0.3489  0.3695 -0.0098
 7402TIP3   OH243620   0.485   2.110   0.766 -0.2539  0.5819  0.1758
 7402TIP3    H143621   0.492   2.131   0.673 -0.6433  1.4435  0.3368
 7402TIP3    H243622   0.543   2.172   0.809  1.0568 -0.7470  0.4108
 7403TIP3   OH243623   1.982   3.377   1.630 -0.2508  0.5037 -0.1690
 7403TIP3    H143624   1.889   3.366   1.610 -0.4809  0.6582  0.7538
 7403TIP3    H243625   1.984   3.439   1.703  0.6062  0.8406 -0.4585
 7404TIP3   OH243626   2.263   5.260   2.501  0.1428 -0.7640  0.5916
 7404TIP3    H143627   2.323   5.321   2.457 -0.5676 -1.1648 -0.9875
 7404TIP3    H243628   2.316   5.183   2.520  0.9036  0.0811  2.0934
 7405TIP3   OH243629   2.961   0.941  12.548  0.1431 -0.0122 -0.3811
 7405TIP3    H143630   2.973   0.958  12.641  0.1409 -0.9222 -0.2098
 7405TIP3    H243631   2.915   1.019  12.515  1.5369  1.0388  0.0459
 7406TIP3   OH243632   4.420   4.769  14.090  0.0587 -0.6201  0.1033
 7406TIP3    H143633   4.476   4.808  14.158  0.2320 -2.5107  1.1065
 7406TIP3    H243634   4.355   4.718  14.138 -2.4192  1.2541 -1.0537
 7407TIP3   OH243635   6.275   5.341   5.753  0.0853 -0.7117  0.5412
 7407TIP3    H143636   6.287   5.263   5.699  1.6276  0.2984 -0.6803
 7407TIP3    H243637   6.294   5.312   5.842 -0.0583 -1.8727  0.2082
 7408TIP3   OH243638   2.113   5.442   0.517  0.0856 -0.4121 -0.1095
 7408TIP3    H143639   2.061   5.363   0.502  0.6414 -0.5579 -1.3616
 7408TIP3    H243640   2.076   5.480   0.597  0.6461 -2.5959  1.2622
 7409TIP3   OH243641   6.649   3.733   0.074 -0.6899 -0.3928  0.1625
 7409TIP3    H143642   6.681   3.729   0.164 -1.0380 -0.3377  0.2896
 7409TIP3    H243643   6.558   3.704   0.079 -0.7769 -0.1756 -0.1386
 7410TIP3   OH243644   2.108   3.725   5.578 -0.6071 -0.6609  0.5697
 7410TIP3    H143645   2.066   3.737   5.493 -1.7243  0.5717  1.2686
 7410TIP3    H243646   2.175   3.659   5.561 -0.9917 -0.6685 -1.1972
 7411TIP3   OH243647   5.738   2.407   3.419 -0.1801 -0.1912  1.0962
 7411TIP3    H143648   5.648   2.440   3.412 -0.2275 -0.4179  0.5367
 7411TIP3    H243649   5.790   2.483   3.443 -0.7449 -0.3697  3.0306
 7412TIP3   OH243650   0.020   5.167  17.145  0.1048  0.6924  0.1015
 7412TIP3    H143651   0.113   5.190  17.149  0.1151  0.6114  0.4313
 7412TIP3    H243652   0.015   5.100  17.077  0.4563 -0.0177  0.7543
 7413TIP3   OH243653   2.048   0.351   0.913  0.1204 -0.1820  0.0209
 7413TIP3    H143654   2.063   0.369   0.821  0.7066  0.3654  0.2152
 7413TIP3    H243655   2.060   0.256   0.921  0.1550 -0.2174 -0.4525
 7414TIP3   OH243656   2.603   5.433  13.875  0.3800  0.2534  0.5344
 7414TIP3    H143657   2.660   5.462  13.947 -0.1601  0.5960  0.8305
 7414TIP3    H243658   2.516   5.427  13.915  0.3493 -1.1584  0.3249
 7415TIP3   OH243659   2.982   0.325   5.156  0.0184  0.2803  0.1057
 7415TIP3    H143660   2.972   0.410   5.114 -0.1910  0.3851  0.3660
 7415TIP3    H243661   2.909   0.273   5.122  0.9527 -0.2678 -1.1759
 7416TIP3   OH243662   0.267   6.442  13.844 -0.3018  0.2529 -0.1580
 7416TIP3    H143663   0.343   6.486  13.882  0.4480  0.1510 -1.4817
 7416TIP3    H243664   0.223   6.402  13.918  0.9825  0.2469  0.6324
 7417TIP3   OH243665   3.837   2.908  14.996 -0.1610  0.3113  0.5947
 7417TIP3    H143666   3.774   2.965  14.953 -0.2024 -0.0924  0.1159
 7417TIP3    H243667   3.794   2.883  15.078 -0.9417 -0.5551 -0.0670
 7418TIP3   OH243668   5.238   3.309   4.066  0.2292 -0.2086  0.1298
 7418TIP3    H143669   5.230   3.357   3.983  1.3383  0.3826  0.3397
 7418TIP3    H243670   5.153   3.320   4.108 -0.1677 -0.0552 -0.6840
 7419TIP3   OH243671   0.926   3.813  16.558  0.0448  0.2404 -0.6092
 7419TIP3    H143672   0.836   3.807  16.527  0.1217  0.6671 -0.9171
 7419TIP3    H243673   0.949   3.723  16.582 -0.2204  0.0046 -1.2221
 7420TIP3   OH243674   1.460   3.362  15.662 -0.0960  0.2689 -0.1345
 7420TIP3    H143675   1.527   3.428  15.645  0.2321  0.2043  0.8592
 7420TIP3    H243676   1.390   3.382  15.599  0.8261  0.3564 -1.1562
 7421TIP3   OH243677   3.955   5.664   5.105 -0.4045  0.1188 -0.6565
 7421TIP3    H143678   4.033   5.610   5.094 -1.6868 -1.8062 -0.8326
 7421TIP3    H243679   3.988   5.748   5.137  1.6563 -0.8448 -0.0737
 7422TIP3   OH243680   5.544   1.211   1.756  0.7858 -1.0401  0.0714
 7422TIP3    H143681   5.461   1.240   1.718  0.0611 -1.1792  1.4847
 7422TIP3    H243682   5.560   1.126   1.716 -0.5677 -1.7203  0.9050
 7423TIP3   OH243683   5.102   1.984   0.015  0.0766  0.2908 -0.1577
 7423TIP3    H143684   5.171   1.985   0.081  1.0580 -0.3952 -1.1308
 7423TIP3    H243685   5.147   2.004  -0.067 -1.2320  1.8856 -0.5444
 7424TIP3   OH243686   6.062   1.847   5.566 -0.6957  0.1064  0.1344
 7424TIP3    H143687   6.035   1.795   5.490 -0.2450 -1.1641  0.8099
 7424TIP3    H243688   6.039   1.793   5.641  0.9580  0.2968  0.8157
 7425TIP3   OH243689   4.353   0.839  14.127 -0.1998 -0.1405 -0.0535
 7425TIP3    H143690   4.281   0.803  14.075 -0.1224  0.4847 -0.6158
 7425TIP3    H243691   4.397   0.900  14.067  0.9764 -0.7316  0.1807
 7426TIP3   OH243692   6.146   6.025  12.380  0.0545  0.0703  0.4407
 7426TIP3    H143693   6.119   5.965  12.310  0.0904  2.0289 -1.3521
 7426TIP3    H243694   6.241   6.030  12.370  0.0251  0.5878  0.4280
 7427TIP3   OH243695   2.637   6.443   3.393 -0.0014  0.5702 -0.5508
 7427TIP3    H143696   2.692   6.374   3.429 -1.2932  0.3656  1.1184
 7427TIP3    H243697   2.556   6.399   3.367 -2.1851  1.7477  3.5111
 7428TIP3   OH243698   1.060   4.238   4.795 -0.5973 -0.4342 -0.1111
 7428TIP3    H143699   0.988   4.176   4.782 -0.1261 -1.7109  2.6404
 7428TIP3    H243700   1.060   4.256   4.889  1.6482  0.8127 -0.2672
 7429TIP3   OH243701   5.901   5.566   1.066  0.2468  0.2799 -0.5254
 7429TIP3    H143702   5.869   5.545   0.978 -0.1072  2.6035 -1.0112
 7429TIP3    H243703   5.968   5.632   1.052  1.7558 -0.8631  0.8566
 7430TIP3   OH243704   1.038   5.077   0.208 -0.6277 -0.4292  0.3355
 7430TIP3    H143705   1.032   5.170   0.187  1.6635 -0.4598 -0.7055
 7430TIP3    H243706   1.006   5.033   0.129  1.6489 -0.4889 -0.6290
 7431TIP3   OH243707   2.342   5.085  15.742  0.5317  0.5474 -0.6957
 7431TIP3    H143708   2.408   5.029  15.701 -0.4665  1.4404 -3.8458
 7431TIP3    H243709   2.354   5.170  15.700 -1.9678  0.9714 -0.7179
 7432TIP3   OH243710   6.706   3.406  15.625  0.3981  0.3634  0.2592
 7432TIP3    H143711   6.789   3.434  15.585  0.6585 -1.1949 -0.3594
 7432TIP3    H243712   6.641   3.467  15.590  1.0723  0.7788 -0.3073
 7433TIP3   OH243713   0.588   0.454   1.985 -0.1080  0.2212 -0.0800
 7433TIP3    H143714   0.547   0.382   2.033  1.1283  0.2719  1.1029
 7433TIP3    H243715   0.638   0.412   1.916 -0.6283  0.0506 -0.3600
 7434TIP3   OH243716   1.868   3.235   2.653  0.1869 -0.5754 -0.4116
 7434TIP3    H143717   1.778   3.204   2.663  0.6988 -1.7163  0.9473
 7434TIP3    H243718   1.923   3.164   2.686  1.4647  1.2081  1.6484
 7435TIP3   OH243719   0.611   4.234   2.435 -0.1519  0.2979  0.3222
 7435TIP3    H143720   0.638   4.229   2.527  0.5639  1.6426  0.2029
 7435TIP3    H243721   0.540   4.298   2.434  0.0998  0.5742 -0.1137
 7436TIP3   OH243722   6.685   2.297   4.338 -0.4207  0.2319  0.6974
 7436TIP3    H143723   6.685   2.302   4.242 -1.0464  0.6042  0.7092
 7436TIP3    H243724   6.772   2.328   4.364 -0.3543  0.4091  0.2635
 7437TIP3   OH243725   5.156   2.374  15.973  0.1447 -0.2806 -0.3214
 7437TIP3    H143726   5.234   2.429  15.960  0.2261  0.3391  2.2534
 7437TIP3    H243727   5.083   2.430  15.949  0.4029 -0.6215 -2.0485
 7438TIP3   OH243728   4.709   6.619   2.789 -0.0343 -0.2944 -0.4571
 7438TIP3    H143729   4.770   6.676   2.835 -0.6027 -0.3694  0.4117
 7438TIP3    H243730   4.627   6.626   2.838 -0.8212  0.0110 -1.7524
 7439TIP3   OH243731   5.945   6.009   6.264 -0.0685  0.0176  0.6029
 7439TIP3    H143732   5.976   5.926   6.229 -0.7905  0.1212 -0.3188
 7439TIP3    H243733   5.862   6.024   6.220 -1.9500 -0.6848  3.5921
 7440TIP3   OH243734   3.724   5.846   2.350 -0.6729  0.1739  0.6596
 7440TIP3    H143735   3.666   5.773   2.372 -0.3291 -0.2065  0.3402
 7440TIP3    H243736   3.808   5.822   2.390 -0.0255 -0.5508 -1.0319
 7441TIP3   OH243737   5.027   0.947  12.659 -0.4635 -0.1169 -0.0918
 7441TIP3    H143738   5.079   1.025  12.678 -0.4644 -0.1162 -0.0926
 7441TIP3    H243739   4.959   0.946  12.727  0.0626 -0.5943  0.4486
 7442TIP3   OH243740   0.641   2.436  11.895  0.0679  0.7340 -0.0907
 7442TIP3    H143741   0.675   2.520  11.926 -2.7617  1.7253  0.7062
 7442TIP3    H243742   0.592   2.401  11.970 -1.1315 -0.2455 -1.2841
 7443TIP3   OH243743   3.910   2.072  16.992  0.0493  0.0863  0.3566
 7443TIP3    H143744   3.854   2.053  17.067 -1.4417  0.3145 -0.6686
 7443TIP3    H243745   3.995   2.034  17.015 -0.3864  0.1355  2.1363
 7444TIP3   OH243746   5.856   5.251   0.378  0.1710 -0.0149  0.0395
 7444TIP3    H143747   5.949   5.243   0.356  1.0361  0.0476  3.1716
 7444TIP3    H243748   5.844   5.194   0.454 -2.2304  0.4739  0.1273
 7445TIP3   OH243749   6.598   0.017  15.288 -0.0710  0.0229  0.3271
 7445TIP3    H143750   6.567  -0.071  15.311  0.6409 -0.6260 -1.0570
 7445TIP3    H243751   6.686   0.022  15.326 -0.1235  0.1422  0.4312
 7446TIP3   OH243752   5.596   2.588   0.300 -0.3413  0.2448  0.2307
 7446TIP3    H143753   5.630   2.507   0.262 -0.2069 -0.6268  2.0726
 7446TIP3    H243754   5.515   2.561   0.345 -1.1367  1.4498 -0.4481
 7447TIP3   OH243755   6.590   2.469  11.764  0.4172 -0.7573 -0.3428
 7447TIP3    H143756   6.608   2.548  11.713 -3.2490  1.0484  0.7733
 7447TIP3    H243757   6.578   2.400  11.698  0.3839  0.4296 -1.6247
 7448TIP3   OH243758   1.598   1.848  13.781 -0.0967 -0.5537 -0.1163
 7448TIP3    H143759   1.640   1.872  13.863  0.6396 -0.1502 -0.6071
 7448TIP3    H243760   1.510   1.887  13.787  0.4062  0.6117 -0.0720
 7449TIP3   OH243761   0.457   3.118   4.470 -0.4017 -0.0422 -0.1390
 7449TIP3    H143762   0.517   3.069   4.527 -1.1038 -0.1589  0.5256
 7449TIP3    H243763   0.459   3.072   4.387 -0.0081 -0.3846  0.0577
 7450TIP3   OH243764   0.374   5.339   1.726  0.1693 -0.4275  0.3119
 7450TIP3    H143765   0.421   5.289   1.793 -0.0864 -0.8267  0.1979
 7450TIP3    H243766   0.439   5.355   1.658  0.4486  0.0391  0.6833
 7451TIP3   OH243767   4.945   1.250   6.635 -0.6263 -0.0242  0.3301
 7451TIP3    H143768   4.926   1.343   6.645 -0.7074  0.0251 -0.2499
 7451TIP3    H243769   4.864   1.207   6.662 -1.4380  0.1700 -1.5842
 7452TIP3   OH243770   1.948   1.285  13.388 -0.6739  0.2996 -0.0981
 7452TIP3    H143771   2.015   1.348  13.359 -0.7939  0.1943 -0.6035
 7452TIP3    H243772   1.952   1.215  13.324  1.6753 -1.8279  2.1042
 7453TIP3   OH243773   3.420   2.321  14.250  0.0372  0.1098  0.4726
 7453TIP3    H143774   3.375   2.310  14.333  0.3523 -0.5349  0.5611
 7453TIP3    H243775   3.507   2.354  14.274  1.0815 -2.5090  0.6253
 7454TIP3   OH243776   3.563   0.057   3.808 -0.0652 -0.5646 -0.2646
 7454TIP3    H143777   3.611   0.019   3.734 -0.1540 -1.6176  0.2044
 7454TIP3    H243778   3.523  -0.018   3.852  2.5930 -0.4522  2.7284
 7455TIP3   OH243779   1.992   4.223  12.352  0.3014 -0.1295  0.1061
 7455TIP3    H143780   1.910   4.271  12.363 -0.2856 -0.8490 -0.9037
 7455TIP3    H243781   2.060   4.284  12.381 -0.5948  0.4184  1.1260
 7456TIP3   OH243782   0.913   0.205  14.451  0.3718 -0.0479 -0.0637
 7456TIP3    H143783   0.902   0.113  14.425  0.3758  0.1361 -0.7532
 7456TIP3    H243784   0.863   0.254  14.385  2.3651  0.5997 -1.2014
 7457TIP3   OH243785   1.733   2.533  14.391 -0.3999 -0.0433 -0.3227
 7457TIP3    H143786   1.702   2.556  14.478 -0.6311 -0.8657 -0.1762
 7457TIP3    H243787   1.757   2.616  14.351  2.1822  0.1639  1.4315
 7458TIP3   OH243788   3.103   3.597   3.132 -0.7142 -0.5153 -0.5157
 7458TIP3    H143789   3.039   3.664   3.155 -0.7094  1.2634 -4.6989
 7458TIP3    H243790   3.188   3.641   3.134 -0.5469 -0.6960 -1.9734
 7459TIP3   OH243791   3.364   2.053  13.488  0.1007 -0.4709 -0.1282
 7459TIP3    H143792   3.341   1.970  13.447 -2.3071 -1.0124  2.0458
 7459TIP3    H243793   3.435   2.030  13.549  0.4364 -0.6272 -0.5744
 7460TIP3   OH243794   5.368   6.155   2.520 -0.5947 -0.2049  0.3944
 7460TIP3    H143795   5.320   6.157   2.438  0.3428 -0.9912 -0.1990
 7460TIP3    H243796   5.449   6.109   2.500  0.1807  0.6016  1.4869
 7461TIP3   OH243797   3.945   6.706   0.025 -0.7521  0.3928  0.0861
 7461TIP3    H143798   3.864   6.668  -0.009  0.4954 -2.1643 -0.2672
 7461TIP3    H243799   3.916   6.763   0.097 -2.9095  0.4835 -0.7795
 7462TIP3   OH243800   5.571   3.116  13.027 -0.2454 -0.2980 -0.0718
 7462TIP3    H143801   5.486   3.148  13.000  0.8095  1.0402 -2.0128
 7462TIP3    H243802   5.580   3.030  12.984  1.5896  1.9600 -4.9472
 7463TIP3   OH243803   5.227   1.975   2.623 -0.1978 -1.2476 -0.0092
 7463TIP3    H143804   5.322   1.964   2.618 -0.0691 -0.5165  0.6013
 7463TIP3    H243805   5.193   1.928   2.547  0.8645  0.8431 -1.8766
 7464TIP3   OH243806   2.871   0.452   4.112 -0.4430  1.0232  0.2528
 7464TIP3    H143807   2.927   0.463   4.036 -0.2225 -0.3375  0.1989
 7464TIP3    H243808   2.903   0.516   4.176  0.1045  1.3765 -0.3744
 7465TIP3   OH243809   6.473   3.981   5.853 -0.5771 -0.1599  0.1947
 7465TIP3    H143810   6.532   4.032   5.907 -0.1899  0.1635 -0.5221
 7465TIP3    H243811   6.462   3.898   5.900 -0.7760  0.3706  1.0842
 7466TIP3   OH243812   5.577   5.215   4.350  0.3895 -0.2050  0.3595
 7466TIP3    H143813   5.644   5.277   4.380  0.7122  0.0149 -0.7830
 7466TIP3    H243814   5.504   5.271   4.322  2.3629  0.2205 -5.2247
 7467TIP3   OH243815   2.241   1.518   3.040 -0.1409  0.3839  0.2565
 7467TIP3    H143816   2.216   1.563   2.959 -1.3851 -1.6546 -0.5599
 7467TIP3    H243817   2.160   1.477   3.071  0.3962  0.7893  2.3469
 7468TIP3   OH243818   4.572   4.123  14.235  0.0884  0.2737 -0.1411
 7468TIP3    H143819   4.645   4.174  14.200 -0.0806  1.7200  1.4809
 7468TIP3    H243820   4.612   4.045  14.272  0.3849 -0.7408 -2.4212
 7469TIP3   OH243821   4.005   3.967   5.337 -0.1061  0.2317  1.1587
 7469TIP3    H143822   4.070   4.034   5.359  0.8452 -1.1238  2.7278
 7469TIP3    H243823   4.053   3.885   5.339 -1.3402 -0.5765 -0.3184
 7470TIP3   OH243824   3.561   4.429  14.897 -0.0484 -0.1209  0.2888
 7470TIP3    H143825   3.646   4.388  14.911 -0.5081 -1.1636  0.1285
 7470TIP3    H243826   3.500   4.380  14.952 -0.7325 -0.0991 -0.4165
 7471TIP3   OH243827   5.287   3.087  12.410  0.0631  0.8004  0.4483
 7471TIP3    H143828   5.231   3.015  12.439 -0.5207  0.5857 -1.1346
 7471TIP3    H243829   5.372   3.047  12.392 -0.0979  0.6078  0.1147
 7472TIP3   OH243830   5.499   0.753  13.282  0.1491 -0.0796 -0.3152
 7472TIP3    H143831   5.514   0.677  13.226 -0.8339  0.8867 -1.9889
 7472TIP3    H243832   5.471   0.822  13.221  3.6598  2.5148  0.6542
 7473TIP3   OH243833   0.366   6.384  13.563 -0.2126  0.0213 -0.1419
 7473TIP3    H143834   0.295   6.447  13.553 -1.9455 -1.6983  0.6121
 7473TIP3    H243835   0.388   6.388  13.656 -0.8178 -0.9229  0.0597
 7474TIP3   OH243836   4.551   2.046   5.891  0.2097  0.2766 -0.5300
 7474TIP3    H143837   4.629   2.080   5.848  0.6549 -0.8675 -0.6773
 7474TIP3    H243838   4.568   2.057   5.985  0.7523 -0.3638 -0.5463
 7475TIP3   OH243839   5.175   1.881   5.596  1.0112  0.5428  0.1346
 7475TIP3    H143840   5.179   1.834   5.679  1.5669  0.3798  0.0213
 7475TIP3    H243841   5.221   1.825   5.534  0.3267  0.5161 -0.3589
 7476TIP3   OH243842   4.674   0.682  13.210 -0.3650 -0.0051 -0.7875
 7476TIP3    H143843   4.637   0.601  13.175 -3.9404  1.1526 -0.1667
 7476TIP3    H243844   4.702   0.660  13.298  0.8072 -1.0145 -1.3842
 7477TIP3   OH243845   5.591   5.647   4.631  0.9305 -0.2909  0.0446
 7477TIP3    H143846   5.503   5.638   4.668  2.3515  1.5063  4.4562
 7477TIP3    H243847   5.597   5.740   4.605  1.8964 -0.0503  1.0557
 7478TIP3   OH243848   6.497   5.143  15.341 -0.4031  0.3810  0.5042
 7478TIP3    H143849   6.590   5.124  15.330 -0.6440  0.4418 -2.4380
 7478TIP3    H243850   6.495   5.223  15.393  1.1984  0.4288  0.5577
 7479TIP3   OH243851   3.463   2.242  13.765 -0.1763 -0.2391 -0.4083
 7479TIP3    H143852   3.506   2.157  13.754  0.2677 -0.1998  0.8926
 7479TIP3    H243853   3.409   2.232  13.843  1.3147  1.2128  0.8868
 7480TIP3   OH243854   3.210   2.853  11.712  0.0644 -0.8729 -0.6396
 7480TIP3    H143855   3.156   2.927  11.685  0.1422 -1.5591 -2.8545
 7480TIP3    H243856   3.181   2.833  11.801 -0.7901  1.0258 -0.4380
 7481TIP3   OH243857   0.050   3.112   4.866 -0.1773  0.9386  0.2367
 7481TIP3    H143858  -0.011   3.185   4.872 -0.0161  1.2662 -1.5278
 7481TIP3    H243859   0.031   3.058   4.943 -1.3404  2.0376  0.7490
 7482TIP3   OH243860   6.758   6.034   4.375 -0.1932  0.9168 -0.4366
 7482TIP3    H143861   6.735   5.999   4.461  0.0520 -1.2275 -1.1796
 7482TIP3    H243862   6.854   6.028   4.372 -0.1220  1.9409 -0.4961
 7483TIP3   OH243863   2.774   2.182  12.223  0.4636 -0.4318  0.4179
 7483TIP3    H143864   2.706   2.116  12.231  0.8741 -1.2262 -1.9357
 7483TIP3    H243865   2.817   2.183  12.309 -1.3280 -1.1963  1.3663
 7484TIP3   OH243866   6.162   5.233   0.468  0.9570 -0.0816 -0.4502
 7484TIP3    H143867   6.154   5.154   0.521 -0.7328  1.0908  1.1823
 7484TIP3    H243868   6.194   5.299   0.530 -2.3257  1.6618 -0.4058
 7485TIP3   OH243869   4.890   1.648  15.933 -0.1002 -0.2787  0.6904
 7485TIP3    H143870   4.842   1.718  15.888  1.4234 -0.2348 -0.9932
 7485TIP3    H243871   4.888   1.673  16.026 -0.3827  1.5138  0.2382
 7486TIP3   OH243872   5.772   1.219   5.930 -0.6272 -0.2259 -0.0418
 7486TIP3    H143873   5.695   1.203   5.984 -0.5848 -1.6885 -0.3756
 7486TIP3    H243874   5.742   1.283   5.865 -0.8480  1.0862  1.2699
 7487TIP3   OH243875   6.065   2.451  14.725 -0.3044  0.5353 -0.3477
 7487TIP3    H143876   6.043   2.429  14.634 -0.1202  0.5059 -0.3858
 7487TIP3    H243877   6.140   2.509  14.717  1.0985 -1.1891 -0.1357
 7488TIP3   OH243878   0.659   4.038   0.568  0.1305  0.2676 -0.2270
 7488TIP3    H143879   0.726   3.982   0.528  0.6098  0.1530  0.7041
 7488TIP3    H243880   0.605   3.978   0.619 -1.2307  0.2352 -1.6464
 7489TIP3   OH243881   0.642   0.917   1.029  0.1083  0.2367 -0.2030
 7489TIP3    H143882   0.653   0.827   1.061 -1.3175  0.0604 -0.1715
 7489TIP3    H243883   0.569   0.952   1.079 -0.1562  0.9876 -1.0877
 7490TIP3   OH243884   5.296   0.593   3.864  0.1459  0.3646 -0.0276
 7490TIP3    H143885   5.212   0.601   3.909 -0.3762 -0.4235 -0.8351
 7490TIP3    H243886   5.293   0.508   3.821  0.5222  1.1576 -1.7321
 7491TIP3   OH243887   5.407   4.187   3.004 -0.7514  0.1725 -0.2142
 7491TIP3    H143888   5.383   4.238   3.081 -0.7586 -2.5595  1.7627
 7491TIP3    H243889   5.503   4.183   3.007 -0.8106 -1.1840  0.5975
 7492TIP3   OH243890   4.753   1.141  10.966 -0.0511  0.3870  0.2417
 7492TIP3    H143891   4.734   1.047  10.971  0.2311  0.3260  0.1678
 7492TIP3    H243892   4.686   1.176  10.907 -1.5521  0.6101  1.9778
 7493TIP3   OH243893   3.099   0.172   5.352  0.0554  0.0868 -0.3916
 7493TIP3    H143894   3.092   0.227   5.430 -2.3534 -1.7074  0.7757
 7493TIP3    H243895   3.080   0.232   5.280 -0.1137  1.2895  0.6002
 7494TIP3   OH243896   0.749   4.549  11.051  0.1891  0.1208 -0.0892
 7494TIP3    H143897   0.778   4.573  11.138  0.5864  0.1320 -0.2229
 7494TIP3    H243898   0.810   4.480  11.023  0.0508  0.0990 -0.3459
 7495TIP3   OH243899   4.531   4.548   4.686 -0.6449 -0.6023 -0.0316
 7495TIP3    H143900   4.518   4.577   4.776 -1.1475  0.3749 -0.4117
 7495TIP3    H243901   4.445   4.558   4.644 -0.1886 -0.1192 -0.8811
 7496TIP3   OH243902   2.194   1.439   0.435 -0.1247  0.1981  0.5052
 7496TIP3    H143903   2.136   1.509   0.464  0.7029  1.4267 -0.6646
 7496TIP3    H243904   2.191   1.444   0.339  0.2412 -1.1269  0.4102
 7497TIP3   OH243905   1.269   0.186   0.577  0.2702 -0.2738  0.3509
 7497TIP3    H143906   1.363   0.183   0.595  0.4129  2.9600  0.7915
 7497TIP3    H243907   1.235   0.252   0.639 -2.3995 -1.6878  0.5362
 7498TIP3   OH243908   1.311   0.478  12.803  0.3481  0.2163  0.5954
 7498TIP3    H143909   1.364   0.460  12.881  2.0200  1.8033 -0.1046
 7498TIP3    H243910   1.365   0.537  12.751 -0.8302 -0.6207 -1.6791
 7499TIP3   OH243911   1.491   3.728  13.948  0.1270  0.0621 -0.4730
 7499TIP3    H143912   1.448   3.807  13.915  1.8287  1.8680  1.3353
 7499TIP3    H243913   1.583   3.753  13.957  0.7677 -2.2253 -0.0468
 7500TIP3   OH243914   3.663   1.409  16.441  0.3951  0.1841 -0.0548
 7500TIP3    H143915   3.698   1.342  16.383 -1.1876 -0.7166 -0.0294
 7500TIP3    H243916   3.633   1.361  16.519 -1.9591  0.6790 -0.5740
 7501TIP3   OH243917   6.654   5.516   1.817  0.1812  0.1850 -0.2610
 7501TIP3    H143918   6.743   5.511   1.852  1.0959 -0.1233 -2.4858
 7501TIP3    H243919   6.603   5.458   1.873  1.3119  0.4908  1.1516
 7502TIP3   OH243920   1.356   1.076  12.382 -1.1480  0.3337 -0.0325
 7502TIP3    H143921   1.438   1.101  12.340 -0.6565 -2.8440 -1.2207
 7502TIP3    H243922   1.294   1.144  12.354  0.6009  1.7792 -0.6431
 7503TIP3   OH243923   1.129   3.245  16.473  0.1294  1.2253 -0.0738
 7503TIP3    H143924   1.060   3.181  16.493  0.5809  0.6510 -0.3166
 7503TIP3    H243925   1.206   3.212  16.519  0.7736  0.7360 -1.4377
 7504TIP3   OH243926   2.634   1.329  16.880  0.3155  0.2711  0.1256
 7504TIP3    H143927   2.574   1.363  16.814  0.4754  0.4958  0.0945
 7504TIP3    H243928   2.579   1.278  16.939  0.2973 -0.7020 -0.7031
 7505TIP3   OH243929   0.653   2.074  12.110 -0.4284  0.3097 -0.4320
 7505TIP3    H143930   0.691   2.020  12.041 -0.8239 -1.2087  0.4985
 7505TIP3    H243931   0.598   2.138  12.063  0.3852  0.1988 -1.5730
 7506TIP3   OH243932   0.750   2.496   3.343 -0.1419  0.3675  0.2267
 7506TIP3    H143933   0.803   2.428   3.302  1.2514  1.1936  0.6069
 7506TIP3    H243934   0.706   2.452   3.416  0.5373 -0.1816  0.3074
 7507TIP3   OH243935   3.237   2.591  13.303  0.3321  0.1967  0.5523
 7507TIP3    H143936   3.301   2.574  13.235  0.0530 -2.3227  0.8181
 7507TIP3    H243937   3.289   2.620  13.378  0.8765  0.7531 -0.0342
 7508TIP3   OH243938   5.448   4.099   3.872  0.0176  0.1244  0.1790
 7508TIP3    H143939   5.538   4.094   3.838  0.0479  0.0860  0.2676
 7508TIP3    H243940   5.458   4.102   3.967  0.0073  1.6739  0.1641
 7509TIP3   OH243941   3.305   0.961  14.929  0.3019 -0.2191  0.1776
 7509TIP3    H143942   3.212   0.977  14.948 -0.4141 -0.4955 -2.6383
 7509TIP3    H243943   3.343   1.048  14.923  0.5292 -0.1143  2.3917
 7510TIP3   OH243944   2.304   3.644   1.103  0.4130 -0.0543 -0.2915
 7510TIP3    H143945   2.298   3.570   1.164  0.2625  0.2458  0.0638
 7510TIP3    H243946   2.231   3.701   1.127  2.6467  2.1202  2.0692
 7511TIP3   OH243947   3.773   5.786  10.929  0.6644 -0.2528  0.7177
 7511TIP3    H143948   3.679   5.799  10.915  0.4897 -0.0262  2.0018
 7511TIP3    H243949   3.800   5.726  10.860 -0.4152 -0.2889  0.3162
 7512TIP3   OH243950   2.385   2.234   3.095 -0.2281  0.2715 -0.4564
 7512TIP3    H143951   2.442   2.308   3.075  0.4852 -0.3891 -0.9171
 7512TIP3    H243952   2.320   2.269   3.155 -1.0031  1.7403 -2.0593
 7513TIP3   OH243953   6.083   1.480  12.821  0.1377  0.1389 -0.3542
 7513TIP3    H143954   6.150   1.454  12.758 -0.3043  0.4064 -0.9438
 7513TIP3    H243955   6.132   1.503  12.900  0.8337  1.4016 -1.1186
 7514TIP3   OH243956   4.808   4.997   2.415  0.0139 -0.3267 -0.3609
 7514TIP3    H143957   4.820   5.056   2.341 -0.3687 -0.2728 -0.3816
 7514TIP3    H243958   4.767   5.050   2.483 -0.3240 -0.5597 -0.3767
 7515TIP3   OH243959   4.665   6.324   6.502  0.3000  0.5168 -0.1766
 7515TIP3    H143960   4.628   6.261   6.563  0.4233 -1.7153 -2.2859
 7515TIP3    H243961   4.605   6.399   6.506 -0.8283 -0.4127  1.1230
 7516TIP3   OH243962   6.309   2.158   3.340 -0.4488  0.2250 -0.0238
 7516TIP3    H143963   6.261   2.211   3.404 -0.1997  2.1137 -1.3233
 7516TIP3    H243964   6.288   2.068   3.363 -0.1039  0.7836  2.9377
 7517TIP3   OH243965   1.891   5.787  15.642 -0.1546 -0.2004  0.1247
 7517TIP3    H143966   1.864   5.707  15.688  1.3539 -0.3631  0.7564
 7517TIP3    H243967   1.986   5.783  15.640  0.0339  2.1225  1.1587
 7518TIP3   OH243968   0.254   3.705  15.644 -0.2716 -0.0867 -0.1834
 7518TIP3    H143969   0.198   3.770  15.601 -0.2049  0.9946  1.3099
 7518TIP3    H243970   0.313   3.757  15.698  0.0062 -1.3799  0.7819
 7519TIP3   OH243971   1.654   4.844   4.282 -0.7901  0.3260 -0.5556
 7519TIP3    H143972   1.599   4.914   4.320  1.4968  2.1064 -0.2856
 7519TIP3    H243973   1.649   4.859   4.188  0.0694  1.2275 -0.4793
 7520TIP3   OH243974   4.321   1.777   3.918 -0.0251  0.1115 -0.1527
 7520TIP3    H143975   4.332   1.872   3.910  0.3525  0.0270 -0.6976
 7520TIP3    H243976   4.239   1.767   3.967  0.0778  0.7168  0.1614
 7521TIP3   OH243977   0.780   1.085  16.388 -0.0514 -0.7465 -0.3448
 7521TIP3    H143978   0.862   1.122  16.357  0.3780 -1.2102  0.2035
 7521TIP3    H243979   0.743   1.151  16.446  1.4651 -1.7178  1.8579
 7522TIP3   OH243980   5.021   5.656  15.560 -0.1518  0.4756 -0.1914
 7522TIP3    H143981   4.976   5.582  15.600 -0.0768 -0.3140 -1.5292
 7522TIP3    H243982   5.048   5.625  15.474 -0.5704  2.2073 -1.0065
 7523TIP3   OH243983   1.015   0.958   1.869  0.5388  0.0087 -0.1532
 7523TIP3    H143984   0.985   1.019   1.802  0.6307  0.1932 -0.0242
 7523TIP3    H243985   0.947   0.960   1.936  2.4875  3.2433  1.9839
 7524TIP3   OH243986   2.571   2.645   2.547 -0.2104 -0.5435 -0.0937
 7524TIP3    H143987   2.627   2.719   2.568  2.4175 -2.4303  0.0427
 7524TIP3    H243988   2.590   2.626   2.455 -0.0977 -1.6362  0.1455
 7525TIP3   OH243989   3.206   6.222   5.457  0.8070  0.2921 -0.0817
 7525TIP3    H143990   3.219   6.129   5.474 -0.4715  0.3865  1.6821
 7525TIP3    H243991   3.173   6.258   5.540 -1.4433  1.7412 -1.4914
 7526TIP3   OH243992   4.328   5.516  14.427  0.4346 -0.3968  0.3165
 7526TIP3    H143993   4.288   5.565  14.498 -1.5629 -0.5044 -0.6710
 7526TIP3    H243994   4.303   5.425  14.443 -1.7974 -0.1909 -1.5428
 7527TIP3   OH243995   0.087   2.993   6.360  0.1506  0.1417  0.0343
 7527TIP3    H143996   0.119   3.016   6.447 -0.0923  1.2951 -0.1700
 7527TIP3    H243997   0.159   3.016   6.301  0.1471 -0.2320 -0.1200
 7528TIP3   OH243998   2.355   0.968  13.163  0.6677 -0.6756  0.3759
 7528TIP3    H143999   2.375   1.047  13.214  0.0299 -0.6750  0.6297
 7528TIP3    H244000   2.329   1.001  13.077 -2.5927 -0.3743  1.3536
 7529TIP3   OH244001   2.064   5.866  11.689 -0.0131 -0.3827  0.6346
 7529TIP3    H144002   1.973   5.893  11.704  0.0420  0.9548 -1.1401
 7529TIP3    H244003   2.079   5.885  11.597  2.7793  1.5900  1.3847
 7530TIP3   OH244004   1.004   5.607  14.447 -0.2297  0.0264 -0.5727
 7530TIP3    H144005   0.934   5.669  14.467 -1.7182 -0.7510 -2.9203
 7530TIP3    H244006   1.038   5.636  14.363  0.8094 -0.8783 -0.4878
 7531TIP3   OH244007   3.559   2.703  14.174  0.5981 -0.0633  0.0185
 7531TIP3    H144008   3.487   2.681  14.114 -1.6538  0.4186  2.3280
 7531TIP3    H244009   3.571   2.624  14.227  0.9135  0.2761  0.4562
 7532TIP3   OH244010   5.728   6.326   0.987 -0.3945  0.1855 -0.0606
 7532TIP3    H144011   5.808   6.377   0.983  0.4788 -1.1890 -1.1663
 7532TIP3    H244012   5.705   6.311   0.895 -1.7368  0.2770  0.2396
 7533TIP3   OH244013   4.773   4.990   0.119 -0.5141 -0.2410 -0.0467
 7533TIP3    H144014   4.855   4.954   0.153 -1.0144 -0.4331  1.0008
 7533TIP3    H244015   4.741   4.924   0.058  0.2492 -0.0314 -0.6909
 7534TIP3   OH244016   3.982   3.761   1.028 -0.1079  0.4739  0.0824
 7534TIP3    H144017   3.995   3.853   1.048 -0.4140  0.0944  2.2852
 7534TIP3    H244018   4.068   3.730   1.000  0.0556  1.3533 -0.4160
 7535TIP3   OH244019   4.774   6.097   0.169  0.7318 -0.3748  0.2949
 7535TIP3    H144020   4.703   6.035   0.182  1.0084 -0.7428  0.0724
 7535TIP3    H244021   4.748   6.147   0.092  0.0232  0.4862  1.0677
 7536TIP3   OH244022   4.663   1.890   5.452 -0.3485 -0.1711 -0.3217
 7536TIP3    H144023   4.574   1.924   5.452 -0.3462 -0.1086 -1.7542
 7536TIP3    H244024   4.682   1.872   5.360  1.6046  1.0735 -0.2059
 7537TIP3   OH244025   6.228   3.926  14.384  0.1588  0.3366  0.2821
 7537TIP3    H144026   6.304   3.915  14.326 -0.7819 -0.2348 -0.8981
 7537TIP3    H244027   6.265   3.944  14.470  1.6232  0.4172 -0.3391
 7538TIP3   OH244028   3.971   5.994   3.772 -0.4691 -0.7159  0.7266
 7538TIP3    H144029   3.893   5.955   3.732 -2.2432  1.3564  1.9471
 7538TIP3    H244030   3.949   6.087   3.781  1.6197 -0.3118  2.3773
 7539TIP3   OH244031   4.213   0.081   1.296 -0.2209  0.0895 -0.5396
 7539TIP3    H144032   4.222   0.175   1.283 -0.1861  0.3444  1.1068
 7539TIP3    H244033   4.280   0.059   1.360 -1.0695 -0.8196  0.0709
 7540TIP3   OH244034   5.633   2.304   5.568 -0.6540  0.1929 -0.2514
 7540TIP3    H144035   5.638   2.248   5.645  1.5006  0.9276  0.2073
 7540TIP3    H244036   5.659   2.247   5.495 -0.3705  0.1107 -0.0850
 7541TIP3   OH244037   1.215   3.353  14.192  0.3770  0.3002  0.4479
 7541TIP3    H144038   1.149   3.402  14.239  0.4103  1.1659 -0.3933
 7541TIP3    H244039   1.273   3.419  14.154  0.7735 -0.3976 -0.2015
 7542TIP3   OH244040   0.115   3.505  15.512  0.5103 -0.0201 -0.8791
 7542TIP3    H144041   0.167   3.436  15.469 -0.6128 -1.5951  0.1624
 7542TIP3    H244042   0.180   3.555  15.562  1.1506 -1.6772  0.0596
 7543TIP3   OH244043   0.173   4.219  15.194 -0.1098  0.5850 -0.3078
 7543TIP3    H144044   0.117   4.257  15.126  2.2025  0.0681 -2.6506
 7543TIP3    H244045   0.216   4.295  15.234  2.7145  0.8382 -3.3735
 7544TIP3   OH244046   0.613   1.044  12.559 -0.2490 -0.5097 -0.2924
 7544TIP3    H144047   0.596   1.021  12.467  0.2286  0.3532 -0.6070
 7544TIP3    H244048   0.529   1.029  12.603 -1.1134  1.1156 -1.2833
 7545TIP3   OH244049   3.336   0.845  12.260  0.1594 -0.9202  0.0896
 7545TIP3    H144050   3.255   0.822  12.305  0.4025 -2.2159 -0.1042
 7545TIP3    H244051   3.387   0.765  12.260  2.4325  0.3971  2.1808
 7546TIP3   OH244052   2.648   5.912   5.153  0.0589 -0.0090 -0.4358
 7546TIP3    H144053   2.691   5.833   5.186  2.0305  1.3050  0.3416
 7546TIP3    H244054   2.556   5.888   5.144  0.1673 -1.6809  2.0712
 7547TIP3   OH244055   6.022   2.128  12.296 -0.0599  0.5919  0.5434
 7547TIP3    H144056   6.011   2.068  12.222  0.9002 -0.2158  1.0310
 7547TIP3    H244057   6.088   2.190  12.267  0.1097  0.4473  0.6212
 7548TIP3   OH244058   2.322   3.866  12.757  0.5234 -0.2234  0.2740
 7548TIP3    H144059   2.343   3.805  12.828 -1.4020  0.7894  1.8036
 7548TIP3    H244060   2.304   3.949  12.802  0.5801  0.8176 -1.5461
 7549TIP3   OH244061   4.363   5.147  13.565  0.2078  0.0576 -0.1706
 7549TIP3    H144062   4.310   5.223  13.587  1.5711  0.9165  0.3161
 7549TIP3    H244063   4.418   5.133  13.642 -1.2016 -2.5543  0.4783
 7550TIP3   OH244064   3.810   2.411  16.356  0.5074 -0.6224  0.4603
 7550TIP3    H144065   3.849   2.421  16.270  0.0520  0.4824  0.3560
 7550TIP3    H244066   3.826   2.320  16.380  0.8085 -0.8902 -0.6986
 7551TIP3   OH244067   2.108   2.238  15.341 -0.3016 -0.2815  0.1562
 7551TIP3    H144068   2.027   2.207  15.381  0.2880 -1.0390  0.7892
 7551TIP3    H244069   2.088   2.242  15.247 -1.1624 -0.1397  0.3346
 7552TIP3   OH244070   0.278   2.320   2.359 -0.0698  0.2803 -0.3090
 7552TIP3    H144071   0.205   2.366   2.316 -0.1216  0.3146 -0.1848
 7552TIP3    H244072   0.352   2.332   2.300  0.1865  1.4126  0.2210
 7553TIP3   OH244073   5.907   6.500  15.568  0.2090 -0.6949 -0.2593
 7553TIP3    H144074   5.896   6.500  15.473 -1.9529 -2.3150 -0.0993
 7553TIP3    H244075   5.909   6.592  15.593  3.6233 -0.1378 -2.0619
 7554TIP3   OH244076   0.452   0.872   4.430 -0.1497  0.1844 -0.2070
 7554TIP3    H144077   0.480   0.833   4.513  0.9798 -0.3156 -0.8048
 7554TIP3    H244078   0.531   0.912   4.394 -0.0253 -1.6021 -2.1407
 7555TIP3   OH244079   3.955   2.078   5.057 -0.0032 -0.6673  0.4695
 7555TIP3    H144080   4.017   2.021   5.103 -0.7498 -0.4258  1.8635
 7555TIP3    H244081   3.869   2.046   5.085 -0.4505  0.7257  0.8068
 7556TIP3   OH244082   6.786   0.038   0.057  0.1503 -0.2603  0.0428
 7556TIP3    H144083   6.858   0.066   0.000 -0.8391 -0.3292 -1.2867
 7556TIP3    H244084   6.821   0.049   0.146  1.8134 -0.3425 -0.5527
 7557TIP3   OH244085   1.730   3.700   3.262  0.7612  0.2260  0.4142
 7557TIP3    H144086   1.721   3.785   3.304 -3.2876  0.3622 -0.2799
 7557TIP3    H244087   1.647   3.655   3.280  2.2806 -3.1724 -0.1769
 7558TIP3   OH244088   1.554   5.791  12.924  0.6180 -0.1380  0.1321
 7558TIP3    H144089   1.617   5.768  12.856 -0.1643  0.7898 -0.9401
 7558TIP3    H244090   1.536   5.708  12.969 -0.6045 -1.2754 -2.2957
 7559TIP3   OH244091   4.433   2.127   0.061 -0.1309  0.0693 -0.8384
 7559TIP3    H144092   4.441   2.100   0.153  0.1005 -1.9097 -1.4097
 7559TIP3    H244093   4.509   2.183   0.046  0.1456 -0.0568  0.0134
 7560TIP3   OH244094   3.679   5.740  12.855 -0.2302 -0.1694 -0.1853
 7560TIP3    H144095   3.740   5.696  12.795 -0.9932  0.4900 -1.4929
 7560TIP3    H244096   3.621   5.671  12.886 -1.9280 -0.0749 -2.8479
 7561TIP3   OH244097   1.050   5.911  14.787 -0.1592 -0.1201 -0.2673
 7561TIP3    H144098   1.093   5.837  14.829 -2.3941 -0.0142  2.5453
 7561TIP3    H244099   1.104   5.986  14.808 -0.5868 -0.2631  1.4466
 7562TIP3   OH244100   5.143   0.178   6.364 -0.1747 -0.1606  0.1550
 7562TIP3    H144101   5.097   0.100   6.395  1.8943 -1.8417 -0.7433
 7562TIP3    H244102   5.195   0.207   6.439  0.1652 -0.5405  0.0698
 7563TIP3   OH244103   4.271   3.742   5.063  0.3506  0.5095 -0.3838
 7563TIP3    H144104   4.340   3.790   5.017  0.2268  2.2348  1.1142
 7563TIP3    H244105   4.311   3.717   5.146 -0.5876  0.8850  0.1969
 7564TIP3   OH244106   4.351   5.979   2.986  0.2086 -0.0333 -0.1042
 7564TIP3    H144107   4.343   6.059   3.038  1.4932  0.6049 -0.8472
 7564TIP3    H244108   4.432   5.939   3.016 -0.8091 -1.4957  0.8008
 7565TIP3   OH244109   4.160   0.046  12.125  0.8903  0.2932 -0.1642
 7565TIP3    H144110   4.074   0.025  12.162  0.2457 -0.5451 -1.9825
 7565TIP3    H244111   4.163  -0.004  12.043  3.1542  0.2430 -0.1146
 7566TIP3   OH244112   4.306   6.246  16.594  0.2200 -0.0028 -0.1678
 7566TIP3    H144113   4.224   6.198  16.612 -0.1316 -0.5361 -2.8238
 7566TIP3    H244114   4.358   6.186  16.541  2.3866  0.3645  1.3776
 7567TIP3   OH244115   5.547   5.150   0.658  0.0689 -0.0821  0.0164
 7567TIP3    H144116   5.527   5.093   0.732  1.8901 -0.2719  0.4105
 7567TIP3    H244117   5.631   5.118   0.625 -0.7732 -0.1235 -2.2797
 7568TIP3   OH244118   6.768   5.766   0.216 -0.1981 -0.3549  0.2608
 7568TIP3    H144119   6.677   5.739   0.202 -0.0419 -1.1527  0.7425
 7568TIP3    H244120   6.811   5.746   0.133 -0.2773 -0.7696  0.3172
 7569TIP3   OH244121   3.065   5.952   5.438  0.4746  0.2807  0.5806
 7569TIP3    H144122   3.004   5.956   5.365 -0.6327 -1.7105  1.3069
 7569TIP3    H244123   3.052   5.865   5.476  1.9929  0.7277  2.3145
 7570TIP3   OH244124   6.243   4.943  16.043  0.3350  0.0032 -0.0590
 7570TIP3    H144125   6.324   4.985  16.015 -0.2900  2.1031  1.0738
 7570TIP3    H244126   6.191   4.933  15.963  1.2570 -0.4185 -0.6260
 7571TIP3   OH244127   5.480   0.416  12.662  0.5039 -0.1184 -0.4226
 7571TIP3    H144128   5.462   0.357  12.734  0.6857 -0.3595 -0.5740
 7571TIP3    H244129   5.501   0.500  12.704 -2.9977  0.8338 -0.2208
 7572TIP3   OH244130   3.060   2.456  12.845  0.4448 -0.0847 -0.0658
 7572TIP3    H144131   3.100   2.384  12.797  0.5208 -0.0959  0.0130
 7572TIP3    H244132   2.971   2.462  12.811  0.0028 -1.0778  0.8578
 7573TIP3   OH244133   2.326   5.484  12.483  0.8195 -0.3555 -0.2073
 7573TIP3    H144134   2.277   5.422  12.537  0.1290  0.0224 -0.3891
 7573TIP3    H244135   2.272   5.495  12.404 -1.0124  3.3154  1.3540
 7574TIP3   OH244136   0.073   3.715   4.997  0.0011 -0.1692 -0.3689
 7574TIP3    H144137   0.102   3.625   4.980 -0.4247 -0.5144  0.6588
 7574TIP3    H244138  -0.022   3.709   4.997 -0.0343 -0.0531  1.2880
 7575TIP3   OH244139   1.495   0.791   0.176  0.2599 -0.0255 -0.0394
 7575TIP3    H144140   1.557   0.853   0.138 -0.4478  1.2070  0.7721
 7575TIP3    H244141   1.455   0.747   0.101  1.8682 -0.6252 -0.5886
 7576TIP3   OH244142   2.550   2.287  11.882 -0.0261 -0.5071 -0.2252
 7576TIP3    H144143   2.491   2.354  11.916 -0.5007 -1.1033  0.1662
 7576TIP3    H244144   2.518   2.206  11.921 -0.0557 -1.1036 -1.4442
 7577TIP3   OH244145   0.552   1.891  13.576  0.8007 -1.0787  0.6869
 7577TIP3    H144146   0.624   1.901  13.514  0.0618  0.0041 -0.0250
 7577TIP3    H244147   0.519   1.980  13.590 -0.6563 -1.5869  0.6916
 7578TIP3   OH244148   0.168   2.741  10.871 -0.1927 -0.1541  0.3135
 7578TIP3    H144149   0.191   2.670  10.810  1.3908 -0.5350  1.2708
 7578TIP3    H244150   0.076   2.759  10.854  0.1474 -0.3490 -2.0691
 7579TIP3   OH244151   0.345   4.201   5.313  0.1473 -0.0374  0.3869
 7579TIP3    H144152   0.256   4.175   5.291 -0.2380  0.0920  1.6892
 7579TIP3    H244153   0.353   4.181   5.407  2.1314 -1.9168 -0.0777
 7580TIP3   OH244154   0.660   3.115   3.058 -0.1469  0.1742 -0.0293
 7580TIP3    H144155   0.652   3.040   3.117 -0.9853 -0.3644 -0.8005
 7580TIP3    H244156   0.644   3.191   3.114 -2.1001 -0.3899  0.2459
 7581TIP3   OH244157   2.250   3.042   4.626  0.0453 -0.2602 -0.2617
 7581TIP3    H144158   2.163   3.073   4.602 -0.5255 -0.9021  0.9033
 7581TIP3    H244159   2.235   2.963   4.677  1.3349 -0.5647 -0.2975
 7582TIP3   OH244160   0.370   3.572   0.905 -0.0277  0.0799 -0.1335
 7582TIP3    H144161   0.362   3.654   0.954  2.1541  0.0011  0.4918
 7582TIP3    H244162   0.301   3.516   0.941  0.3200  0.6695  1.5707
 7583TIP3   OH244163   4.364   2.356  15.481  0.0329 -0.3642 -0.0054
 7583TIP3    H144164   4.377   2.306  15.562 -2.2986  0.4147  0.9207
 7583TIP3    H244165   4.302   2.424  15.505  0.5781  0.9349 -2.0745
 7584TIP3   OH244166   0.923   3.633   2.874 -0.0007 -0.1491  0.0996
 7584TIP3    H144167   0.944   3.606   2.784  0.1542 -0.2994  0.1787
 7584TIP3    H244168   0.988   3.587   2.928  0.2659  0.3931  0.2381
 7585TIP3   OH244169   5.521   1.556  15.895 -0.3066  0.6364 -0.3029
 7585TIP3    H144170   5.465   1.632  15.885  1.1718  1.8073 -0.0939
 7585TIP3    H244171   5.561   1.543  15.809 -0.7922 -0.1188 -0.4244
 7586TIP3   OH244172   3.728   1.972   6.481 -0.0374 -0.2136  0.5954
 7586TIP3    H144173   3.740   1.924   6.563  0.9796 -1.7024 -0.3712
 7586TIP3    H244174   3.715   1.904   6.415 -2.3870  0.9992 -0.2918
 7587TIP3   OH244175   2.013   1.444   3.153  0.4205 -0.1475  0.0033
 7587TIP3    H144176   2.028   1.470   3.243  1.9243  0.2094 -0.3153
 7587TIP3    H244177   1.981   1.354   3.159 -0.3373  0.1752  0.9152
 7588TIP3   OH244178   1.495   3.121  15.547 -0.4833  0.0244  0.4163
 7588TIP3    H144179   1.421   3.120  15.486 -1.5708  0.2779  1.6926
 7588TIP3    H244180   1.492   3.208  15.587  0.3851 -0.0365  0.6314
 7589TIP3   OH244181   3.539   1.515   4.284  0.1292  0.0407 -0.4143
 7589TIP3    H144182   3.526   1.610   4.279 -0.1257  0.2008  1.9299
 7589TIP3    H244183   3.577   1.501   4.371 -1.6140 -2.1506  0.0784
 7590TIP3   OH244184   5.901   6.485  12.975  0.3808 -0.1873 -0.2459
 7590TIP3    H144185   5.918   6.449  12.888 -1.1462 -1.3130 -0.1341
 7590TIP3    H244186   5.937   6.573  12.972 -0.1106  0.0067 -2.2269
 7591TIP3   OH244187   4.890   1.797   1.230 -0.2205 -0.5819  0.2629
 7591TIP3    H144188   4.895   1.868   1.166  2.3656 -1.2003 -0.3461
 7591TIP3    H244189   4.898   1.717   1.178 -1.6625 -1.2999  1.0758
 7592TIP3   OH244190   6.184   1.080   5.817  0.8838  0.0840  0.2280
 7592TIP3    H144191   6.211   1.170   5.802 -0.6544  0.5559  0.1888
 7592TIP3    H244192   6.094   1.075   5.786  1.3614 -1.8279 -1.0449
 7593TIP3   OH244193   5.585   2.833   0.206  0.0188  0.2333 -0.4227
 7593TIP3    H144194   5.557   2.751   0.247  0.7475  0.9199  1.5315
 7593TIP3    H244195   5.675   2.817   0.178 -0.4709 -0.2284 -1.8256
 7594TIP3   OH244196   1.444   5.018   2.049 -0.1597  0.2021 -0.3315
 7594TIP3    H144197   1.423   4.994   2.140  0.7846 -1.5213 -0.5434
 7594TIP3    H244198   1.422   4.941   1.998  0.6234  0.6691 -1.4006
 7595TIP3   OH244199   5.267   4.703  16.811 -0.3482 -1.1517 -0.4197
 7595TIP3    H144200   5.359   4.703  16.839 -0.6610  0.6003  0.7951
 7595TIP3    H244201   5.271   4.686  16.717  1.6755  3.0924 -1.3727
 7596TIP3   OH244202   1.460   5.179  10.965 -0.2769  0.2643 -0.4050
 7596TIP3    H144203   1.383   5.229  10.938 -0.7102 -0.6118 -0.8197
 7596TIP3    H244204   1.451   5.095  10.920  0.6410 -0.0454 -0.0223
 7597TIP3   OH244205   5.839   0.998   2.603  0.0754 -0.0965 -0.1504
 7597TIP3    H144206   5.753   0.967   2.631  1.4793 -2.6405  1.7535
 7597TIP3    H244207   5.857   0.948   2.523  0.4875 -0.9872  0.4740
 7598TIP3   OH244208   3.382   6.508   0.687  0.8627  0.0603  0.1234
 7598TIP3    H144209   3.465   6.557   0.691  1.0512 -0.2834  0.4632
 7598TIP3    H244210   3.392   6.439   0.752  0.3033  0.0203  0.1683
 7599TIP3   OH244211   3.589   2.941  15.516 -0.0566 -0.3720  0.2992
 7599TIP3    H144212   3.644   2.944  15.595 -0.5076  0.5753  0.5890
 7599TIP3    H244213   3.605   2.854  15.480 -1.5436 -1.7204  2.6484
 7600TIP3   OH244214   3.216   3.169   1.733  0.1661  0.2437  0.2380
 7600TIP3    H144215   3.123   3.163   1.752 -0.0492 -0.2170 -0.8666
 7600TIP3    H244216   3.249   3.080   1.744  0.7481  0.6168  1.8136
 7601TIP3   OH244217   2.555   2.411  14.470 -0.4800  0.0428  0.2230
 7601TIP3    H144218   2.493   2.428  14.399 -0.4702 -0.2406  0.1488
 7601TIP3    H244219   2.641   2.429  14.431 -0.5300  0.7465  0.4151
 7602TIP3   OH244220   1.998   6.637  12.621  0.1854 -0.9077  0.4520
 7602TIP3    H144221   2.038   6.577  12.558  0.5586  0.4011 -0.6261
 7602TIP3    H244222   2.059   6.638  12.695  0.7394 -1.0463  0.0101
 7603TIP3   OH244223   1.765   1.901  14.026  0.3067 -0.4756 -0.0536
 7603TIP3    H144224   1.760   1.977  14.085 -3.7209 -3.0348  3.4553
 7603TIP3    H244225   1.847   1.858  14.050  1.5687  1.5020 -0.5771
 7604TIP3   OH244226   2.015   2.793  16.941 -0.0391 -0.3795  0.1154
 7604TIP3    H144227   2.107   2.814  16.925 -0.6842  0.6777 -2.9093
 7604TIP3    H244228   1.972   2.878  16.953 -0.8893 -0.7118 -0.4313
 7605TIP3   OH244229   5.585   3.861   5.341  0.1104  0.0262  0.0226
 7605TIP3    H144230   5.491   3.858   5.358  0.4777 -1.2477  2.1677
 7605TIP3    H244231   5.609   3.771   5.320  0.8081  0.4071 -0.8901
 7606TIP3   OH244232   4.913   1.086  14.448 -0.2192 -0.9898 -0.2209
 7606TIP3    H144233   4.910   1.146  14.522 -0.0978  2.5330 -2.8041
 7606TIP3    H244234   4.821   1.068  14.428 -0.5354  1.8741 -1.8690
 7607TIP3   OH244235   3.513   4.868   4.888 -0.4378 -0.0400 -0.3319
 7607TIP3    H144236   3.544   4.914   4.810 -1.3893  0.9677 -0.1436
 7607TIP3    H244237   3.591   4.825   4.923  0.3256  0.7875 -0.9611
 7608TIP3   OH244238   1.713   4.267   3.977  0.8553  0.3717  0.2499
 7608TIP3    H144239   1.781   4.207   4.009  1.1170  0.8232  0.5688
 7608TIP3    H244240   1.748   4.354   3.997 -0.3944  0.5934  1.6250
 7609TIP3   OH244241   5.959   2.580  16.491  0.0818  0.6522 -0.2663
 7609TIP3    H144242   6.005   2.592  16.574  0.4770 -0.4298 -0.3210
 7609TIP3    H244243   6.024   2.600  16.424 -0.1153  1.1016 -0.3300
 7610TIP3   OH244244   0.056   1.557  12.881  0.6107 -0.1322  0.0716
 7610TIP3    H144245   0.132   1.548  12.823  0.5503  0.7220 -0.1541
 7610TIP3    H244246   0.073   1.495  12.952  2.1684  0.9302  0.7018
 7611TIP3   OH244247   5.661   2.179   2.230  0.2669  0.2881  0.2514
 7611TIP3    H144248   5.657   2.184   2.325  1.8504 -1.8977  0.5057
 7611TIP3    H244249   5.734   2.236   2.206  0.1096  0.5443  0.3813
 7612TIP3   OH244250   4.091   0.995  12.560 -0.3922 -0.1215  0.1572
 7612TIP3    H144251   4.014   0.941  12.580 -0.0152 -0.8576 -0.3516
 7612TIP3    H244252   4.103   1.048  12.638 -1.1610 -0.3093  0.4166
 7613TIP3   OH244253   2.759   2.700   4.601 -0.1157  0.7453  0.4420
 7613TIP3    H144254   2.726   2.782   4.565 -0.8310  0.1529 -0.3168
 7613TIP3    H244255   2.852   2.714   4.614  0.1876  1.0351 -1.6173
 7614TIP3   OH244256   3.608   2.387  11.894 -0.2016 -0.1264  0.3490
 7614TIP3    H144257   3.579   2.384  11.985 -1.1491 -0.9250  0.0396
 7614TIP3    H244258   3.557   2.458  11.855 -0.1034 -0.0601  0.3417
 7615TIP3   OH244259   0.305   4.425   4.643 -0.0953  0.8799  0.1003
 7615TIP3    H144260   0.251   4.415   4.565  0.4891 -0.4714 -0.1663
 7615TIP3    H244261   0.335   4.336   4.663  1.8590  1.5476  0.3580
 7616TIP3   OH244262   3.352   0.364  12.717 -0.7040  0.3564 -0.0792
 7616TIP3    H144263   3.317   0.384  12.630 -0.1172  0.0520 -0.3902
 7616TIP3    H244264   3.401   0.443  12.741 -1.0723  0.5352  0.0789
 7617TIP3   OH244265   2.617   1.788   5.294 -0.0467 -0.1396 -0.1793
 7617TIP3    H144266   2.675   1.760   5.365 -1.2507  1.0469  1.3401
 7617TIP3    H244267   2.675   1.800   5.219  0.9063 -4.3648 -0.3990
 7618TIP3   OH244268   5.333   2.656  16.475  0.2894  0.1247  0.5196
 7618TIP3    H144269   5.422   2.642  16.443  0.0114 -1.0851  0.2343
 7618TIP3    H244270   5.338   2.739  16.523  1.6844 -0.1935  0.9817
 7619TIP3   OH244271   2.219   0.255  13.429  0.1001 -0.1609 -0.6847
 7619TIP3    H144272   2.243   0.250  13.336  0.3610  1.1969 -0.7102
 7619TIP3    H244273   2.302   0.268  13.474 -0.0861 -0.2287 -0.3223
 7620TIP3   OH244274   5.430   3.593   2.796 -0.1645 -0.0471 -0.0508
 7620TIP3    H144275   5.475   3.666   2.754 -1.4773  0.2908 -0.9081
 7620TIP3    H244276   5.456   3.516   2.746  0.4693 -0.0466  0.2659
 7621TIP3   OH244277   1.795   4.420  11.337 -0.5102  0.4409 -0.3889
 7621TIP3    H144278   1.844   4.501  11.326 -2.6708  2.0544  1.1988
 7621TIP3    H244279   1.849   4.368  11.397  0.5987  0.9413 -0.9242
 7622TIP3   OH244280   1.013   0.283   0.904 -0.0981  0.3973  0.1775
 7622TIP3    H144281   1.055   0.264   0.988 -1.1565 -0.2784  0.5605
 7622TIP3    H244282   1.045   0.371   0.881  0.8840  0.2282  0.8392
 7623TIP3   OH244283   3.216   5.741  11.184 -0.7653  0.0930  0.1187
 7623TIP3    H144284   3.286   5.806  11.172 -1.2159  1.0732  2.3228
 7623TIP3    H244285   3.154   5.784  11.243 -1.5021 -2.0527  0.9823
 7624TIP3   OH244286   3.925   4.762  12.085  0.3481  0.1752 -0.3553
 7624TIP3    H144287   3.902   4.734  12.173  1.7674 -0.3350 -0.1258
 7624TIP3    H244288   3.851   4.735  12.031 -0.0927 -0.3914  0.5090
 7625TIP3   OH244289   1.623   4.541   5.039  0.6367 -0.3013 -0.2434
 7625TIP3    H144290   1.528   4.547   5.031  0.4275 -2.0067  0.5113
 7625TIP3    H244291   1.655   4.536   4.949  0.0144  0.1005 -0.4948
 7626TIP3   OH244292   1.887   3.184   0.364  0.1357  0.1587  0.0661
 7626TIP3    H144293   1.836   3.199   0.284  1.9542 -1.0448 -1.4023
 7626TIP3    H244294   1.947   3.259   0.368  1.2826 -0.6825 -0.7603
 7627TIP3   OH244295   6.672   4.254  12.037  0.1838  0.0889 -0.0136
 7627TIP3    H144296   6.722   4.283  11.961 -0.4243  0.3873 -0.3078
 7627TIP3    H244297   6.689   4.160  12.042  0.2648  0.0731 -0.4962
 7628TIP3   OH244298   1.742   3.302  12.294  0.5311 -0.2179  0.2973
 7628TIP3    H144299   1.832   3.290  12.264  0.4256 -0.4870  0.0785
 7628TIP3    H244300   1.702   3.359  12.227  0.5588 -0.0380  0.4335
 7629TIP3   OH244301   4.378   2.302  15.215  0.5502  0.1294 -1.0787
 7629TIP3    H144302   4.376   2.349  15.298  1.1633  0.9489 -1.5191
 7629TIP3    H244303   4.288   2.272  15.202  0.3191  0.5173 -0.4172
 7630TIP3   OH244304   2.005   3.774   5.323  0.0734  0.5322  0.1769
 7630TIP3    H144305   2.057   3.787   5.243  1.1694  1.2333  0.9574
 7630TIP3    H244306   1.916   3.799   5.298 -0.0836 -1.3195 -1.3869
 7631TIP3   OH244307   3.362   5.206  14.581 -0.1557 -0.1858  0.4785
 7631TIP3    H144308   3.369   5.293  14.619  1.9808 -0.6871  1.3587
 7631TIP3    H244309   3.410   5.212  14.498  0.1101 -0.5624  0.6045
 7632TIP3   OH244310   1.853   6.379  12.972 -0.5158 -0.3133  0.2132
 7632TIP3    H144311   1.786   6.364  13.038 -0.0820 -2.8216  0.1764
 7632TIP3    H244312   1.840   6.309  12.908 -0.9210  1.9914 -2.4480
 7633TIP3   OH244313   2.589   3.620   1.113  0.7085 -0.2455  0.3020
 7633TIP3    H144314   2.593   3.713   1.137  1.7996 -0.6258  1.7690
 7633TIP3    H244315   2.497   3.597   1.122  0.2937  0.8577 -0.8225
 7634TIP3   OH244316   4.584   2.806  13.396 -0.5780  0.0463 -0.0768
 7634TIP3    H144317   4.552   2.841  13.313  0.1415  1.1949  0.1088
 7634TIP3    H244318   4.526   2.733  13.416 -2.9640  1.9083  0.1751
 7635TIP3   OH244319   3.893   4.691  14.140 -0.0529  0.0531 -0.1220
 7635TIP3    H144320   3.852   4.658  14.060  0.4155 -0.9960  0.0459
 7635TIP3    H244321   3.850   4.642  14.211  1.2265 -0.8414  0.0738
 7636TIP3   OH244322   3.818   4.429   1.863  0.0988  0.2636 -0.0774
 7636TIP3    H144323   3.886   4.373   1.824  0.3367  0.5307 -0.0469
 7636TIP3    H244324   3.859   4.515   1.868  0.0217  0.2633  0.6439
 7637TIP3   OH244325   3.428   6.581  17.032  0.0231 -0.1296  0.3904
 7637TIP3    H144326   3.508   6.634  17.039  0.6091 -1.1533  2.0855
 7637TIP3    H244327   3.441   6.529  16.953  0.7843  0.1211  0.3378
 7638TIP3   OH244328   4.659   0.673   0.030 -0.1035 -0.1087 -0.3660
 7638TIP3    H144329   4.568   0.691   0.054 -0.1187  0.3660 -0.7599
 7638TIP3    H244330   4.673   0.723  -0.050  0.5929  0.0576 -0.1505
 7639TIP3   OH244331   1.554   6.371  16.533  0.2036  0.5911  0.8535
 7639TIP3    H144332   1.537   6.462  16.511  0.2548  0.4153  0.0524
 7639TIP3    H244333   1.488   6.322  16.484  0.6283  0.1542  0.7109
 7640TIP3   OH244334   1.156   0.081  16.942 -0.0179  0.0384 -0.2865
 7640TIP3    H144335   1.130   0.066  16.851  1.2230 -1.3980 -0.4443
 7640TIP3    H244336   1.204   0.002  16.967  0.4983  0.8044  1.3184
 7641TIP3   OH244337   5.957   0.354   4.750 -0.3087  0.2685  0.0811
 7641TIP3    H144338   5.928   0.396   4.669  1.3376 -0.0031 -0.6814
 7641TIP3    H244339   5.883   0.299   4.776 -1.0761  0.8019 -0.9068
 7642TIP3   OH244340   5.418   5.907   3.523 -0.1629  0.0758  0.0974
 7642TIP3    H144341   5.430   5.876   3.434  0.1609 -0.0404  0.1789
 7642TIP3    H244342   5.415   6.003   3.515 -2.1354  0.0175 -0.2684
 7643TIP3   OH244343   4.099   0.251  11.542  0.6426 -0.1916  0.7326
 7643TIP3    H144344   4.055   0.253  11.457  0.5611  0.3424  0.7864
 7643TIP3    H244345   4.060   0.322  11.592 -0.2208 -1.2926  1.6847
 7644TIP3   OH244346   1.069   2.661   3.833  0.0641 -0.4341 -0.0510
 7644TIP3    H144347   1.123   2.725   3.879  0.7790 -0.7253 -0.4777
 7644TIP3    H244348   1.017   2.620   3.902  0.2372 -0.0184  0.3369
 7645TIP3   OH244349   4.346   3.359  12.916 -0.0253 -0.2844 -0.0219
 7645TIP3    H144350   4.287   3.291  12.948  0.0056 -0.4879 -0.3879
 7645TIP3    H244351   4.353   3.342  12.822 -0.1867  0.3610 -0.1513
 7646TIP3   OH244352   5.162   0.726  13.657  0.2750  0.0522  0.5272
 7646TIP3    H144353   5.243   0.700  13.613 -1.4076 -1.0677 -2.1897
 7646TIP3    H244354   5.154   0.820  13.639 -0.0730 -0.2634 -1.2278
 7647TIP3   OH244355   5.187   3.132   0.550  0.1948  0.6686  0.6214
 7647TIP3    H144356   5.119   3.164   0.490 -0.7966  0.3078  1.5233
 7647TIP3    H244357   5.163   3.168   0.635  0.8728  0.1391  1.0489
 7648TIP3   OH244358   2.616   5.047  14.016 -0.1680 -0.3345  0.8642
 7648TIP3    H144359   2.707   5.068  13.994 -0.2079 -0.2383  0.7907
 7648TIP3    H244360   2.565   5.080  13.942 -0.3747  0.6475  1.4261
 7649TIP3   OH244361   2.315   6.393   2.818  0.1061  0.1271 -0.0377
 7649TIP3    H144362   2.236   6.360   2.775  0.5235  0.2945 -0.9589
 7649TIP3    H244363   2.375   6.319   2.817  0.3057  0.2929 -0.2119
 7650TIP3   OH244364   0.534   3.860   6.403  0.5345  0.0145  0.0953
 7650TIP3    H144365   0.527   3.853   6.308  2.2451 -2.5964  0.0579
 7650TIP3    H244366   0.452   3.821   6.435 -0.0916  0.9927 -0.2586
 7651TIP3   OH244367   3.169   4.936  16.058 -0.5309 -0.6811  0.1157
 7651TIP3    H144368   3.119   4.961  16.136  0.0817 -2.6082  1.1980
 7651TIP3    H244369   3.257   4.921  16.091 -0.1452 -1.0702 -1.0559
 7652TIP3   OH244370   0.201   5.718  12.716 -0.4255 -0.1291  0.3414
 7652TIP3    H144371   0.109   5.715  12.689 -0.3386 -1.1335  0.1045
 7652TIP3    H244372   0.248   5.743  12.637 -0.4212 -0.4426  0.2429
 7653TIP3   OH244373   3.036   6.733  12.366  0.1725 -0.5547 -0.3945
 7653TIP3    H144374   2.956   6.763  12.410 -0.2980 -2.8299  0.4241
 7653TIP3    H244375   3.006   6.692  12.286  0.7368  0.3813 -1.1100
 7654TIP3   OH244376   1.396   3.747  14.787 -0.0437 -0.4194  0.5680
 7654TIP3    H144377   1.447   3.752  14.707 -1.5647  0.9530 -0.3750
 7654TIP3    H244378   1.340   3.670  14.775  1.4829 -1.7257  1.4602
 7655TIP3   OH244379   3.484   4.216   2.183 -1.0535  0.3472  0.5786
 7655TIP3    H144380   3.483   4.182   2.272 -0.9799  1.1184  0.8785
 7655TIP3    H244381   3.570   4.192   2.149 -1.9179 -2.0423 -0.1271
 7656TIP3   OH244382   6.212   6.294  15.302  0.1726  0.7216  0.4249
 7656TIP3    H144383   6.189   6.387  15.301 -0.4831  0.6027  1.6886
 7656TIP3    H244384   6.170   6.258  15.224 -1.0327  1.1804  0.8411
 7657TIP3   OH244385   4.265   5.325  14.889 -0.0669 -0.1159 -0.2624
 7657TIP3    H144386   4.250   5.301  14.798 -0.0754 -1.0900 -0.0072
 7657TIP3    H244387   4.209   5.266  14.939  0.6020 -0.1830  0.4168
 7658TIP3   OH244388   5.417   4.535   0.456 -0.0396  0.6437  0.0673
 7658TIP3    H144389   5.451   4.602   0.396 -0.8202  1.5876  0.6560
 7658TIP3    H244390   5.354   4.486   0.404  1.1747 -0.2487 -0.6309
 7659TIP3   OH244391   1.001   0.143   1.476  0.5622  0.5319 -0.5421
 7659TIP3    H144392   0.932   0.178   1.419  0.3546  0.4185 -0.3628
 7659TIP3    H244393   1.069   0.211   1.476  1.4651 -0.3028 -2.5010
 7660TIP3   OH244394   1.779   0.469   5.400  0.3378 -0.2958 -0.2931
 7660TIP3    H144395   1.875   0.468   5.395  0.7326  4.8538  0.6449
 7660TIP3    H244396   1.760   0.453   5.492  0.7518  2.2436  0.3240
 7661TIP3   OH244397   5.463   0.142   0.979  0.4658  0.0832 -0.6203
 7661TIP3    H144398   5.551   0.114   0.952  0.5955 -0.5892  0.4340
 7661TIP3    H244399   5.425   0.064   1.020 -0.6286  0.3739 -1.0767
 7662TIP3   OH244400   1.892   1.720  12.854  0.4808 -0.2732 -0.2773
 7662TIP3    H144401   1.835   1.778  12.803 -1.6568 -2.9089 -1.1489
 7662TIP3    H244402   1.958   1.778  12.891 -0.2623  2.3756 -2.7176
 7663TIP3   OH244403   1.557   1.713   1.799  0.1030  0.1139 -0.1563
 7663TIP3    H144404   1.552   1.796   1.751  0.8879  0.9158  1.0794
 7663TIP3    H244405   1.467   1.694   1.824  0.1239  1.5972  1.1497
 7664TIP3   OH244406   3.846   5.413   5.644 -0.6038  0.1241 -0.1856
 7664TIP3    H144407   3.874   5.443   5.558 -2.5072 -0.0433 -0.9100
 7664TIP3    H244408   3.924   5.374   5.683  0.4941  0.9562 -1.4841
 7665TIP3   OH244409   1.725   3.238  14.638  0.3076  0.6786 -0.8994
 7665TIP3    H144410   1.692   3.322  14.669 -1.3419 -0.7722  1.5634
 7665TIP3    H244411   1.647   3.185  14.623  1.2255 -1.9635  2.4018
 7666TIP3   OH244412   0.774   2.471   0.518  0.2310  0.2744 -0.4303
 7666TIP3    H144413   0.839   2.541   0.512  0.9811 -0.2329  1.1250
 7666TIP3    H244414   0.810   2.411   0.583  0.1862 -2.1798 -2.5002
 7667TIP3   OH244415   0.997   5.367  15.056 -0.1796 -0.1416 -0.4047
 7667TIP3    H144416   1.024   5.277  15.074 -2.0140 -0.9079 -1.2879
 7667TIP3    H244417   1.005   5.412  15.140 -1.9958 -1.8835  0.7667
 7668TIP3   OH244418   1.285   3.361   1.743 -0.3068  0.2588  0.4881
 7668TIP3    H144419   1.272   3.455   1.747 -2.1619  0.0515  0.3581
 7668TIP3    H244420   1.216   3.329   1.683 -1.0909 -1.3686  2.1462
 7669TIP3   OH244421   5.428   6.100  16.997 -0.1078 -0.2209 -0.0764
 7669TIP3    H144422   5.428   6.113  16.902 -0.4169  1.5272  0.1242
 7669TIP3    H244423   5.398   6.010  17.009  0.9616 -0.8291 -1.6626
 7670TIP3   OH244424   4.359   5.463  11.282  0.3963 -0.0061 -0.0703
 7670TIP3    H144425   4.336   5.460  11.375  2.0795  1.3303  0.4429
 7670TIP3    H244426   4.413   5.385  11.268  1.3355  0.5180  0.4700
 7671TIP3   OH244427   1.220   5.608   0.900  0.5150 -0.2643 -0.0258
 7671TIP3    H144428   1.262   5.532   0.861  0.9707 -0.5464  0.9754
 7671TIP3    H244429   1.224   5.676   0.832  0.2898 -1.0630 -0.8479
 7672TIP3   OH244430   4.273   3.316   4.540 -0.0006 -0.1762  0.0513
 7672TIP3    H144431   4.288   3.409   4.559  1.6334 -0.4866  0.4342
 7672TIP3    H244432   4.196   3.293   4.592 -0.0818  0.8219  0.4017
 7673TIP3   OH244433   1.670   6.091  13.396  0.9502  0.3350 -0.9495
 7673TIP3    H144434   1.645   6.158  13.459  0.6451 -0.1373 -0.5605
 7673TIP3    H244435   1.743   6.045  13.438  0.7373  0.0115 -0.9249
 7674TIP3   OH244436   2.309   6.272   3.699 -0.1619 -0.1447 -0.3453
 7674TIP3    H144437   2.396   6.232   3.705 -0.5954 -1.2305 -0.9549
 7674TIP3    H244438   2.323   6.364   3.723  1.8499  0.6657 -3.9533
 7675TIP3   OH244439   2.198   2.249  11.298  0.3464 -0.5518 -0.1525
 7675TIP3    H144440   2.104   2.239  11.286  0.4060 -2.4076  0.6860
 7675TIP3    H244441   2.208   2.285  11.386  0.4398 -0.4232 -0.2129
 7676TIP3   OH244442   0.658   5.341   4.883  0.2983 -0.0168  0.4610
 7676TIP3    H144443   0.683   5.285   4.956  0.2700  0.9357  1.2187
 7676TIP3    H244444   0.631   5.423   4.924  0.3857  0.5707 -0.6264
 7677TIP3   OH244445   1.283   4.451   5.198  0.2102  0.3380 -0.5015
 7677TIP3    H144446   1.191   4.435   5.179  0.0879 -1.1440  1.1238
 7677TIP3    H244447   1.327   4.449   5.113 -0.9967 -0.7897 -1.1131
 7678TIP3   OH244448   4.221   4.494   3.232 -0.5099 -0.4588 -0.5438
 7678TIP3    H144449   4.194   4.463   3.318 -1.5632  0.3570 -0.5455
 7678TIP3    H244450   4.316   4.506   3.238 -0.6524  0.1896  0.7158
 7679TIP3   OH244451   0.115   6.798  14.826  0.4447  0.0939 -0.4119
 7679TIP3    H144452   0.097   6.711  14.790  0.7618 -0.2844  0.3370
 7679TIP3    H244453   0.208   6.797  14.849  0.7553  1.0590 -1.5441
 7680TIP3   OH244454   5.253   0.741   5.446  0.1409 -0.4759 -0.0750
 7680TIP3    H144455   5.265   0.664   5.391  3.1989 -0.7730  0.8090
 7680TIP3    H244456   5.323   0.801   5.419 -0.2034  0.6571  1.3906
 7681TIP3   OH244457   3.982   5.592  17.023  0.7668  0.0228 -0.1505
 7681TIP3    H144458   3.947   5.524  16.965 -1.0382  1.0269 -0.2961
 7681TIP3    H244459   3.938   5.672  16.995 -0.9951  0.4085  3.2266
 7682TIP3   OH244460   0.106   4.810  14.490 -0.0747 -0.2983  0.6165
 7682TIP3    H144461   0.114   4.729  14.439  0.6290 -0.5750  1.1461
 7682TIP3    H244462   0.029   4.854  14.453 -0.7675 -1.4346  0.6290
 7683TIP3   OH244463   2.384   0.575   1.269 -0.0984 -0.2875  0.2373
 7683TIP3    H144464   2.321   0.523   1.220  0.5421 -1.7983  0.9608
 7683TIP3    H244465   2.440   0.511   1.312  1.1980  1.0155  0.5636
 7684TIP3   OH244466   5.867   2.416  15.355  0.0041 -0.2941  0.0056
 7684TIP3    H144467   5.830   2.424  15.443 -0.5605  0.4069 -0.2833
 7684TIP3    H244468   5.951   2.462  15.362 -0.1922  0.0624  0.0992
 7685TIP3   OH244469   1.070   2.834  12.666 -0.5653  0.2553 -0.1056
 7685TIP3    H144470   1.145   2.893  12.678  0.6903 -1.3564  0.4670
 7685TIP3    H244471   1.061   2.790  12.751 -1.3944 -0.4230 -0.5289
 7686TIP3   OH244472   3.227   0.708   1.645  0.0894  0.3611  0.5976
 7686TIP3    H144473   3.149   0.758   1.619 -0.3152  0.3652  1.7567
 7686TIP3    H244474   3.295   0.774   1.656 -0.2239  0.5756  1.3118
 7687TIP3   OH244475   1.093   4.618   4.907 -0.2161  0.3571 -0.8227
 7687TIP3    H144476   1.092   4.624   4.811 -2.0724 -0.6590 -0.9233
 7687TIP3    H244477   1.008   4.580   4.929  0.9105 -1.2150  1.1122
 7688TIP3   OH244478   1.630   1.585  16.234 -0.0516  0.2786  0.0421
 7688TIP3    H144479   1.641   1.645  16.160 -1.0338  0.5138  0.0766
 7688TIP3    H244480   1.709   1.597  16.287  1.3234 -0.8599 -1.6328
 7689TIP3   OH244481   0.418   4.451   4.174 -0.3592  0.0785  0.1038
 7689TIP3    H144482   0.433   4.432   4.081  0.2307  1.5955 -0.1394
 7689TIP3    H244483   0.496   4.500   4.201 -0.2376 -0.8702  1.5829
 7690TIP3   OH244484   6.653   6.279   0.235 -0.1661  0.2540  0.1177
 7690TIP3    H144485   6.732   6.241   0.197 -0.3607 -0.4234  0.3736
 7690TIP3    H244486   6.596   6.296   0.160 -0.3105 -0.5215  0.0457
 7691TIP3   OH244487   3.334   3.871  10.908  0.0712 -0.2691 -0.2873
 7691TIP3    H144488   3.243   3.901  10.900  0.2250  0.0674 -0.7889
 7691TIP3    H244489   3.370   3.881  10.820  0.2540 -1.5074 -0.3669
 7692TIP3   OH244490   4.823   5.382  13.836  0.1722  0.2026  0.0411
 7692TIP3    H144491   4.811   5.435  13.914  0.4754  1.0655 -0.4897
 7692TIP3    H244492   4.908   5.339  13.848  0.3808  0.6092  0.0289
 7693TIP3   OH244493   2.348   1.290  12.152 -0.4604  0.0558  0.2430
 7693TIP3    H144494   2.320   1.198  12.153  0.0615 -0.1240 -0.6256
 7693TIP3    H244495   2.271   1.338  12.122 -0.6130 -0.1357  0.3230
 7694TIP3   OH244496   3.672   3.826  15.127 -0.6306 -0.0433 -0.4959
 7694TIP3    H144497   3.635   3.850  15.042  0.2223  0.6208 -0.7000
 7694TIP3    H244498   3.748   3.883  15.136 -0.3810 -0.5127  0.4611
 7695TIP3   OH244499   0.338   3.296   3.147 -0.6499  0.2722  0.0936
 7695TIP3    H144500   0.412   3.352   3.169 -0.3622  0.0290 -0.2302
 7695TIP3    H244501   0.326   3.239   3.223  0.5449 -0.7882 -0.4696
 7696TIP3   OH244502   3.793   5.708   1.031 -0.1211  0.1416 -0.0776
 7696TIP3    H144503   3.872   5.761   1.045 -1.8384  2.6733  0.8622
 7696TIP3    H244504   3.779   5.664   1.115  1.3112 -1.9710 -0.8616
 7697TIP3   OH244505   3.351   5.784   2.966 -0.0381 -0.1457  0.3623
 7697TIP3    H144506   3.271   5.781   2.913 -0.6571 -1.4341  1.2889
 7697TIP3    H244507   3.421   5.762   2.905 -0.7022 -1.2940 -0.0327
 7698TIP3   OH244508   5.113   5.850   3.966  0.0301 -0.0309 -0.4699
 7698TIP3    H144509   5.056   5.820   3.895 -0.9191  0.2282  0.1681
 7698TIP3    H244510   5.119   5.945   3.952 -0.2484  0.0343 -0.1344
 7699TIP3   OH244511   0.246   0.779  15.468 -0.4157  0.4432  0.5604
 7699TIP3    H144512   0.339   0.796  15.456 -0.6297  1.9724  0.8371
 7699TIP3    H244513   0.215   0.754  15.381 -0.2682  2.7811 -0.2393
 7700TIP3   OH244514   0.906   2.043  12.258 -0.3365  0.2116 -0.0644
 7700TIP3    H144515   0.832   2.055  12.199  0.6140  0.8253 -1.1838
 7700TIP3    H244516   0.912   2.126  12.306 -0.5647  0.0508  0.2371
 7701TIP3   OH244517   5.553   0.891  13.675 -0.2734 -0.1113 -0.7324
 7701TIP3    H144518   5.499   0.893  13.754 -1.9581 -0.8007 -1.8123
 7701TIP3    H244519   5.522   0.815  13.627  0.8471  0.1933 -1.9895
 7702TIP3   OH244520   3.962   0.992   5.216  0.1415 -0.4335 -0.0371
 7702TIP3    H144521   3.899   0.956   5.154 -2.3149  0.2732  1.8799
 7702TIP3    H244522   3.951   1.086   5.210  0.5956 -0.3238  0.7507
 7703TIP3   OH244523   4.697   6.594   1.747 -0.4520 -0.3782 -0.3806
 7703TIP3    H144524   4.729   6.506   1.766 -1.5324 -0.5506  0.7695
 7703TIP3    H244525   4.604   6.582   1.728 -1.2184  0.7544  2.2718
 7704TIP3   OH244526   2.299   0.508  11.179  0.1019  0.2312 -0.1320
 7704TIP3    H144527   2.271   0.430  11.131 -0.2851  1.1677 -1.4538
 7704TIP3    H244528   2.218   0.551  11.206  0.3052 -0.3225  1.5060
 7705TIP3   OH244529   4.048   1.221   1.406 -0.5010 -0.2765 -0.7538
 7705TIP3    H144530   3.979   1.268   1.360  0.1185  1.4596  0.0143
 7705TIP3    H244531   4.129   1.250   1.365 -0.0891 -0.5206 -0.1350
 7706TIP3   OH244532   6.775   1.001  11.724  0.1383  0.1919 -0.5553
 7706TIP3    H144533   6.787   1.095  11.714 -0.3938  0.4032  0.6281
 7706TIP3    H244534   6.804   0.982  11.813  1.3220 -0.9762 -1.1599
 7707TIP3   OH244535   3.130   2.024  13.600 -0.9798 -0.6177  0.0845
 7707TIP3    H144536   3.223   2.047  13.595 -0.6039 -2.0410  0.1306
 7707TIP3    H244537   3.119   1.955  13.534 -1.8356 -0.9811  0.5928
 7708TIP3   OH244538   3.587   6.798   3.310 -0.3152  0.2741 -0.2038
 7708TIP3    H144539   3.609   6.876   3.360  0.8161  1.0187 -1.7620
 7708TIP3    H244540   3.598   6.824   3.219  0.5507 -1.8235 -0.7766
 7709TIP3   OH244541   3.134   4.772   6.080  0.2545 -0.3630  0.4256
 7709TIP3    H144542   3.126   4.693   6.026 -1.9992  1.2068 -1.7748
 7709TIP3    H244543   3.222   4.804   6.062 -0.3525  0.0254 -2.3958
 7710TIP3   OH244544   3.944   5.082  14.447 -0.3338  0.0168  0.5339
 7710TIP3    H144545   4.015   5.122  14.498  0.1988 -0.0632 -0.1395
 7710TIP3    H244546   3.974   5.085  14.357 -0.4599 -1.5178  0.4093
 7711TIP3   OH244547   2.912   0.684  13.690  0.2012 -0.6061  0.1077
 7711TIP3    H144548   2.940   0.771  13.718  2.6942 -1.2443 -0.2206
 7711TIP3    H244549   2.834   0.666  13.743  0.0685  1.5120  0.7086
 7712TIP3   OH244550   1.444   5.183   1.099  0.3733  0.1456 -0.2182
 7712TIP3    H144551   1.402   5.154   1.180  1.6272  1.2308  0.8665
 7712TIP3    H244552   1.372   5.190   1.036 -1.0806  1.6735  1.4784
 7713TIP3   OH244553   1.662   4.769  14.900 -0.8816  0.6099 -0.3395
 7713TIP3    H144554   1.693   4.801  14.985 -0.6864  1.3548 -0.6887
 7713TIP3    H244555   1.647   4.675  14.914  0.3191  0.4810  0.1868
 7714TIP3   OH244556   5.868   0.269   3.695 -0.4118 -0.2134  0.1524
 7714TIP3    H144557   5.799   0.219   3.739  0.8200 -0.3259  2.0531
 7714TIP3    H244558   5.822   0.345   3.659 -2.2483 -2.3509 -2.3901
 7715TIP3   OH244559   3.850   5.407   3.924  0.2633  0.4707  0.4286
 7715TIP3    H144560   3.829   5.414   3.830  1.4418 -0.0249  0.1134
 7715TIP3    H244561   3.841   5.496   3.957 -0.0516  0.6714 -0.1822
 7716TIP3   OH244562   6.630   1.558  11.291 -1.0083 -0.1008  0.8208
 7716TIP3    H144563   6.718   1.585  11.269 -0.9291 -1.1274 -0.2356
 7716TIP3    H244564   6.579   1.639  11.295 -0.3935  0.3491 -0.3163
 7717TIP3   OH244565   5.391   3.808  13.990  0.0208 -0.3623 -0.0242
 7717TIP3    H144566   5.427   3.720  13.998  1.8296  0.4659  2.3234
 7717TIP3    H244567   5.334   3.817  14.066 -0.8073  0.2489 -0.6996
 7718TIP3   OH244568   3.638   5.822  15.189  0.8280 -0.3039  0.3724
 7718TIP3    H144569   3.624   5.749  15.129  0.6124  0.0878 -0.0576
 7718TIP3    H244570   3.580   5.891  15.157  1.4671  0.2636  0.4173
 7719TIP3   OH244571   1.454   5.526   2.680 -0.3913  0.7434 -0.3922
 7719TIP3    H144572   1.453   5.490   2.592  1.4848 -2.2811  0.6782
 7719TIP3    H244573   1.372   5.497   2.719 -0.2605  0.2263 -0.4970
 7720TIP3   OH244574   6.148   0.247   2.465  0.1628  0.0776  0.6704
 7720TIP3    H144575   6.147   0.161   2.507  1.6357  0.1088  0.8334
 7720TIP3    H244576   6.182   0.306   2.533  0.7317  0.4760  0.0476
 7721TIP3   OH244577   4.874   1.046   2.710 -0.2731 -0.2689 -0.5748
 7721TIP3    H144578   4.863   0.952   2.728  1.9100 -0.7783 -1.5571
 7721TIP3    H244579   4.968   1.059   2.710 -0.5342  2.3444  1.3140
 7722TIP3   OH244580   5.958   6.410   0.522 -0.0030  0.0428  0.2974
 7722TIP3    H144581   5.866   6.392   0.502  0.5224 -2.5163 -0.2302
 7722TIP3    H244582   5.970   6.376   0.611  0.2702  1.1298  0.6897
 7723TIP3   OH244583   6.769   4.969   6.293 -0.1597  0.4287 -0.4092
 7723TIP3    H144584   6.788   4.911   6.367 -1.4068  1.0516  0.4419
 7723TIP3    H244585   6.702   4.924   6.243 -0.6047  0.7959 -0.1514
 7724TIP3   OH244586   4.327   1.724  11.595 -0.4132  0.4499 -0.2222
 7724TIP3    H144587   4.257   1.660  11.602 -0.5963  0.6881  0.1969
 7724TIP3    H244588   4.359   1.715  11.506 -0.6858  0.0351 -0.2808
 7725TIP3   OH244589   5.324   4.661   3.057  0.0373  0.4345  0.1079
 7725TIP3    H144590   5.230   4.673   3.040  0.1003 -0.0659 -0.6341
 7725TIP3    H244591   5.361   4.638   2.972  0.9405  1.2170  0.2731
 7726TIP3   OH244592   0.720   0.199  14.651 -0.1434  0.1410  0.3507
 7726TIP3    H144593   0.681   0.287  14.648 -0.4314 -0.0010 -2.3415
 7726TIP3    H244594   0.778   0.196  14.575 -1.0380 -2.3882 -0.3187
 7727TIP3   OH244595   1.143   2.246  15.249 -0.4534  0.1354  0.0513
 7727TIP3    H144596   1.150   2.196  15.168 -3.3151  0.8830 -0.7747
 7727TIP3    H244597   1.142   2.337  15.221  0.7640  0.5216  1.1775
 7728TIP3   OH244598   3.869   3.561  11.692  0.5285  0.0097 -0.9145
 7728TIP3    H144599   3.834   3.536  11.777  1.5572  1.5310  0.0177
 7728TIP3    H244600   3.851   3.655  11.685  0.9533  0.0243 -2.1235
 7729TIP3   OH244601   2.541   1.492   4.607  0.1619 -0.6900  0.4875
 7729TIP3    H144602   2.488   1.421   4.643 -0.2637 -1.1911 -1.0639
 7729TIP3    H244603   2.500   1.512   4.523  2.4580 -1.1194 -0.8025
 7730TIP3   OH244604   1.906   6.781   4.000  0.5423  0.3267 -0.6156
 7730TIP3    H144605   1.834   6.786   3.937 -0.8833 -0.1714  0.9036
 7730TIP3    H244606   1.985   6.771   3.946 -0.5194  0.8149 -2.3210
 7731TIP3   OH244607   3.788   5.575  11.247 -0.1954  0.0883 -0.0640
 7731TIP3    H144608   3.723   5.520  11.203 -0.2178  0.0849 -0.0260
 7731TIP3    H244609   3.872   5.547  11.209 -0.4178  1.8485 -2.0027
 7732TIP3   OH244610   1.160   5.015  13.823 -0.4162 -0.0259 -0.1417
 7732TIP3    H144611   1.068   5.017  13.797 -0.4196  1.9572 -0.1783
 7732TIP3    H244612   1.208   5.046  13.746 -0.1365  2.6776  0.9859
 7733TIP3   OH244613   1.650   6.020  13.998  0.4762  1.0078 -0.2772
 7733TIP3    H144614   1.697   6.103  13.988 -0.4789  1.4985 -0.8318
 7733TIP3    H244615   1.661   5.977  13.913 -1.5562  1.9367 -1.0692
 7734TIP3   OH244616   4.872   0.575  14.643 -0.1597 -0.0098  0.5479
 7734TIP3    H144617   4.780   0.589  14.664 -0.0173  0.2696  0.9882
 7734TIP3    H244618   4.882   0.610  14.554 -0.3285  0.5747  0.7548
 7735TIP3   OH244619   3.172   3.108   3.373  0.0538  0.1438  0.0004
 7735TIP3    H144620   3.166   3.093   3.279 -1.1299 -0.8137  0.2085
 7735TIP3    H244621   3.213   3.195   3.381  0.3066  0.1666 -1.3790
 7736TIP3   OH244622   0.893   6.598   5.677 -0.1706  0.4083  0.0319
 7736TIP3    H144623   0.871   6.550   5.597  0.3144 -0.8924  0.6491
 7736TIP3    H244624   0.864   6.688   5.660  0.3918  0.2833 -1.8059
 7737TIP3   OH244625   6.522   1.823  11.329 -0.3774 -0.0227 -0.0393
 7737TIP3    H144626   6.502   1.840  11.421 -2.0734 -2.3075  0.1105
 7737TIP3    H244627   6.530   1.910  11.290 -2.3079  1.0741  1.7521
 7738TIP3   OH244628   1.605   0.833   5.011  0.7960 -0.1902 -0.7030
 7738TIP3    H144629   1.510   0.842   5.003  0.8365  0.0497 -0.9950
 7738TIP3    H244630   1.619   0.778   5.087  0.3837 -1.3676 -1.4526
 7739TIP3   OH244631   6.223   2.520   3.806 -0.3272 -0.0727 -0.5335
 7739TIP3    H144632   6.195   2.575   3.880  0.1842  0.2955 -0.6077
 7739TIP3    H244633   6.206   2.430   3.835 -1.2945  0.1250 -0.4623
 7740TIP3   OH244634   2.884   3.156   2.362 -0.3184  0.5039  0.1835
 7740TIP3    H144635   2.802   3.203   2.374 -1.2435 -1.0351  0.0207
 7740TIP3    H244636   2.880   3.084   2.424  0.7250  0.1456 -0.1406
 7741TIP3   OH244637   0.369   0.568   1.802  0.0677  0.3588  0.0423
 7741TIP3    H144638   0.282   0.558   1.842  0.0344 -1.2318 -0.3809
 7741TIP3    H244639   0.430   0.541   1.871  0.1822  0.5412  0.0134
 7742TIP3   OH244640   0.057   2.075   3.662 -0.5515 -0.3402 -0.8679
 7742TIP3    H144641   0.085   2.044   3.575  0.6937  2.1323 -1.4228
 7742TIP3    H244642   0.016   2.159   3.645 -1.2221 -0.2887  0.8693
 7743TIP3   OH244643   2.334   4.683  14.822  0.6758 -0.6342 -0.7290
 7743TIP3    H144644   2.350   4.727  14.739  0.1224 -1.9850 -1.5844
 7743TIP3    H244645   2.240   4.665  14.822  0.1882  1.3806  1.2668
 7744TIP3   OH244646   0.424   1.238  11.681 -0.0526  0.0699 -0.3677
 7744TIP3    H144647   0.387   1.154  11.654 -0.0255  0.1458 -0.6487
 7744TIP3    H244648   0.437   1.230  11.775 -1.5096  0.3234 -0.1224
 7745TIP3   OH244649   1.441   1.061  16.979 -0.1276 -0.4692 -0.2229
 7745TIP3    H144650   1.484   1.085  16.897 -0.5680 -2.6219 -1.1713
 7745TIP3    H244651   1.363   1.013  16.951 -0.8066 -0.3971  1.4688
 7746TIP3   OH244652   0.556   3.381   0.131  0.3536 -0.2911  0.0603
 7746TIP3    H144653   0.546   3.453   0.193  1.3958  0.2467 -0.3670
 7746TIP3    H244654   0.492   3.400   0.062  0.3818  0.0417  0.1253
 7747TIP3   OH244655   6.344   2.959  14.418 -0.0010 -0.1875 -0.0822
 7747TIP3    H144656   6.279   2.904  14.461  1.6377 -0.6638  2.0023
 7747TIP3    H244657   6.404   2.985  14.489  0.8288  2.0557 -1.4753
 7748TIP3   OH244658   4.330   4.574   5.510  0.0946  0.1942 -0.3705
 7748TIP3    H144659   4.421   4.557   5.535  0.0888 -0.4391 -0.7530
 7748TIP3    H244660   4.284   4.584   5.593  0.9599  3.1534 -0.1342
 7749TIP3   OH244661   0.392   1.304  14.707  0.1204  0.4893  0.0964
 7749TIP3    H144662   0.472   1.289  14.656 -1.1350  0.6292 -2.0081
 7749TIP3    H244663   0.407   1.387  14.751  0.4311  1.5083 -1.8183
 7750TIP3   OH244664   2.815   1.954  13.793 -0.4052 -0.6902 -0.3775
 7750TIP3    H144665   2.832   2.035  13.746  0.3363  0.0524  1.0815
 7750TIP3    H244666   2.901   1.910  13.798 -0.1069  0.0018  1.5449
 7751TIP3   OH244667   4.324   0.686  12.752  0.5425 -0.3461  0.2494
 7751TIP3    H144668   4.316   0.781  12.758 -0.6320 -0.3856 -0.4760
 7751TIP3    H244669   4.234   0.654  12.759  0.5942 -1.2243 -2.3034
 7752TIP3   OH244670   1.887   2.799  15.704 -0.0863  0.1114 -0.9224
 7752TIP3    H144671   1.946   2.874  15.711 -0.0465 -0.0079  0.3431
 7752TIP3    H244672   1.892   2.757  15.790 -2.2639  0.2937 -0.6424
 7753TIP3   OH244673   6.191   2.609  10.998 -0.1989 -0.6927 -0.2283
 7753TIP3    H144674   6.286   2.603  10.996 -0.0818 -0.9697  2.3019
 7753TIP3    H244675   6.171   2.702  10.990  0.3730 -0.5219  0.2777
 7754TIP3   OH244676   6.487   3.968  12.587 -0.5736  0.0881 -0.0340
 7754TIP3    H144677   6.491   3.986  12.681 -2.6532  1.8672 -0.1902
 7754TIP3    H244678   6.443   3.883  12.580 -1.3086  0.4004  0.6295
 7755TIP3   OH244679   2.161   4.565  10.869  0.1690 -0.1550  0.0254
 7755TIP3    H144680   2.195   4.625  10.802 -0.8212 -1.1523 -1.4323
 7755TIP3    H244681   2.120   4.494  10.820  0.5528 -1.6223  1.7077
 7756TIP3   OH244682   2.833   2.661   4.980 -0.2259 -0.1353 -0.0355
 7756TIP3    H144683   2.847   2.569   4.958 -0.5819  0.0707 -1.2160
 7756TIP3    H244684   2.877   2.709   4.910 -0.3575  0.5817  0.3688
 7757TIP3   OH244685   4.735   2.373   1.493 -0.3512  0.0100  0.2883
 7757TIP3    H144686   4.818   2.339   1.524 -1.1983 -2.3868  0.1666
 7757TIP3    H244687   4.755   2.460   1.459  1.9677 -0.2864  0.7741
 7758TIP3   OH244688   5.655   1.549   4.067  0.0322 -0.3383  0.1838
 7758TIP3    H144689   5.663   1.644   4.071  1.1241 -0.4375  0.5133
 7758TIP3    H244690   5.561   1.533   4.082 -0.0983  0.6601  0.5231
 7759TIP3   OH244691   4.030   4.799  16.780 -0.5587  0.2905 -0.2139
 7759TIP3    H144692   4.094   4.745  16.734 -1.9515 -2.0444  0.4592
 7759TIP3    H244693   4.078   4.836  16.853  0.8025  1.2582 -1.5401
 7760TIP3   OH244694   6.777   5.127   4.109 -0.0095 -0.0943  0.2585
 7760TIP3    H144695   6.836   5.154   4.179  0.4482 -0.5686  0.0601
 7760TIP3    H244696   6.701   5.185   4.119  1.0769  1.5187 -0.3790
 7761TIP3   OH244697   3.515   5.007  10.559 -0.4249 -0.8087 -0.2626
 7761TIP3    H144698   3.471   5.004  10.644 -1.2680  1.7568 -0.5112
 7761TIP3    H244699   3.586   4.944  10.566 -1.2241 -1.5663  1.8871
 7762TIP3   OH244700   2.378   0.684  12.161  0.2601  0.2866 -0.3021
 7762TIP3    H144701   2.289   0.654  12.143 -0.6038  1.8661  1.0759
 7762TIP3    H244702   2.376   0.713  12.253  2.2137  0.3217 -0.2207
 7763TIP3   OH244703   5.836   4.834   4.339  0.2729  0.3935 -0.0157
 7763TIP3    H144704   5.912   4.801   4.385 -0.1960 -1.2804 -0.3705
 7763TIP3    H244705   5.859   4.827   4.246 -0.2108  0.1017 -0.1183
 7764TIP3   OH244706   1.141   0.621  11.494  0.0673 -0.4522  0.0296
 7764TIP3    H144707   1.192   0.553  11.537 -0.0038 -0.2192  0.4867
 7764TIP3    H244708   1.052   0.586  11.490  0.4225 -1.2899 -1.6732
 7765TIP3   OH244709   0.468   0.089   6.271  0.1620 -0.3091 -0.2878
 7765TIP3    H144710   0.523   0.147   6.218 -0.0049 -0.0387 -0.1688
 7765TIP3    H244711   0.481   0.002   6.234 -0.2159 -0.0702 -0.9875
 7766TIP3   OH244712   5.966   0.573   3.735 -0.4515 -0.2781 -0.2074
 7766TIP3    H144713   5.990   0.655   3.691 -3.6476 -0.6496 -3.1419
 7766TIP3    H244714   5.879   0.553   3.700 -0.3889 -4.2549  1.4304
 7767TIP3   OH244715   2.053   6.725  14.029  0.0907  0.1532 -0.1695
 7767TIP3    H144716   2.048   6.759  13.940 -0.5689 -2.5264 -1.2571
 7767TIP3    H244717   2.003   6.787  14.081 -0.9709  0.9022 -1.9871
 7768TIP3   OH244718   2.718   1.663  14.696 -0.3071 -0.1952 -0.4672
 7768TIP3    H144719   2.725   1.570  14.721 -0.4636  0.0643  0.5861
 7768TIP3    H244720   2.694   1.661  14.603  1.1373 -1.1967 -0.8479
 7769TIP3   OH244721   0.038   4.482  11.835 -0.4662  0.1612  0.0409
 7769TIP3    H144722   0.050   4.401  11.785  0.3540  0.6841 -0.6544
 7769TIP3    H244723  -0.050   4.511  11.812 -0.5909 -0.2961 -0.0747
 7770TIP3   OH244724   1.489   6.298   1.927  0.8185 -1.0438  0.1872
 7770TIP3    H144725   1.484   6.305   2.022 -1.5668 -0.3230  0.0570
 7770TIP3    H244726   1.567   6.244   1.911  2.3363  0.3341  2.4430
 7771TIP3   OH244727   6.293   6.247   3.339  0.1155  0.7573  0.4045
 7771TIP3    H144728   6.238   6.190   3.285 -1.4295  0.8184  1.8201
 7771TIP3    H244729   6.265   6.336   3.316  3.1689  1.1725 -2.4959
 7772TIP3   OH244730   5.944   1.123   4.683 -0.1451  0.0027  0.4999
 7772TIP3    H144731   6.029   1.167   4.680 -2.0591  4.1036 -0.5271
 7772TIP3    H244732   5.897   1.165   4.755 -2.2697  0.0121 -0.7832
 7773TIP3   OH244733   5.175   5.412  13.029  0.4273 -0.4934  0.2270
 7773TIP3    H144734   5.093   5.452  13.057 -0.0766 -1.0259 -0.4715
 7773TIP3    H244735   5.149   5.342  12.970  1.4404  0.6374 -1.6477
 7774TIP3   OH244736   1.865   0.583   4.627  0.2525 -0.1047  1.2748
 7774TIP3    H144737   1.931   0.615   4.566  1.7248 -0.6287  2.5315
 7774TIP3    H244738   1.912   0.522   4.684 -1.1153  0.1537  2.7587
 7775TIP3   OH244739   0.886   1.049   4.857 -0.4152  0.1810  0.2153
 7775TIP3    H144740   0.843   1.060   4.772  0.6356  3.1484 -0.0529
 7775TIP3    H244741   0.933   0.966   4.849 -1.7312 -0.4775 -1.4251
 7776TIP3   OH244742   3.568   1.025  13.666  0.1159  0.0672  0.6486
 7776TIP3    H144743   3.511   1.028  13.742 -0.3031  1.6251  0.3077
 7776TIP3    H244744   3.509   1.008  13.592  0.2087  0.8118  0.4014
 7777TIP3   OH244745   1.505   5.813  15.271 -0.1980 -0.2184 -0.4883
 7777TIP3    H144746   1.549   5.741  15.314  1.3379  1.1274  0.3015
 7777TIP3    H244747   1.460   5.859  15.342 -0.3468  0.1671 -0.8270
 7778TIP3   OH244748   0.174   5.589   4.373 -0.1838  0.0052  0.2579
 7778TIP3    H144749   0.134   5.647   4.307 -0.0744  1.7421  1.6334
 7778TIP3    H244750   0.175   5.503   4.332 -0.8599  0.8653 -1.6901
 7779TIP3   OH244751   3.021   4.518  16.454 -0.2067  0.1641 -0.1734
 7779TIP3    H144752   3.067   4.590  16.412 -1.1853  1.1633  0.4044
 7779TIP3    H244753   3.069   4.502  16.535  0.3830 -0.2747 -0.6007
 7780TIP3   OH244754   3.140   5.146  14.971 -0.2633 -0.3992  0.1801
 7780TIP3    H144755   3.170   5.056  14.963 -1.1845 -0.7977  0.9777
 7780TIP3    H244756   3.154   5.168  15.063 -0.0908  0.2544  0.0016
 7781TIP3   OH244757   4.501   3.071   3.068  0.6057  0.3049 -0.0028
 7781TIP3    H144758   4.492   3.083   3.163  2.7060  0.4434  0.2306
 7781TIP3    H244759   4.423   3.112   3.031  0.7636  2.1610  1.5633
 7782TIP3   OH244760   3.305   4.535   5.110 -0.3958  0.2060 -0.4898
 7782TIP3    H144761   3.293   4.584   5.029 -0.1153 -1.7838 -1.8321
 7782TIP3    H244762   3.398   4.511   5.110 -0.4908 -0.1866  0.1803
 7783TIP3   OH244763   5.543   3.272  15.715  0.5812  0.2102 -0.3404
 7783TIP3    H144764   5.524   3.191  15.668  1.0703 -0.8388  1.1774
 7783TIP3    H244765   5.633   3.293  15.691  0.1114  0.9323 -1.5661
 7784TIP3   OH244766   3.066   0.168  15.837  0.1144  0.0360  0.3539
 7784TIP3    H144767   3.160   0.180  15.826 -0.0224  0.6089 -0.2704
 7784TIP3    H244768   3.037   0.246  15.885 -0.2178  0.4317 -0.4803
 7785TIP3   OH244769   0.690   2.599  14.259 -0.0436 -0.4823 -1.0136
 7785TIP3    H144770   0.642   2.629  14.336  1.3695  2.3447 -1.0892
 7785TIP3    H244771   0.624   2.557  14.204 -1.2533 -1.7883  1.2798
 7786TIP3   OH244772   5.574   6.666  12.335  0.0558  0.3100 -0.6791
 7786TIP3    H144773   5.654   6.697  12.292 -0.1087  0.3051 -0.9892
 7786TIP3    H244774   5.591   6.678  12.428  1.0172 -1.0769 -0.6398
 7787TIP3   OH244775   2.174   1.421  15.035 -0.3050 -0.5525 -0.4901
 7787TIP3    H144776   2.082   1.398  15.024 -0.5817 -0.3545  1.1260
 7787TIP3    H244777   2.174   1.486  15.105  0.9561  0.4089 -1.3523
 7788TIP3   OH244778   0.088   0.222  15.325  0.1546 -0.0086  0.2882
 7788TIP3    H144779   0.161   0.282  15.339 -1.4397  2.1138  0.0884
 7788TIP3    H244780   0.103   0.151  15.386  2.2376  0.4790  0.4207
 7789TIP3   OH244781   2.636   1.892   3.851 -0.2769  0.3611  0.2951
 7789TIP3    H144782   2.666   1.971   3.897  0.4710  1.5605 -2.0694
 7789TIP3    H244783   2.716   1.846   3.826 -0.6203  0.0627 -0.2959
 7790TIP3   OH244784   6.603   5.887  12.477 -0.3254 -0.4257 -0.4588
 7790TIP3    H144785   6.679   5.945  12.481 -1.9732  1.9386 -1.1546
 7790TIP3    H244786   6.622   5.828  12.405  0.0590  1.4457 -1.9826
 7791TIP3   OH244787   1.414   1.925   2.335  0.1855 -0.4991  0.4167
 7791TIP3    H144788   1.402   1.888   2.247  1.6760  2.1370 -1.0136
 7791TIP3    H244789   1.481   1.869   2.375  0.5846 -0.8577 -0.7059
 7792TIP3   OH244790   3.874   3.294   5.750  0.0574 -0.5666  0.1188
 7792TIP3    H144791   3.851   3.387   5.741 -0.0829 -0.8050 -2.8838
 7792TIP3    H244792   3.943   3.294   5.817 -1.7604  1.3037  2.1789
 7793TIP3   OH244793   5.404   3.781  14.930  0.3764  0.0449 -0.2893
 7793TIP3    H144794   5.400   3.699  14.881  1.4280 -0.1513 -0.0837
 7793TIP3    H244795   5.317   3.792  14.968 -0.2847 -0.0877 -1.7211
 7794TIP3   OH244796   4.727   4.794  12.726 -0.0561 -0.0135  0.2891
 7794TIP3    H144797   4.671   4.871  12.722 -2.0161 -1.4056 -1.4055
 7794TIP3    H244798   4.689   4.741  12.797  0.3634 -0.0675  0.4742
 7795TIP3   OH244799   1.177   1.817   2.133  0.3354  0.0604  0.1351
 7795TIP3    H144800   1.143   1.728   2.146 -3.9693  1.7980  3.0022
 7795TIP3    H244801   1.128   1.850   2.058  0.1356  0.7417  0.5602
 7796TIP3   OH244802   2.637   5.165   5.238  0.1820 -0.0387  0.0870
 7796TIP3    H144803   2.680   5.243   5.273 -0.5733  0.0309  0.8684
 7796TIP3    H244804   2.592   5.126   5.312  0.2763 -1.0460 -0.3690
 7797TIP3   OH244805   6.309   2.986   4.287 -0.4794 -0.2238  0.6123
 7797TIP3    H144806   6.332   2.982   4.195  0.7471 -4.4088  0.8678
 7797TIP3    H244807   6.379   3.038   4.327  0.3575 -0.4117 -0.5446
 7798TIP3   OH244808   1.845   4.283  14.980  0.0595  0.3680  0.8045
 7798TIP3    H144809   1.784   4.217  14.946 -0.0250  1.0527 -0.4270
 7798TIP3    H244810   1.896   4.236  15.046 -0.0189 -0.9287 -0.0222
 7799TIP3   OH244811   0.779   4.901   4.686  0.0489  0.2869  0.0998
 7799TIP3    H144812   0.832   4.950   4.749 -0.2832  0.3530  0.3369
 7799TIP3    H244813   0.714   4.965   4.655  0.7999  0.5294 -1.0433
 7800TIP3   OH244814   4.726   0.165   0.838  0.4276  0.2384 -0.5462
 7800TIP3    H144815   4.678   0.205   0.765  0.0241 -0.6707 -0.7930
 7800TIP3    H244816   4.672   0.090   0.864  0.5332  0.5835  0.7378
 7801TIP3   OH244817   3.883   1.374  13.665 -0.3211 -0.0959 -0.0077
 7801TIP3    H144818   3.841   1.395  13.581  0.4628 -0.9121 -0.6288
 7801TIP3    H244819   3.948   1.443  13.677 -0.0637 -0.2680 -0.3599
 7802TIP3   OH244820   2.227   2.482   1.908 -0.3553  0.6122  0.2756
 7802TIP3    H144821   2.312   2.455   1.874 -1.0633 -0.2868 -0.8515
 7802TIP3    H244822   2.189   2.402   1.944 -0.0951  1.3254  2.2346
 7803TIP3   OH244823   1.104   4.055   0.094 -0.2362 -0.2251  0.0567
 7803TIP3    H144824   1.125   4.117   0.163 -0.3522  1.0801 -1.0336
 7803TIP3    H244825   1.045   4.102   0.036  0.0211 -1.2057 -1.0531
 7804TIP3   OH244826   6.371   6.033  13.475 -0.6217 -0.3660  0.1822
 7804TIP3    H144827   6.465   6.035  13.457 -0.2375  1.3550  2.0847
 7804TIP3    H244828   6.344   6.125  13.473 -2.2644 -0.8222 -0.2038
 7805TIP3   OH244829   5.411   3.567  13.714 -0.2026  0.7464 -0.4926
 7805TIP3    H144830   5.325   3.609  13.705 -0.3415  0.1336 -2.3740
 7805TIP3    H244831   5.447   3.604  13.795 -1.2390  2.7984 -0.9086
 7806TIP3   OH244832   5.224   2.393   3.718 -0.0630 -0.2919  0.3695
 7806TIP3    H144833   5.178   2.410   3.635  0.5064  0.3843  0.1942
 7806TIP3    H244834   5.252   2.479   3.748 -1.1081 -0.4078  1.7745
 7807TIP3   OH244835   6.216   2.277   3.580 -0.4391 -0.6371 -0.3724
 7807TIP3    H144836   6.294   2.281   3.635 -0.8722 -0.0711  0.2160
 7807TIP3    H244837   6.215   2.360   3.533  0.6708 -1.6579 -2.3054
 7808TIP3   OH244838   6.680   2.613   3.646 -0.2103 -0.2758 -0.3877
 7808TIP3    H144839   6.652   2.587   3.734  2.3566 -1.2704  0.2284
 7808TIP3    H244840   6.664   2.707   3.642 -3.0027 -0.6271  0.0165
 7809TIP3   OH244841   1.972   1.166  13.136 -0.1096  0.7746  0.5312
 7809TIP3    H144842   1.992   1.073  13.148 -1.2684  0.2983 -0.9706
 7809TIP3    H244843   1.983   1.181  13.042 -0.4077  2.0353  0.6848
 7810TIP3   OH244844   2.857   2.371   4.948  0.3137 -0.0316  0.2143
 7810TIP3    H144845   2.866   2.317   4.869 -0.4647 -0.3909  0.3623
 7810TIP3    H244846   2.877   2.312   5.020 -1.4167 -0.3988  0.4386
 7811TIP3   OH244847   5.987   3.477  12.428 -0.4365  0.1764 -0.2095
 7811TIP3    H144848   6.083   3.474  12.436 -0.5114 -3.1241  0.6944
 7811TIP3    H244849   5.963   3.561  12.468  2.0827  1.5110 -1.2524
 7812TIP3   OH244850   5.267   6.240  14.533 -0.3854 -0.1177 -0.0934
 7812TIP3    H144851   5.295   6.151  14.513  0.3875  0.5449 -2.2883
 7812TIP3    H244852   5.171   6.238  14.522 -0.2354 -0.3945 -1.5900
 7813TIP3   OH244853   5.613   1.806  17.118  0.1725  0.1502 -0.5153
 7813TIP3    H144854   5.669   1.732  17.137  1.3393  0.5058 -2.2788
 7813TIP3    H244855   5.655   1.881  17.161  0.1974  0.1622 -0.5609
 7814TIP3   OH244856   1.282   1.717   5.714  0.2991 -1.1508  0.0721
 7814TIP3    H144857   1.322   1.748   5.633 -1.3695  1.6268  0.1953
 7814TIP3    H244858   1.211   1.660   5.685  1.3110 -2.2720 -0.2838
 7815TIP3   OH244859   2.708   6.042   6.934 -0.0937 -0.9062  0.2256
 7815TIP3    H144860   2.733   6.004   6.850  1.9955 -1.7996  1.1744
 7815TIP3    H244861   2.632   5.990   6.963  0.0215 -1.4856 -0.4929
 7816TIP3   OH244862   1.464   3.052  16.594 -0.3760  0.5032  0.3127
 7816TIP3    H144863   1.535   3.092  16.645 -0.0711  1.4239 -0.7830
 7816TIP3    H244864   1.509   3.003  16.525 -0.7821  1.2558 -0.5068
 7817TIP3   OH244865   2.087   5.593   1.733  0.3560 -0.2177  0.0850
 7817TIP3    H144866   2.092   5.680   1.694 -0.2135  0.1833  0.8650
 7817TIP3    H244867   2.135   5.536   1.673  0.4563  0.5763 -0.5995
 7818TIP3   OH244868   2.159   0.366   4.083  0.0974 -0.0069 -0.1828
 7818TIP3    H144869   2.087   0.307   4.104 -0.3948 -0.2754 -2.3683
 7818TIP3    H244870   2.142   0.444   4.136 -2.4462  0.3769 -1.4122
 7819TIP3   OH244871   6.741   1.148  16.847 -0.6215  0.3410  0.5921
 7819TIP3    H144872   6.655   1.121  16.879 -0.9003 -0.1157 -0.5074
 7819TIP3    H244873   6.783   1.067  16.821  0.4291  0.4846  1.7368
 7820TIP3   OH244874   2.070   0.993   2.492 -0.3427  0.1392 -0.3053
 7820TIP3    H144875   2.126   0.943   2.432 -0.7933 -0.9967  0.1932
 7820TIP3    H244876   1.981   0.965   2.471 -0.7373  1.7382 -0.9102
 7821TIP3   OH244877   0.798   4.962   1.737  0.2281  0.3520  0.0187
 7821TIP3    H144878   0.746   4.927   1.810  0.6542  0.6229  0.4590
 7821TIP3    H244879   0.888   4.937   1.758  0.1561 -1.3192 -1.4271
 7822TIP3   OH244880   0.628   2.951  14.205 -0.1162 -0.4759  0.0991
 7822TIP3    H144881   0.585   2.986  14.127  0.2934 -1.0487 -0.3962
 7822TIP3    H244882   0.557   2.939  14.268 -1.0498 -3.1463 -1.3211
 7823TIP3   OH244883   6.383   0.088   5.316 -0.2605 -0.0752 -0.2709
 7823TIP3    H144884   6.470   0.123   5.299  0.1537  0.8895  3.0108
 7823TIP3    H244885   6.325   0.164   5.310 -0.8266 -0.6068 -1.8841
 7824TIP3   OH244886   3.085   2.122   5.730  0.4446  0.3714  0.3790
 7824TIP3    H144887   3.111   2.157   5.815 -0.7405  2.7771 -0.1618
 7824TIP3    H244888   3.018   2.183   5.698  0.9684 -0.3291 -2.3434
 7825TIP3   OH244889   1.985   0.243  13.039  0.0794 -0.0557  0.2788
 7825TIP3    H144890   1.919   0.294  12.992 -0.3363  0.4138  1.3308
 7825TIP3    H244891   2.050   0.220  12.973  0.3432  1.9533 -0.1964
 7826TIP3   OH244892   3.755   5.495   2.024 -0.3129  0.3802  0.1222
 7826TIP3    H144893   3.823   5.560   2.010 -0.7889  0.8412 -0.0829
 7826TIP3    H244894   3.673   5.544   2.015 -0.6763 -0.2680 -0.1572
 7827TIP3   OH244895   1.277   3.858   3.150 -0.2412 -0.1317 -0.2190
 7827TIP3    H144896   1.236   3.772   3.166 -0.7813  0.2260  0.3557
 7827TIP3    H244897   1.291   3.860   3.055 -0.7660 -0.6208 -0.3171
 7828TIP3   OH244898   1.186   6.766   4.495 -1.1599 -0.1419 -0.4381
 7828TIP3    H144899   1.163   6.758   4.588 -1.4840  0.5376 -0.4525
 7828TIP3    H244900   1.116   6.719   4.450 -0.1604 -1.8561 -0.2802
 7829TIP3   OH244901   2.098   4.522  13.115  0.0779  0.0456  0.1578
 7829TIP3    H144902   2.122   4.600  13.165  0.8011 -0.4774  0.6390
 7829TIP3    H244903   2.015   4.545  13.072  0.0093  0.8779  0.7319
 7830TIP3   OH244904   2.162   5.882  14.015 -0.1487  0.8351  0.1913
 7830TIP3    H144905   2.240   5.835  13.986  0.0313  1.6755 -0.7331
 7830TIP3    H244906   2.122   5.824  14.080 -0.3914 -0.9668 -1.4983
 7831TIP3   OH244907   3.532   5.527   4.160  0.4703  1.1611  0.1332
 7831TIP3    H144908   3.560   5.534   4.069  2.4143  0.0389  0.6010
 7831TIP3    H244909   3.613   5.532   4.211 -0.6312  2.5169  1.8809
 7832TIP3   OH244910   0.447   4.851  15.493 -0.0225  0.8590 -0.0674
 7832TIP3    H144911   0.361   4.817  15.467  0.3066 -0.2543  0.2172
 7832TIP3    H244912   0.502   4.838  15.416 -0.0928  1.5092 -0.2276
 7833TIP3   OH244913   0.020   6.607   1.572 -0.1493 -0.0302  0.3359
 7833TIP3    H144914  -0.057   6.605   1.628 -0.3297  0.9686  0.1424
 7833TIP3    H244915   0.094   6.605   1.633 -0.3440  0.4252  0.5966
 7834TIP3   OH244916   0.347   3.219   1.505 -0.4158 -0.5001  0.5811
 7834TIP3    H144917   0.435   3.248   1.479 -0.4754  0.1137  1.0201
 7834TIP3    H244918   0.310   3.180   1.426  0.5295 -1.4685  0.5937
 7835TIP3   OH244919   2.867   4.249  16.990  0.4787 -0.2205 -0.8476
 7835TIP3    H144920   2.950   4.297  17.002 -0.8456  2.0902 -0.3308
 7835TIP3    H244921   2.823   4.295  16.919 -1.1731 -0.2011  0.1413
 7836TIP3   OH244922   2.612   3.196   5.123  0.3308 -0.5437 -0.2825
 7836TIP3    H144923   2.637   3.104   5.114  3.1441  0.0335  0.6975
 7836TIP3    H244924   2.589   3.223   5.034 -0.6896 -2.1741 -0.5717
 7837TIP3   OH244925   4.325   3.937   0.721 -0.1847 -0.5405 -0.0544
 7837TIP3    H144926   4.301   4.028   0.737  0.6501 -0.4396  0.7140
 7837TIP3    H244927   4.291   3.918   0.634 -1.3408  0.1616  0.2290
 7838TIP3   OH244928   2.521   5.160  10.387 -0.6209  0.1329 -0.1492
 7838TIP3    H144929   2.594   5.184  10.331 -1.0079  0.0384 -0.7072
 7838TIP3    H244930   2.474   5.242  10.401 -0.8113  0.0657 -0.3890
 7839TIP3   OH244931   6.323   1.944  12.225  0.1704  0.1406 -0.2039
 7839TIP3    H144932   6.390   1.953  12.293 -1.0300 -0.2598  1.0936
 7839TIP3    H244933   6.354   1.871  12.171  0.0293 -1.1302  1.3478
 7840TIP3   OH244934   4.255   5.404  15.720  0.0804 -0.0672 -0.3513
 7840TIP3    H144935   4.187   5.433  15.660  0.1876  1.4242  0.1975
 7840TIP3    H244936   4.211   5.345  15.780 -0.4146 -0.1803 -0.8188
 7841TIP3   OH244937   4.250   1.239  15.701 -0.2308 -0.0305  0.2099
 7841TIP3    H144938   4.331   1.217  15.747  0.5402  1.5111 -0.3268
 7841TIP3    H244939   4.233   1.330  15.726 -1.5740 -0.1968 -0.0254
 7842TIP3   OH244940   0.343   3.434  15.681  0.3177 -0.2001 -0.3659
 7842TIP3    H144941   0.285   3.364  15.710 -1.7823  0.7027 -2.0425
 7842TIP3    H244942   0.311   3.512  15.726  0.1969  0.3139 -1.3149
 7843TIP3   OH244943   1.631   5.620  15.471 -0.0129  0.0285 -0.0477
 7843TIP3    H144944   1.637   5.668  15.554 -0.4616  1.2561 -0.6992
 7843TIP3    H244945   1.561   5.556  15.486 -1.1110  1.2150  0.0797
 7844TIP3   OH244946   6.109   3.331  11.671 -0.5425 -0.1429 -0.5017
 7844TIP3    H144947   6.150   3.412  11.639  1.2112 -1.4950 -1.9010
 7844TIP3    H244948   6.079   3.353  11.759  2.4972  1.2592  0.3219
 7845TIP3   OH244949   2.312   0.864  16.147  0.0841 -0.1488 -0.3155
 7845TIP3    H144950   2.350   0.894  16.229 -0.3400 -0.6259  0.0562
 7845TIP3    H244951   2.234   0.815  16.172  0.4425 -1.0723 -0.9441
 7846TIP3   OH244952   3.457   3.857   1.584 -0.2915 -0.1504 -0.0914
 7846TIP3    H144953   3.503   3.891   1.660 -0.3266 -1.1915  0.4256
 7846TIP3    H244954   3.513   3.786   1.552 -0.3039  0.2415 -1.0093
 7847TIP3   OH244955   2.419   3.091  14.332  0.1090  0.9549  0.3362
 7847TIP3    H144956   2.495   3.148  14.339  1.3575 -0.3735 -1.5045
 7847TIP3    H244957   2.357   3.140  14.277 -0.5349  2.1459  2.0528
 7848TIP3   OH244958   4.268   1.679   0.111 -0.7124 -0.4125 -0.1447
 7848TIP3    H144959   4.250   1.730   0.032 -1.7877 -1.8062 -0.8506
 7848TIP3    H244960   4.282   1.744   0.180 -1.3381  0.8127 -1.1410
 7849TIP3   OH244961   4.365   5.495  10.965  0.5777 -0.0265 -0.4508
 7849TIP3    H144962   4.428   5.424  10.975 -0.1887 -0.5396  1.0674
 7849TIP3    H244963   4.289   5.455  10.923  0.9362  0.3992 -1.5257
 7850TIP3   OH244964   0.961   5.098  14.803  0.1680 -0.7519  0.3663
 7850TIP3    H144965   0.903   5.153  14.855  0.3132 -0.4034  0.1657
 7850TIP3    H244966   0.939   5.119  14.712 -0.6577 -1.9436  0.2566
 7851TIP3   OH244967   1.936   5.715   3.513 -0.0931 -0.0689  0.0450
 7851TIP3    H144968   1.890   5.639   3.478 -0.0283 -0.8808  1.6193
 7851TIP3    H244969   1.968   5.762   3.436 -1.1477 -0.9976 -0.9900
 7852TIP3   OH244970   5.795   5.771   0.874  0.8187  0.1214 -0.1671
 7852TIP3    H144971   5.881   5.813   0.869  0.7757  0.1488 -0.8760
 7852TIP3    H244972   5.775   5.748   0.783  0.0788  0.1073 -0.0080
 7853TIP3   OH244973   5.495   1.726  13.950 -0.3417  0.7497  0.3979
 7853TIP3    H144974   5.531   1.651  13.998 -1.7470 -0.1427  0.1314
 7853TIP3    H244975   5.408   1.738  13.987 -0.3432  1.9199  0.0471
 7854TIP3   OH244976   5.084   3.347  11.145  0.2813 -0.0752 -0.7948
 7854TIP3    H144977   5.059   3.413  11.081 -0.2359 -0.2184 -0.7506
 7854TIP3    H244978   5.002   3.324  11.189  0.8442  1.1662  1.0283
 7855TIP3   OH244979   0.099   1.008   3.891 -0.6614 -0.7216 -0.3718
 7855TIP3    H144980   0.166   1.048   3.836  0.6690  1.1306  2.3991
 7855TIP3    H244981   0.148   0.961   3.958 -2.1621 -0.8978  0.6390
 7856TIP3   OH244982   0.548   4.468   0.087 -0.2721  0.4194 -0.0901
 7856TIP3    H144983   0.642   4.478   0.096 -0.1897  0.4711 -0.9224
 7856TIP3    H244984   0.511   4.513   0.164  0.3134  2.0482 -0.7129
 7857TIP3   OH244985   2.812   0.179  12.175 -0.8706  0.0575 -0.3092
 7857TIP3    H144986   2.763   0.259  12.196 -2.3342 -0.9143  0.1327
 7857TIP3    H244987   2.807   0.127  12.256 -0.9320 -0.9593 -0.9588
 7858TIP3   OH244988   3.446   6.702  12.852  0.5570 -0.7657  0.3650
 7858TIP3    H144989   3.405   6.772  12.801 -1.5916 -2.8632 -0.9580
 7858TIP3    H244990   3.495   6.748  12.920  0.2134  2.0370 -1.1244
 7859TIP3   OH244991   6.441   5.239  12.917  0.4133 -0.5961  0.8525
 7859TIP3    H144992   6.362   5.203  12.877  1.3416 -3.2191  1.2462
 7859TIP3    H244993   6.462   5.180  12.989  1.9453  0.8563  1.6796
 7860TIP3   OH244994   4.564   4.184   1.435  0.4805  0.5079 -0.1529
 7860TIP3    H144995   4.480   4.227   1.420  0.7535  0.5906 -1.5928
 7860TIP3    H244996   4.555   4.099   1.393  0.7927  0.1220  0.5398
 7861TIP3   OH244997   2.326   3.571  15.492 -0.4919 -0.6590 -0.0671
 7861TIP3    H144998   2.333   3.536  15.403  1.7006  0.3303 -0.3682
 7861TIP3    H244999   2.335   3.495  15.548  0.4770 -1.0572 -0.7248
 7862TIP3   OH245000   2.661   1.976  13.042 -0.2514  0.5193 -0.2868
 7862TIP3    H145001   2.683   2.051  12.986 -1.3255  1.5839  0.6631
 7862TIP3    H245002   2.567   1.964  13.030 -0.5150  0.8055  1.2976
 7863TIP3   OH245003   0.290   0.482  13.937 -0.9706 -0.1071  0.3876
 7863TIP3    H145004   0.269   0.511  14.026 -0.3520 -0.6329  0.7160
 7863TIP3    H245005   0.358   0.542  13.908  0.2182 -1.0810  1.0206
 7864TIP3   OH245006   4.353   5.736  14.157 -0.0970  0.2835 -0.0136
 7864TIP3    H145007   4.386   5.719  14.068 -1.6886 -0.8381 -0.4349
 7864TIP3    H245008   4.260   5.753  14.145 -0.4264 -0.3303  1.4930
 7865TIP3   OH245009   3.758   3.698   0.741 -0.5462 -0.2261 -0.2779
 7865TIP3    H145010   3.810   3.778   0.744 -1.4970  0.3860  0.9683
 7865TIP3    H245011   3.821   3.627   0.750  0.1210  0.4862  0.9678
 7866TIP3   OH245012   5.105   4.852  13.991  0.4634  0.1260 -0.9473
 7866TIP3    H145013   5.079   4.830  13.902 -1.1876  1.0366 -0.7123
 7866TIP3    H245014   5.030   4.898  14.028  1.8190  1.4182  0.3133
 7867TIP3   OH245015   0.854   3.568   2.589  0.0154  0.0888  0.1430
 7867TIP3    H145016   0.775   3.619   2.571  2.3879  3.4396 -1.8421
 7867TIP3    H245017   0.898   3.561   2.504  1.8826 -1.7073  1.1759
 7868TIP3   OH245018   6.036   3.568   3.511 -0.4608  0.3019  0.3529
 7868TIP3    H145019   6.097   3.590   3.441 -1.1194 -1.5347 -0.8757
 7868TIP3    H245020   6.089   3.522   3.576 -0.3754 -0.6963 -0.3988
 7869TIP3   OH245021   6.757   6.166   6.168  0.0079  0.4949  0.0195
 7869TIP3    H145022   6.665   6.184   6.185 -0.9886 -0.6316 -3.3616
 7869TIP3    H245023   6.770   6.076   6.198 -0.5102  0.0445 -1.0703
 7870TIP3   OH245024   6.301   0.957   2.054 -0.1807  0.0484  0.1521
 7870TIP3    H145025   6.289   0.927   1.964 -0.7564  0.4398  0.0927
 7870TIP3    H245026   6.395   0.953   2.068 -0.0323  0.4854 -0.6496
 7871TIP3   OH245027   1.574   0.369   0.865 -0.0086 -0.2431  0.0104
 7871TIP3    H145028   1.650   0.410   0.906  0.0852 -0.4817  0.0722
 7871TIP3    H245029   1.499   0.403   0.915  0.0922 -0.3914  0.2602
 7872TIP3   OH245030   0.927   4.397   5.616 -0.0347 -0.3443  0.4288
 7872TIP3    H145031   0.902   4.338   5.687  1.0977  1.5779  2.5547
 7872TIP3    H245032   0.852   4.397   5.556 -0.6972 -2.6217  1.1780
 7873TIP3   OH245033   2.267   0.485  14.028 -0.1311 -0.2998  0.3217
 7873TIP3    H145034   2.299   0.473  14.118  1.9654 -0.8393 -0.4265
 7873TIP3    H245035   2.333   0.441  13.974 -0.7405  0.9874 -1.5492
 7874TIP3   OH245036   1.753   2.368   1.738 -0.2010  0.1875 -0.2915
 7874TIP3    H145037   1.722   2.458   1.742  1.6237  0.8244  1.4708
 7874TIP3    H245038   1.842   2.375   1.702  0.3136 -0.7636  0.7239
 7875TIP3   OH245039   4.316   3.499  14.180  0.3231 -0.4015 -0.3105
 7875TIP3    H145040   4.236   3.457  14.214 -0.8472  0.9708 -1.2352
 7875TIP3    H245041   4.302   3.593  14.196  0.3310  0.1897 -3.1685
 7876TIP3   OH245042   5.605   5.681  16.470  0.3778  0.6657  0.1799
 7876TIP3    H145043   5.691   5.724  16.473  1.4570 -1.4084  1.7633
 7876TIP3    H245044   5.552   5.730  16.532 -0.4062  3.2967 -2.3005
 7877TIP3   OH245045   0.254   3.995   1.289  0.8520 -0.2497 -0.1590
 7877TIP3    H145046   0.268   4.055   1.363  0.2482 -0.5116  0.1747
 7877TIP3    H245047   0.340   3.957   1.273  0.4210 -3.0610  2.9200
 7878TIP3   OH245048   1.916   2.444   3.593 -0.1785 -0.3363 -0.4868
 7878TIP3    H145049   1.893   2.535   3.573 -0.1656 -0.3761 -0.6864
 7878TIP3    H245050   2.012   2.442   3.592 -0.0980  0.1210  1.6534
 7879TIP3   OH245051   4.561   6.445  13.839  0.5784  0.3202  0.5194
 7879TIP3    H145052   4.632   6.382  13.848 -0.1285 -0.3624  1.5152
 7879TIP3    H245053   4.499   6.404  13.779  0.0828  0.0003  1.2242
 7880TIP3   OH245054   5.529   0.772  12.229  0.3205 -1.0301 -0.7213
 7880TIP3    H145055   5.584   0.824  12.288 -0.1892 -0.8756 -0.3768
 7880TIP3    H245056   5.442   0.773  12.270 -0.2571 -0.1932 -1.8934
 7881TIP3   OH245057   1.654   4.517  12.848  0.4514 -0.1203 -0.2031
 7881TIP3    H145058   1.560   4.533  12.859  1.0388  3.1391  1.0173
 7881TIP3    H245059   1.684   4.588  12.790  2.1573 -1.2181 -0.7454
 7882TIP3   OH245060   1.348   6.153   3.902 -0.6327 -0.0301 -0.0319
 7882TIP3    H145061   1.340   6.059   3.916 -1.7387 -0.0835 -0.8865
 7882TIP3    H245062   1.384   6.187   3.984  1.6659 -1.4149 -0.3880
 7883TIP3   OH245063   3.392   2.894   4.519  0.1266  0.5685 -0.4232
 7883TIP3    H145064   3.315   2.851   4.483  0.4478  0.6371 -1.2143
 7883TIP3    H245065   3.450   2.907   4.444  0.4089  1.5879 -0.0511
 7884TIP3   OH245066   0.530   1.219  12.864  0.1161 -0.4196 -0.4460
 7884TIP3    H145067   0.463   1.228  12.797 -0.7993 -2.4953  0.1121
 7884TIP3    H245068   0.577   1.139  12.840  0.5466 -0.5334  0.7247
 7885TIP3   OH245069   4.100   2.924   3.935  0.7511  0.5995  0.0669
 7885TIP3    H145070   4.095   2.852   3.998 -1.1833 -0.5966 -1.3253
 7885TIP3    H245071   4.032   2.986   3.963 -0.8058 -0.4023 -1.2663
 7886TIP3   OH245072   4.703   4.565  17.037 -0.2696  0.1671 -0.4309
 7886TIP3    H145073   4.756   4.523  16.969 -0.9271 -1.0767 -0.1968
 7886TIP3    H245074   4.664   4.493  17.085  2.4239  0.8525  3.1792
 7887TIP3   OH245075   4.969   5.053   5.676  0.2679  0.5010  0.0292
 7887TIP3    H145076   4.998   5.046   5.766  0.2174  2.3196  0.2102
 7887TIP3    H245077   4.890   5.106   5.680  1.3184  2.2533 -1.2549
 7888TIP3   OH245078   1.936   5.282  11.946  0.0092  0.4237 -0.3818
 7888TIP3    H145079   1.961   5.252  11.859 -0.5410 -0.0816 -0.3676
 7888TIP3    H245080   2.003   5.245  12.004 -0.7082 -0.8925 -0.3528
 7889TIP3   OH245081   3.569   3.994   2.480 -0.1483 -0.6119 -0.4150
 7889TIP3    H145082   3.632   4.065   2.493  0.8628 -1.7139  1.2234
 7889TIP3    H245083   3.484   4.035   2.492  0.4272  0.2870  0.8438
 7890TIP3   OH245084   6.194   5.487  17.141 -0.5606  0.3831 -0.2242
 7890TIP3    H145085   6.222   5.507  17.052  1.0804  0.9996  0.3934
 7890TIP3    H245086   6.187   5.572  17.184 -1.7126  0.1196  0.1520
 7891TIP3   OH245087   0.995   3.341   2.132  0.1076 -0.4832 -0.0249
 7891TIP3    H145088   0.913   3.351   2.083 -1.0203 -0.3577  1.7965
 7891TIP3    H245089   1.063   3.339   2.064 -1.2411  0.9693 -1.5332
 7892TIP3   OH245090   1.453   1.785  15.303 -0.0079  0.5322 -0.0816
 7892TIP3    H145091   1.469   1.728  15.378  0.5717 -0.6950 -1.1014
 7892TIP3    H245092   1.503   1.746  15.232 -1.6928  0.8148 -1.5011
 7893TIP3   OH245093   5.162   6.168   3.461 -0.0508 -0.2198 -0.3060
 7893TIP3    H145094   5.091   6.109   3.436 -2.2404  2.0753  0.0595
 7893TIP3    H245095   5.142   6.250   3.416  2.0807  0.6905  0.2875
 7894TIP3   OH245096   3.911   0.879  14.302 -0.5208 -0.0030  0.6743
 7894TIP3    H145097   3.832   0.882  14.247 -0.2904  0.9871  0.3663
 7894TIP3    H245098   3.879   0.895  14.391 -0.8084 -0.8799  0.7400
 7895TIP3   OH245099   2.797   3.864   4.832  0.5151  0.4224  0.5285
 7895TIP3    H145100   2.764   3.940   4.784 -0.3043  0.1050  0.5702
 7895TIP3    H245101   2.721   3.806   4.840  1.5404 -1.2501 -1.0870
 7896TIP3   OH245102   4.849   2.715  12.823 -0.1088  0.2382 -0.1377
 7896TIP3    H145103   4.881   2.802  12.799  0.6742 -0.4679 -1.7579
 7896TIP3    H245104   4.761   2.711  12.787  0.2912 -0.0518 -1.1106
 7897TIP3   OH245105   5.538   4.581  12.430 -0.3803 -0.0363  0.4364
 7897TIP3    H145106   5.565   4.504  12.479 -0.0660  0.0717  0.4317
 7897TIP3    H245107   5.452   4.604  12.467 -1.0534 -1.1210 -0.4072
 7898TIP3   OH245108   6.803   5.325   0.716  0.1072  0.2250 -0.7203
 7898TIP3    H145109   6.844   5.243   0.688  0.0218 -0.3104  0.6303
 7898TIP3    H245110   6.873   5.389   0.713  0.3686 -0.0724 -1.0518
 7899TIP3   OH245111   0.931   3.738   5.148 -0.9752 -0.3085 -0.0237
 7899TIP3    H145112   0.851   3.739   5.201 -1.1621  1.7362 -0.2680
 7899TIP3    H245113   0.916   3.803   5.080  0.9271  0.1779 -0.0287
 7900TIP3   OH245114   4.062   6.214   0.052 -0.7528 -0.5108 -0.4656
 7900TIP3    H145115   4.038   6.298   0.092 -1.4615 -0.3038 -1.2850
 7900TIP3    H245116   4.063   6.152   0.126 -1.2732  0.0079 -0.0047
 7901TIP3   OH245117   2.877   1.574   2.154 -0.1087  0.2311  0.5184
 7901TIP3    H145118   2.809   1.509   2.176  1.9529 -1.7110  1.5375
 7901TIP3    H245119   2.906   1.608   2.238  0.2743  0.9811  0.0959
 7902TIP3   OH245120   6.778   0.310   5.099  0.1299 -0.3480  0.0765
 7902TIP3    H145121   6.696   0.309   5.050 -1.4894 -0.5652  2.6214
 7902TIP3    H245122   6.777   0.394   5.145  0.9032 -0.7319  0.8202
 7903TIP3   OH245123   5.592   3.469  11.848 -0.1236 -0.3949 -0.1458
 7903TIP3    H145124   5.567   3.541  11.790  1.6714 -0.5610 -1.2030
 7903TIP3    H245125   5.550   3.392  11.810 -0.6802 -0.1753  0.0176
 7904TIP3   OH245126   4.618   6.766  14.798  0.0138  0.4392  0.1870
 7904TIP3    H145127   4.557   6.733  14.732  0.9298  1.3330 -1.1770
 7904TIP3    H245128   4.585   6.854  14.820  1.5529  1.5919 -1.7265
 7905TIP3   OH245129   4.515   3.412  13.761  0.3869 -0.3604 -0.3684
 7905TIP3    H145130   4.483   3.436  13.848 -0.7518 -0.2707 -0.7971
 7905TIP3    H245131   4.533   3.496  13.718  1.6944 -0.4188  0.0371
 7906TIP3   OH245132   1.331   0.467  13.509  0.0383  0.3763 -0.2050
 7906TIP3    H145133   1.345   0.501  13.421 -1.2237 -2.0724 -1.4412
 7906TIP3    H245134   1.416   0.430  13.534 -0.3499 -1.9205 -1.8820
 7907TIP3   OH245135   3.371   0.357  14.934  0.1332  0.1438  0.3022
 7907TIP3    H145136   3.366   0.401  15.019 -0.2347 -0.1286  0.4252
 7907TIP3    H245137   3.281   0.352  14.904  0.0353 -1.3821  0.7379
 7908TIP3   OH245138   2.207   1.513  15.344  0.3581 -0.0587  0.2246
 7908TIP3    H145139   2.259   1.594  15.341  0.4426 -0.0273  1.7247
 7908TIP3    H245140   2.133   1.534  15.401  0.8270 -1.2610  1.3406
 7909TIP3   OH245141   3.749   4.175  15.196  0.6506 -0.1461 -0.2248
 7909TIP3    H145142   3.808   4.101  15.184  0.0237 -0.8368  0.8362
 7909TIP3    H245143   3.673   4.155  15.140 -0.1216 -0.9972  1.0814
 7910TIP3   OH245144   0.979   2.517  13.316  0.4175 -0.3496  0.0999
 7910TIP3    H145145   1.049   2.505  13.380 -0.2621 -0.8096  0.7883
 7910TIP3    H245146   0.911   2.566  13.363  0.7715  1.2123 -0.9424
 7911TIP3   OH245147   5.223   0.316   5.146 -0.4639  0.1682  0.3571
 7911TIP3    H145148   5.149   0.256   5.139 -1.0966  1.0277 -1.0412
 7911TIP3    H245149   5.297   0.261   5.169 -1.0275 -1.1511 -0.7905
 7912TIP3   OH245150   4.377   0.583  12.274  0.0655 -0.1159 -0.1308
 7912TIP3    H145151   4.330   0.529  12.337 -2.2892  0.6994 -1.1094
 7912TIP3    H245152   4.423   0.648  12.329  3.7200 -3.3568  1.1506
 7913TIP3   OH245153   1.997   4.493  17.137  0.0011 -0.5684  0.1376
 7913TIP3    H145154   1.909   4.469  17.109  0.1012  0.0573 -0.7492
 7913TIP3    H245155   2.053   4.464  17.065  0.1509  2.1289 -0.9514
 7914TIP3   OH245156   5.711   5.975   2.708 -0.6139 -0.3209  0.4696
 7914TIP3    H145157   5.799   5.979   2.669 -0.9038  0.5110 -0.1263
 7914TIP3    H245158   5.710   6.045   2.772 -0.3092 -1.3730  1.6584
 7915TIP3   OH245159   4.542   4.405   4.342  0.5724  0.2989 -0.7543
 7915TIP3    H145160   4.451   4.396   4.313  0.6695  0.2341 -1.0381
 7915TIP3    H245161   4.567   4.316   4.367  0.4824  0.3583 -0.4483
 7916TIP3   OH245162   4.759   1.296  13.613  0.0595  0.2768 -0.4524
 7916TIP3    H145163   4.747   1.234  13.542 -0.4471  1.3211 -1.3062
 7916TIP3    H245164   4.713   1.257  13.687  0.7907 -0.9314 -0.6096
 7917TIP3   OH245165   3.498   5.570  12.965  0.3953  0.0554 -0.3353
 7917TIP3    H145166   3.487   5.550  13.059  1.1808  2.2457  0.2639
 7917TIP3    H245167   3.512   5.484  12.925  2.5633 -0.7674  1.9182
 7918TIP3   OH245168   1.208   4.603  10.266  0.1758 -0.7527 -0.0945
 7918TIP3    H145169   1.220   4.649  10.349  0.2431 -1.0742  0.0775
 7918TIP3    H245170   1.297   4.585  10.235  0.1930  0.9164 -1.1295
 7919TIP3   OH245171   5.540   6.486   1.135 -0.0673  0.5423  0.0610
 7919TIP3    H145172   5.623   6.439   1.119 -0.2924 -0.4024  1.3895
 7919TIP3    H245173   5.567   6.571   1.168  0.3846  0.4395 -0.0338
 7920TIP3   OH245174   3.890   3.188  12.404  0.2047 -0.5444  0.4944
 7920TIP3    H145175   3.817   3.139  12.441  0.0447 -0.7189 -0.0480
 7920TIP3    H245176   3.934   3.226  12.480 -1.9963  1.7956  0.7596
 7921TIP3   OH245177   4.131   6.348   2.914 -0.1411 -0.2653  0.4590
 7921TIP3    H145178   4.135   6.274   2.974  1.7283  0.0418  0.7598
 7921TIP3    H245179   4.122   6.308   2.827 -2.6983 -0.7105  0.8288
 7922TIP3   OH245180   3.305   4.204   5.510  0.2200 -0.4624  0.0952
 7922TIP3    H145181   3.363   4.177   5.582  0.5753  1.3687  0.5301
 7922TIP3    H245182   3.235   4.253   5.552  0.0688  0.0573 -0.7444
 7923TIP3   OH245183   5.134   5.270   4.694  0.5788  0.4282  0.2624
 7923TIP3    H145184   5.185   5.194   4.669 -0.8334 -0.4908  0.0500
 7923TIP3    H245185   5.176   5.344   4.650 -0.2511 -0.7523 -2.7384
 7924TIP3   OH245186   5.959   5.330  11.623 -0.2121  0.1165  0.2134
 7924TIP3    H145187   5.874   5.336  11.667 -0.3979  1.1134 -0.2504
 7924TIP3    H245188   5.965   5.411  11.573  1.6742  0.7641  1.3915
 7925TIP3   OH245189   2.938   4.745   4.412  0.3195 -0.1022  0.0199
 7925TIP3    H145190   2.912   4.660   4.447  1.0780 -0.3250  0.0736
 7925TIP3    H245191   2.911   4.808   4.479 -1.2390 -0.1750 -0.5133
 7926TIP3   OH245192   0.988   4.941  15.199 -0.0333 -0.2566 -0.3978
 7926TIP3    H145193   0.927   4.973  15.266  0.0375  0.8216 -0.8290
 7926TIP3    H245194   1.059   5.005  15.199 -0.7925  0.6621 -2.5822
 7927TIP3   OH245195   4.704   6.136  13.073  0.6333  0.3215  0.3546
 7927TIP3    H145196   4.697   6.099  12.985 -1.7653 -0.4275  0.7765
 7927TIP3    H245197   4.741   6.065  13.126 -1.1481 -0.5049  0.5676
 7928TIP3   OH245198   4.282   0.212  15.941 -0.5756 -0.0756  0.4462
 7928TIP3    H145199   4.231   0.289  15.967 -0.8142  0.2655 -0.9601
 7928TIP3    H245200   4.305   0.169  16.024 -1.5209  0.8094  1.1894
 7929TIP3   OH245201   3.840   0.937   2.709  0.1150 -0.1207  0.0830
 7929TIP3    H145202   3.800   0.897   2.786  1.3499 -0.4706  0.5738
 7929TIP3    H245203   3.816   0.879   2.637  0.0876 -0.5612  0.4382
 7930TIP3   OH245204   5.061   0.685  10.485  0.5524  0.6198  0.2983
 7930TIP3    H145205   5.020   0.605  10.451 -0.2275  0.8785  0.6017
 7930TIP3    H245206   5.106   0.657  10.564  1.3333  0.2532 -0.2550
 7931TIP3   OH245207   4.334   0.452  10.988 -0.7202 -0.3438  0.0598
 7931TIP3    H145208   4.306   0.401  11.064 -0.3222 -0.8219 -0.1053
 7931TIP3    H245209   4.304   0.401  10.913 -0.7067 -0.1080 -0.1069
 7932TIP3   OH245210   6.720   2.674  16.336  0.0499  0.2141 -0.5957
 7932TIP3    H145211   6.747   2.750  16.389  0.0056  0.0373 -0.3164
 7932TIP3    H245212   6.795   2.614  16.342 -0.6808 -0.6245  0.8434
 7933TIP3   OH245213   4.681   1.778   1.826 -0.2256  0.1613 -0.3762
 7933TIP3    H145214   4.598   1.751   1.863 -0.2900  0.5477 -0.2340
 7933TIP3    H245215   4.743   1.710   1.853 -0.3333  0.2782  0.1766
 7934TIP3   OH245216   0.829   4.058   4.699 -0.4404 -0.0492  0.4071
 7934TIP3    H145217   0.885   4.033   4.626 -1.5312 -0.9098 -0.1814
 7934TIP3    H245218   0.791   4.142   4.674  1.2644  1.0338  1.2403
 7935TIP3   OH245219   4.038   4.582   6.094 -0.1132  0.0480  0.0460
 7935TIP3    H145220   4.117   4.626   6.065  0.0868  0.3244  0.9774
 7935TIP3    H245221   3.967   4.625   6.047  0.3403 -0.8530 -1.5510
 7936TIP3   OH245222   4.924   5.687   4.362 -0.2709  0.6129 -0.5089
 7936TIP3    H145223   4.942   5.736   4.442  0.5691  1.7658 -1.3651
 7936TIP3    H245224   5.003   5.697   4.309 -1.0321  0.3946 -1.7390
 7937TIP3   OH245225   5.785   1.140  12.576  0.1234 -0.1151  0.1139
 7937TIP3    H145226   5.831   1.207  12.626  1.2966 -0.0770 -0.9656
 7937TIP3    H245227   5.853   1.097  12.525 -1.0929  0.3082 -1.9763
 7938TIP3   OH245228   2.274   2.949  16.920 -0.4332  0.3217 -0.5814
 7938TIP3    H145229   2.365   2.926  16.942  0.3634  2.1861 -1.6780
 7938TIP3    H245230   2.251   3.016  16.984 -1.7051 -1.3063  0.7669
 7939TIP3   OH245231   1.286   0.247   3.345  0.0226 -0.0274 -0.2113
 7939TIP3    H145232   1.286   0.188   3.270 -2.5588 -2.3162  1.4092
 7939TIP3    H245233   1.214   0.308   3.329 -0.4194 -0.4062  0.2977
 7940TIP3   OH245234   3.026   0.551   0.865 -0.2146 -0.7503 -0.0499
 7940TIP3    H145235   2.972   0.509   0.932 -1.9529 -0.8926 -1.4383
 7940TIP3    H245236   3.063   0.628   0.907 -2.5446  0.0611  0.6891
 7941TIP3   OH245237   3.700   5.531   2.505 -0.0159 -0.1304 -0.3327
 7941TIP3    H145238   3.746   5.490   2.578 -0.4549 -0.3762 -0.1852
 7941TIP3    H245239   3.767   5.580   2.458  0.0567  1.1589  1.0150
 7942TIP3   OH245240   6.175   2.543  13.998 -0.0852 -0.4204  0.2077
 7942TIP3    H145241   6.165   2.461  13.950  1.5052 -0.2749 -0.4281
 7942TIP3    H245242   6.161   2.612  13.932 -0.6533 -0.1887  0.5669
 7943TIP3   OH245243   0.919   1.439  11.379 -0.9167  0.5184 -0.0658
 7943TIP3    H145244   0.924   1.344  11.374  0.7454  0.5292  0.6610
 7943TIP3    H245245   0.967   1.462  11.459 -0.0045  2.0468 -0.9934
 7944TIP3   OH245246   1.541   4.878  14.658  0.2069  0.5740 -0.1029
 7944TIP3    H145247   1.595   4.847  14.731 -0.0766 -0.1929 -0.2033
 7944TIP3    H245248   1.452   4.875  14.692 -0.0526 -0.9097 -0.8234
 7945TIP3   OH245249   0.809   5.161  13.896 -0.1791  0.0032  0.2877
 7945TIP3    H145250   0.756   5.239  13.909  0.9900  0.6348  1.5986
 7945TIP3    H245251   0.860   5.153  13.977  0.4037 -1.5937 -0.1883
 7946TIP3   OH245252   2.009   3.030   5.444 -0.5687  0.3750 -0.7199
 7946TIP3    H145253   1.991   3.039   5.350 -0.6688  2.0966 -0.5531
 7946TIP3    H245254   2.105   3.028   5.450 -0.5446  1.3213 -0.7726
 7947TIP3   OH245255   0.572   0.091  10.928  0.0374 -0.0424  0.1822
 7947TIP3    H145256   0.630   0.150  10.879  0.5211  0.1316  0.9492
 7947TIP3    H245257   0.495   0.143  10.948 -1.7709 -1.0556 -3.3054
 7948TIP3   OH245258   4.754   5.623   6.367  0.1880  0.2541 -0.5733
 7948TIP3    H145259   4.776   5.538   6.329  1.8641  0.5794 -0.4016
 7948TIP3    H245260   4.669   5.645   6.327  0.8256 -0.4191 -2.4403
 7949TIP3   OH245261   1.561   3.022   3.201 -0.2642  0.1621 -0.2905
 7949TIP3    H145262   1.476   3.024   3.157 -0.4870 -3.5211 -0.3497
 7949TIP3    H245263   1.540   3.008   3.293  0.2165 -0.9654 -0.3342
 7950TIP3   OH245264   2.353   1.236  11.129  0.4033 -0.3368 -0.2362
 7950TIP3    H145265   2.433   1.184  11.131  0.4386 -0.3820 -1.6621
 7950TIP3    H245266   2.286   1.177  11.093  0.0776  0.1426 -0.4305
 7951TIP3   OH245267   6.721   1.153   1.298 -0.5581  0.1287  0.9923
 7951TIP3    H145268   6.734   1.083   1.234  1.5210 -0.9833  2.5052
 7951TIP3    H245269   6.629   1.179   1.287 -1.0054 -1.8703 -0.5739
 7952TIP3   OH245270   2.533   4.362  15.016 -0.2516  0.5417 -0.2938
 7952TIP3    H145271   2.591   4.377  14.941 -0.0961  3.0047  0.2416
 7952TIP3    H245272   2.521   4.449  15.055 -1.1100 -0.5218  1.9741
 7953TIP3   OH245273   2.274   3.381   2.598 -0.2319  0.0310  0.4383
 7953TIP3    H145274   2.222   3.424   2.666 -0.4030  0.9691 -0.2710
 7953TIP3    H245275   2.317   3.452   2.551 -0.8657 -0.5114 -1.0462
 7954TIP3   OH245276   6.549   4.747   4.973 -0.4036  0.5366  0.5759
 7954TIP3    H145277   6.544   4.702   4.888 -1.0141  3.9730 -1.3715
 7954TIP3    H245278   6.641   4.772   4.981 -0.2018 -0.3857  1.3321
 7955TIP3   OH245279   6.097   6.207  11.291  0.5852 -0.2440 -0.3861
 7955TIP3    H145280   6.080   6.228  11.199  2.2242 -0.2201 -0.7115
 7955TIP3    H245281   6.192   6.199  11.296  0.5139 -0.2366  1.3201
 7956TIP3   OH245282   3.040   3.734   4.899  0.0456  0.3035  0.2317
 7956TIP3    H145283   2.949   3.763   4.913  0.9085  3.6194 -0.0948
 7956TIP3    H245284   3.080   3.736   4.985  0.3192  1.0276  0.0995
 7957TIP3   OH245285   4.763   2.696  16.452 -0.0557  0.0855 -0.8756
 7957TIP3    H145286   4.690   2.636  16.435  1.2461 -1.8127 -0.0405
 7957TIP3    H245287   4.841   2.645  16.432  1.1016  2.0033 -1.5421
 7958TIP3   OH245288   1.883   4.034  13.358  0.1364 -0.0548 -0.2943
 7958TIP3    H145289   1.960   4.080  13.326 -2.3698  2.9208 -2.6948
 7958TIP3    H245290   1.893   3.945  13.327  2.2475  0.4266 -1.1549
 7959TIP3   OH245291   2.433   4.350   0.332 -0.8543 -0.4583 -0.1668
 7959TIP3    H145292   2.518   4.312   0.350 -0.3356  1.3467  1.4719
 7959TIP3    H245293   2.372   4.277   0.339  0.4229 -1.5793 -0.3803
 7960TIP3   OH245294   3.389   4.045  12.659 -0.1200  0.2700 -0.1475
 7960TIP3    H145295   3.417   4.054  12.568  0.1036 -1.7923 -0.3093
 7960TIP3    H245296   3.294   4.035  12.655 -0.0576 -0.3193 -0.2005
 7961TIP3   OH245297   2.007   2.706  13.910  0.0333  0.0905  0.8118
 7961TIP3    H145298   1.962   2.718  13.827  0.8259  0.3609  0.4069
 7961TIP3    H245299   2.095   2.676  13.886  1.0911  2.4833  1.3891
 7962TIP3   OH245300   3.153   3.503   0.884 -0.3347 -0.0636  0.8207
 7962TIP3    H145301   3.164   3.418   0.926  1.9658 -2.3843 -3.7996
 7962TIP3    H245302   3.236   3.549   0.900  0.8014 -1.2080 -1.4322
 7963TIP3   OH245303   0.729   1.845   3.016  0.2345  0.6264  0.1012
 7963TIP3    H145304   0.709   1.886   2.932  1.1244 -0.4474 -0.6629
 7963TIP3    H245305   0.685   1.760   3.012  3.4921 -1.1835 -1.0272
 7964TIP3   OH245306   2.841   4.549  14.324  0.4245  0.1551 -0.4074
 7964TIP3    H145307   2.752   4.524  14.347  0.7264  1.3032  2.5302
 7964TIP3    H245308   2.833   4.635  14.282  0.0075 -0.9786 -2.7568
 7965TIP3   OH245309   1.771   5.427  14.791  0.1291 -0.6390 -0.4087
 7965TIP3    H145310   1.848   5.371  14.805  0.0659 -0.4891  0.5968
 7965TIP3    H245311   1.747   5.456  14.878 -0.0724  0.6759 -0.8847
 7966TIP3   OH245312   0.790   0.473   2.455 -0.6158 -0.5530 -0.4458
 7966TIP3    H145313   0.795   0.378   2.472  1.1523 -0.3855  0.2053
 7966TIP3    H245314   0.697   0.491   2.448 -1.2904 -1.7860  3.0684
 7967TIP3   OH245315   4.700   3.319  12.641  0.0706 -0.4271  0.3937
 7967TIP3    H145316   4.765   3.390  12.642  0.4457 -0.7682  0.5726
 7967TIP3    H245317   4.663   3.322  12.553  0.1509 -0.0710  0.3675
 7968TIP3   OH245318   6.446   0.740   4.556 -0.1931 -0.3025 -0.1886
 7968TIP3    H145319   6.488   0.782   4.631 -0.7479 -2.1603  1.2493
 7968TIP3    H245320   6.448   0.806   4.487  1.5334  1.0210  1.0329
 7969TIP3   OH245321   6.515   1.539   6.191 -0.2268  0.1476 -0.0376
 7969TIP3    H145322   6.510   1.474   6.260 -1.5920  1.1305  0.8284
 7969TIP3    H245323   6.451   1.606   6.215 -0.5182  0.6829 -2.0912
 7970TIP3   OH245324   4.643   1.305  16.939 -0.2089 -0.0250 -0.3468
 7970TIP3    H145325   4.649   1.392  16.899  0.1501 -0.1295 -0.5216
 7970TIP3    H245326   4.720   1.300  16.996  0.6841 -0.8550 -1.5736
 7971TIP3   OH245327   6.791   3.027   0.166 -0.0194 -0.2392  0.3705
 7971TIP3    H145328   6.864   2.989   0.117  0.3395  0.6090  0.2374
 7971TIP3    H245329   6.807   3.001   0.257  1.0829  0.8992  0.5202
 7972TIP3   OH245330   4.024   3.830   2.128 -0.1553  0.2615 -0.0377
 7972TIP3    H145331   4.090   3.775   2.086  0.0034 -0.4704  1.1412
 7972TIP3    H245332   3.942   3.781   2.119 -0.0572 -0.0677  0.8080
 7973TIP3   OH245333   6.598   0.144  12.711 -0.0244  0.1105  0.2091
 7973TIP3    H145334   6.628   0.082  12.645  1.2733 -1.7068  2.3389
 7973TIP3    H245335   6.537   0.202  12.665 -1.4016 -2.7966 -1.9381
 7974TIP3   OH245336   6.028   5.310  16.842  0.2045  0.0496  0.5507
 7974TIP3    H145337   6.107   5.362  16.859 -0.6790  1.0803  1.7393
 7974TIP3    H245338   5.957   5.375  16.842 -0.5315 -0.6743 -1.7175
 7975TIP3   OH245339   4.971   3.046   2.548  0.5717  0.1721 -0.3430
 7975TIP3    H145340   4.892   3.027   2.497 -0.4795  1.6277  0.6715
 7975TIP3    H245341   4.970   3.141   2.560  0.7680 -0.0887  2.3263
 7976TIP3   OH245342   0.032   5.280  16.695 -0.0271  0.1136  0.1774
 7976TIP3    H145343   0.030   5.185  16.705 -2.2974 -0.0751 -1.3886
 7976TIP3    H245344   0.057   5.294  16.604  0.8718  1.0488  0.5588
 7977TIP3   OH245345   0.476   3.938  11.258 -0.4666  0.6251 -0.2579
 7977TIP3    H145346   0.518   3.889  11.187  1.5120  0.4722  0.9501
 7977TIP3    H245347   0.404   3.882  11.287  0.1326 -0.3663 -0.6479
 7978TIP3   OH245348   0.464   1.605  16.204  0.5247 -0.1527  0.0816
 7978TIP3    H145349   0.466   1.561  16.289  0.5238  0.2438  0.2911
 7978TIP3    H245350   0.371   1.621  16.187  0.3310 -2.0755 -0.9767
 7979TIP3   OH245351   4.706   2.745   5.121 -0.0207 -0.9688 -0.1027
 7979TIP3    H145352   4.794   2.780   5.134 -0.5832  0.4701  0.0483
 7979TIP3    H245353   4.710   2.655   5.152  1.1218 -0.5786  0.9365
 7980TIP3   OH245354   2.721   6.407  16.295 -0.5740  0.2426 -0.1708
 7980TIP3    H145355   2.699   6.340  16.359  1.7666  0.5366  1.0338
 7980TIP3    H245356   2.698   6.367  16.210 -3.0041 -0.4368  0.7249
 7981TIP3   OH245357   1.221   5.519  14.620 -0.1651  0.2333  0.2950
 7981TIP3    H145358   1.159   5.522  14.693 -0.2124  0.5386  0.2449
 7981TIP3    H245359   1.168   5.540  14.543  0.1677  1.3472  0.3625
 7982TIP3   OH245360   4.564   0.758  16.048 -0.4615 -0.6291 -0.4437
 7982TIP3    H145361   4.504   0.812  16.101  0.5808 -0.1696  0.2987
 7982TIP3    H245362   4.523   0.672  16.046 -0.7603 -0.5353  0.7414
 7983TIP3   OH245363   3.761   5.958   5.349  0.1389  0.1678  0.3854
 7983TIP3    H145364   3.801   5.973   5.264  1.3828  0.6433  1.0354
 7983TIP3    H245365   3.709   5.878   5.337  0.7405 -0.0790 -0.6654
 7984TIP3   OH245366   1.970   6.118  14.334 -0.0485 -0.1353 -0.0699
 7984TIP3    H145367   2.060   6.085  14.345  0.1848  0.6215  0.4311
 7984TIP3    H245368   1.954   6.170  14.413  0.0645  1.9512 -1.3240
 7985TIP3   OH245369   4.127   0.538   3.620 -0.7674 -0.2387 -0.4981
 7985TIP3    H145370   4.050   0.592   3.604 -2.0841 -1.9102 -0.1055
 7985TIP3    H245371   4.097   0.470   3.680  1.5362  0.1925  1.3156
 7986TIP3   OH245372   0.435   2.019  14.551  0.0666  0.1298  0.7303
 7986TIP3    H145373   0.418   1.983  14.464  0.9692  1.6228 -0.1263
 7986TIP3    H245374   0.458   1.944  14.605 -1.3496 -0.9326 -0.0811
 7987TIP3   OH245375   2.887   3.730   3.241  0.3092 -0.3075  0.0469
 7987TIP3    H145376   2.873   3.824   3.232  0.0969  0.0136  2.9587
 7987TIP3    H245377   2.801   3.691   3.226  0.0704  0.0954  0.3659
 7988TIP3   OH245378   6.112   0.448  12.119 -0.2746 -0.0532  0.0589
 7988TIP3    H145379   6.196   0.440  12.165 -1.1138 -1.2346  1.4933
 7988TIP3    H245380   6.075   0.360  12.122 -1.9398  0.6149  0.2210
 7989TIP3   OH245381   3.459   4.179   4.707 -0.3199 -0.9915  0.0315
 7989TIP3    H145382   3.424   4.221   4.786 -0.9230  0.6204 -1.0474
 7989TIP3    H245383   3.551   4.205   4.704 -0.2501 -1.2039  0.2880
 7990TIP3   OH245384   6.645   6.008  14.509 -0.3783 -0.0895 -0.9268
 7990TIP3    H145385   6.692   6.091  14.498 -1.2622  0.5949  0.1490
 7990TIP3    H245386   6.711   5.947  14.540  0.0079  0.6241 -0.2921
 7991TIP3   OH245387   5.653   3.709   2.646  0.4073 -0.0612  0.1291
 7991TIP3    H145388   5.725   3.769   2.666  0.5201 -0.4510  0.9686
 7991TIP3    H245389   5.681   3.626   2.686  0.3435 -0.7229 -1.1761
 7992TIP3   OH245390   5.847   4.569   3.292 -0.4569  0.4197  0.3537
 7992TIP3    H145391   5.810   4.482   3.276  2.4521 -0.8093 -0.2825
 7992TIP3    H245392   5.773   4.620   3.324 -2.9969 -1.4239 -2.0181
 7993TIP3   OH245393   0.926   2.699   4.450  0.3809 -0.1366  0.5865
 7993TIP3    H145394   0.837   2.668   4.463  1.5148 -2.9219  2.8433
 7993TIP3    H245395   0.925   2.790   4.479 -2.4701  1.3835 -3.3800
 7994TIP3   OH245396   1.812   2.343   3.307 -0.1598  0.5575 -0.5886
 7994TIP3    H145397   1.792   2.303   3.391  0.2739  1.0071 -0.2666
 7994TIP3    H245398   1.782   2.434   3.316 -0.0852  0.6148 -0.9054
 7995TIP3   OH245399   2.240   5.669   4.693  0.6149 -0.3975  0.0467
 7995TIP3    H145400   2.239   5.605   4.764  1.6308 -0.7090 -0.2077
 7995TIP3    H245401   2.154   5.711   4.698  1.3784  1.0858  2.7966
 7996TIP3   OH245402   4.881   3.456   1.429 -0.3156 -0.8430  0.3494
 7996TIP3    H145403   4.807   3.416   1.384  0.4417 -2.1389  0.2252
 7996TIP3    H245404   4.841   3.507   1.500 -1.3014 -1.9615  0.6262
 7997TIP3   OH245405   6.375   3.201   5.494  0.0099 -0.2428 -0.4948
 7997TIP3    H145406   6.430   3.227   5.420 -1.2014 -0.1748 -1.3987
 7997TIP3    H245407   6.381   3.274   5.555  0.6148 -0.0734 -0.7480
 7998TIP3   OH245408   6.100   1.902   4.477  0.7296 -0.2250  0.3570
 7998TIP3    H145409   6.104   1.982   4.529 -0.3121 -1.3400  2.2742
 7998TIP3    H245410   6.185   1.897   4.433  0.7027  2.0585 -0.0623
 7999TIP3   OH245411   5.582   5.993   2.424 -0.3178  0.2493 -0.0589
 7999TIP3    H145412   5.649   6.060   2.439 -0.4656  0.2957  0.4241
 7999TIP3    H245413   5.586   5.939   2.503 -0.5690  0.0088 -0.2112
 8000TIP3   OH245414   2.515   6.595   0.427 -0.6204  0.5765 -0.2918
 8000TIP3    H145415   2.585   6.542   0.465 -0.0836  2.3186  1.3192
 8000TIP3    H245416   2.434   6.552   0.454 -0.2086  0.7951  1.4062
 8001TIP3   OH245417   0.204   3.932   3.458  0.3312  0.5922 -0.4203
 8001TIP3    H145418   0.257   3.861   3.496  2.1062  2.2937  0.4241
 8001TIP3    H245419   0.165   3.893   3.380 -1.1434 -2.1845  1.5128
 8002TIP3   OH245420   2.718   3.747   2.168 -0.2451 -0.0838  0.0469
 8002TIP3    H145421   2.672   3.722   2.087  0.5275  0.7017 -0.6645
 8002TIP3    H245422   2.648   3.772   2.228 -0.8074  0.0312 -0.6389
 8003TIP3   OH245423   1.591   3.783   2.702 -0.2760 -0.1903 -0.4438
 8003TIP3    H145424   1.638   3.759   2.623 -0.9118 -1.0294 -0.5762
 8003TIP3    H245425   1.610   3.712   2.764  0.3097  0.5109  0.2114
 8004TIP3   OH245426   5.254   6.504   1.485  0.1441  0.3210 -0.2445
 8004TIP3    H145427   5.291   6.427   1.442  0.4022  0.5569 -0.4503
 8004TIP3    H245428   5.330   6.560   1.503 -0.0033  0.3815  0.2031
 8005TIP3   OH245429   0.856   6.079  11.803 -0.0199 -0.1120  0.8614
 8005TIP3    H145430   0.790   6.117  11.745 -0.2077  0.3749  1.3893
 8005TIP3    H245431   0.899   6.012  11.750  0.2519  0.7653 -0.0709
 8006TIP3   OH245432   4.329   0.937  12.905 -0.6996  0.1349 -0.6526
 8006TIP3    H145433   4.368   1.023  12.921 -0.0490 -0.2202 -0.3075
 8006TIP3    H245434   4.245   0.940  12.950  0.5486 -0.4062  1.8438
 8007TIP3   OH245435   6.605   6.583   0.500  0.0030 -0.5957 -0.1976
 8007TIP3    H145436   6.668   6.595   0.429 -1.1136 -1.5377 -1.3752
 8007TIP3    H245437   6.520   6.602   0.461 -0.5288  0.0921  1.2235
 8008TIP3   OH245438   2.385   5.365  10.996  0.6347  0.2736 -0.5143
 8008TIP3    H145439   2.419   5.290  10.946  1.1071 -0.0941  0.3403
 8008TIP3    H245440   2.376   5.435  10.931 -0.6740 -0.7731 -1.5087
 8009TIP3   OH245441   5.189   1.785   1.065  0.1632 -0.1865  0.1053
 8009TIP3    H145442   5.216   1.858   1.120 -0.9437  0.5774 -0.3342
 8009TIP3    H245443   5.189   1.709   1.123  0.1060  0.3970  0.8794
 8010TIP3   OH245444   4.738   0.507   4.105  0.1858 -0.2049  0.1472
 8010TIP3    H145445   4.815   0.452   4.091  0.3151  0.1213 -0.4466
 8010TIP3    H245446   4.678   0.483   4.034  0.3943  0.6808 -0.3406
 8011TIP3   OH245447   3.949   0.853   4.582 -0.4497 -0.5766  0.0242
 8011TIP3    H145448   3.925   0.942   4.557 -1.7143 -1.7330 -3.5347
 8011TIP3    H245449   3.929   0.848   4.675  3.6565  3.9883  1.5277
 8012TIP3   OH245450   0.734   5.980  14.404 -0.3172 -0.5160  0.7771
 8012TIP3    H145451   0.651   5.973  14.356 -1.3533  1.1697  2.1728
 8012TIP3    H245452   0.796   6.013  14.339 -1.6216  1.4967  0.4512
 8013TIP3   OH245453   1.059   1.348   1.117 -0.1571 -0.1020  0.9079
 8013TIP3    H145454   1.050   1.253   1.120 -1.6202 -0.0196  0.2858
 8013TIP3    H245455   1.025   1.378   1.202  0.9736 -0.1575  1.3928
 8014TIP3   OH245456   2.202   2.419   1.474  0.2692  0.5353  0.3845
 8014TIP3    H145457   2.252   2.500   1.465 -1.7868  1.7615 -1.0226
 8014TIP3    H245458   2.225   2.368   1.396 -0.1538  0.8274  0.0593
 8015TIP3   OH245459   2.731   5.588  15.191 -0.3094  0.0339 -0.0325
 8015TIP3    H145460   2.679   5.628  15.121  1.2237  0.7354 -0.8170
 8015TIP3    H245461   2.714   5.643  15.267 -0.5080  0.4211 -0.3498
 8016TIP3   OH245462   5.794   0.317  10.776  0.4869 -0.7886  0.9335
 8016TIP3    H145463   5.842   0.294  10.856 -0.2022 -1.9660  1.0312
 8016TIP3    H245464   5.842   0.391  10.739  2.7113 -2.2452  0.7373
 8017TIP3   OH245465   5.243   1.999  14.625 -0.4174 -0.4950 -0.9295
 8017TIP3    H145466   5.261   1.909  14.652 -0.0959 -0.2721 -0.3700
 8017TIP3    H245467   5.327   2.044  14.634 -1.0284  0.3856  0.9971
 8018TIP3   OH245468   1.869   2.090  13.667 -0.3721  0.0701  0.0902
 8018TIP3    H145469   1.893   2.008  13.711 -0.5101 -0.2643 -0.4580
 8018TIP3    H245470   1.781   2.109  13.700  0.1440  0.6746  1.1902
 8019TIP3   OH245471   1.343   3.978   5.455  0.2453 -0.1094  0.1798
 8019TIP3    H145472   1.288   4.012   5.384  2.3100  0.8786 -1.0554
 8019TIP3    H245473   1.321   4.032   5.530 -0.4924  0.2376 -0.2701
 8020TIP3   OH245474   3.401   2.099   0.057  0.0848 -0.0145  0.1579
 8020TIP3    H145475   3.327   2.159   0.069  0.8280  1.7942 -3.1553
 8020TIP3    H245476   3.436   2.087   0.145 -1.7451  2.2413  1.3141
 8021TIP3   OH245477   4.486   5.416  11.715 -0.4667 -0.2485 -0.3632
 8021TIP3    H145478   4.515   5.506  11.732  1.7232 -0.8981 -0.3933
 8021TIP3    H245479   4.497   5.372  11.799 -0.0496 -0.8460 -0.7287
 8022TIP3   OH245480   6.249   6.507   3.276 -0.0424 -0.1503  0.4819
 8022TIP3    H145481   6.338   6.510   3.240  0.3277 -2.0329  1.1696
 8022TIP3    H245482   6.193   6.512   3.199  0.6499  0.6948  0.0099
 8023TIP3   OH245483   4.446   6.264  14.342 -0.3446  0.2022 -0.7645
 8023TIP3    H145484   4.365   6.216  14.324 -0.2486  0.5391 -2.1740
 8023TIP3    H245485   4.513   6.196  14.348 -0.4055  0.0679 -1.5845
 8024TIP3   OH245486   3.067   2.781  15.196  0.1817 -0.2091  0.2623
 8024TIP3    H145487   3.149   2.737  15.174  0.1780 -1.6637  2.7424
 8024TIP3    H245488   3.014   2.713  15.239 -1.6836  1.1027  0.1743
 8025TIP3   OH245489   1.334   4.331   2.480 -0.0263  0.2100  0.1801
 8025TIP3    H145490   1.343   4.418   2.520 -3.6981  0.4128  0.8632
 8025TIP3    H245491   1.336   4.271   2.555 -2.7148  0.2308  0.3374
 8026TIP3   OH245492   5.479   1.563  13.709  0.0947  0.2979 -0.8234
 8026TIP3    H145493   5.528   1.640  13.680 -1.3268  1.3684 -0.5292
 8026TIP3    H245494   5.521   1.538  13.791 -0.7606  2.1754  0.2647
 8027TIP3   OH245495   4.081   1.209  13.092  0.1109 -0.2034  0.3107
 8027TIP3    H145496   4.123   1.126  13.114 -0.4778 -0.2237  1.4318
 8027TIP3    H245497   4.004   1.212  13.149  0.6493  1.5509  0.9996
 8028TIP3   OH245498   6.591   2.818  14.549  0.1492 -0.6290 -0.2908
 8028TIP3    H145499   6.608   2.911  14.537  1.0443 -0.8363 -0.7226
 8028TIP3    H245500   6.560   2.810  14.639 -1.5061  0.2896 -0.7442
 8029TIP3   OH245501   5.409   5.783  12.620  0.2119 -0.1661 -0.2661
 8029TIP3    H145502   5.399   5.699  12.664  0.5757  0.9113  2.0388
 8029TIP3    H245503   5.480   5.769  12.557 -1.0716 -2.0642 -1.3752
 8030TIP3   OH245504   0.339   1.434  11.953  0.4228 -0.0186 -0.0395
 8030TIP3    H145505   0.287   1.363  11.991  0.7429 -0.8166 -1.0451
 8030TIP3    H245506   0.394   1.465  12.026  0.7710 -1.2670  0.2576
 8031TIP3   OH245507   2.397   1.489   1.455  0.5492  0.7507 -0.3319
 8031TIP3    H145508   2.465   1.440   1.502  0.7059  1.3167  0.0347
 8031TIP3    H245509   2.403   1.578   1.489 -1.7862  0.3872  1.3219
 8032TIP3   OH245510   6.088   4.034  15.784  0.0456 -0.6522  0.4892
 8032TIP3    H145511   6.159   4.083  15.826  1.3572 -2.7518  0.8795
 8032TIP3    H245512   6.083   4.069  15.695  1.0245  0.0806  0.7108
 8033TIP3   OH245513   3.731   2.759  14.652 -0.3931  0.2895  0.6106
 8033TIP3    H145514   3.722   2.762  14.747 -1.3487 -0.6340  0.5587
 8033TIP3    H245515   3.822   2.731  14.638 -0.2296  0.4860  1.2435
 8034TIP3   OH245516   2.549   3.344  13.285  0.0115  0.8242  0.1732
 8034TIP3    H145517   2.568   3.250  13.287  1.8534  1.1622  1.4706
 8034TIP3    H245518   2.570   3.371  13.196 -1.1775 -0.0802 -0.4081
 8035TIP3   OH245519   3.014   6.284   0.091  0.1506 -0.0370  0.3121
 8035TIP3    H145520   3.093   6.312   0.138  0.6146  2.1562 -1.5578
 8035TIP3    H245521   3.029   6.314   0.001 -1.9446 -1.4212 -0.5664
 8036TIP3   OH245522   6.710   0.287   0.128  0.2431 -0.5666  0.5642
 8036TIP3    H145523   6.734   0.201   0.094 -0.6958 -0.2949 -0.8829
 8036TIP3    H245524   6.654   0.325   0.060 -1.4348  0.1828  2.2655
 8037TIP3   OH245525   1.287   3.648  15.836  0.0502 -0.2575  0.4125
 8037TIP3    H145526   1.204   3.637  15.881 -0.2576  0.3383  0.0068
 8037TIP3    H245527   1.262   3.676  15.747  0.7015  1.1778  0.6535
 8038TIP3   OH245528   3.902   6.728   2.630  0.4973 -0.3578  1.0464
 8038TIP3    H145529   3.904   6.823   2.620  1.7217 -0.3768  0.9868
 8038TIP3    H245530   3.879   6.713   2.721 -0.8671 -0.0455  0.7894
 8039TIP3   OH245531   5.420   5.601   5.254  0.1158  0.1404 -0.4847
 8039TIP3    H145532   5.485   5.658   5.295  1.4406 -0.5197 -1.6038
 8039TIP3    H245533   5.470   5.547   5.194 -1.5697  0.1026 -1.9301
 8040TIP3   OH245534   3.937   0.717   5.712  0.4183 -0.4592  0.0502
 8040TIP3    H145535   3.860   0.661   5.719  0.0448 -0.0463 -0.6402
 8040TIP3    H245536   3.917   0.777   5.640  0.4369  1.1598  1.3387
 8041TIP3   OH245537   4.602   2.201   0.265 -0.0553  0.0509  0.1784
 8041TIP3    H145538   4.637   2.255   0.335 -2.1846  0.1366  1.2528
 8041TIP3    H245539   4.586   2.262   0.193  0.9724  0.1673  0.0239
 8042TIP3   OH245540   6.777   2.151   2.956 -0.3377 -0.2119  0.0322
 8042TIP3    H145541   6.768   2.057   2.966  0.5407 -0.2258  0.9494
 8042TIP3    H245542   6.810   2.181   3.041 -0.4940  0.9071 -0.2780
 8043TIP3   OH245543   5.562   5.028  15.081  0.8374 -0.4809 -0.9004
 8043TIP3    H145544   5.475   5.051  15.048  0.3200 -0.7915  0.1818
 8043TIP3    H245545   5.622   5.057  15.013 -0.0809  0.2131 -1.4471
 8044TIP3   OH245546   2.030   1.130  11.642  0.8962 -0.4486 -0.1274
 8044TIP3    H145547   2.040   1.139  11.737 -2.1533 -0.4392  0.3120
 8044TIP3    H245548   2.016   1.037  11.628  2.0974 -0.5602 -0.7189
 8045TIP3   OH245549   3.995   1.108   3.746  0.3727  0.4333 -0.1053
 8045TIP3    H145550   3.906   1.084   3.772  0.1275  2.9134  1.6462
 8045TIP3    H245551   4.038   1.024   3.729 -2.2501 -0.8259 -0.9420
 8046TIP3   OH245552   0.439   5.593   4.421 -0.7281 -0.4837  0.1554
 8046TIP3    H145553   0.354   5.636   4.429  0.6695  2.2916  1.7736
 8046TIP3    H245554   0.449   5.545   4.503 -0.9065 -1.2146 -0.2429
 8047TIP3   OH245555   1.070   1.260   1.665 -0.6002 -0.6969  0.5330
 8047TIP3    H145556   1.032   1.293   1.747 -0.6260 -0.2887  0.3615
 8047TIP3    H245557   1.007   1.195   1.634 -0.0827 -1.6377  1.3714
 8048TIP3   OH245558   0.227   4.603  11.685  0.1254 -0.6874  0.0923
 8048TIP3    H145559   0.161   4.563  11.742 -0.2186 -1.3281 -0.7212
 8048TIP3    H245560   0.269   4.528  11.641  0.0822 -0.1979 -0.8131
 8049TIP3   OH245561   1.563   0.432  12.229  0.3066  0.4024  0.8246
 8049TIP3    H145562   1.592   0.427  12.320 -1.9280  0.5300  1.6115
 8049TIP3    H245563   1.493   0.497  12.230  1.0580  1.3267 -1.2557
 8050TIP3   OH245564   6.280   3.975   3.964 -0.1502  0.1842  0.0789
 8050TIP3    H145565   6.348   4.019   4.016 -1.2591  1.5291  0.4298
 8050TIP3    H245566   6.198   4.006   4.000 -0.9830 -1.1391 -0.5965
 8051TIP3   OH245567   5.752   6.171  16.675  0.7102  0.2532  0.1060
 8051TIP3    H145568   5.682   6.107  16.687  1.1018 -0.1355  0.3624
 8051TIP3    H245569   5.794   6.146  16.593  1.3378 -0.2838  0.5823
 8052TIP3   OH245570   6.154   6.331   3.785  0.1126  0.5492 -0.1309
 8052TIP3    H145571   6.062   6.352   3.772 -0.4571 -1.5608  0.1219
 8052TIP3    H245572   6.202   6.406   3.750 -1.6810  1.4756 -0.6746
 8053TIP3   OH245573   2.189   4.457   1.873 -0.4935  0.5206  0.6513
 8053TIP3    H145574   2.240   4.382   1.844 -1.2168  0.0425  0.6040
 8053TIP3    H245575   2.255   4.523   1.895  0.1193  0.4017 -0.7121
 8054TIP3   OH245576   5.735   4.060   3.844  0.1872  0.3646  0.4410
 8054TIP3    H145577   5.771   3.972   3.838 -0.7557  0.0499 -1.5328
 8054TIP3    H245578   5.788   4.113   3.784 -0.4346  0.6787  0.1500
 8055TIP3   OH245579   3.667   4.834  17.074  0.0378 -0.2029 -0.3515
 8055TIP3    H145580   3.618   4.904  17.117  0.8146 -0.3426  0.7930
 8055TIP3    H245581   3.713   4.878  17.002  3.6803  1.4245  2.6234
 8056TIP3   OH245582   5.503   6.293   2.181 -0.2029  0.1093 -0.1197
 8056TIP3    H145583   5.507   6.383   2.149 -0.3300 -0.0087 -0.4702
 8056TIP3    H245584   5.435   6.295   2.248 -0.0030  0.3379  0.0768
 8057TIP3   OH245585   3.567   3.173   3.991  0.3608 -0.2155 -0.2161
 8057TIP3    H145586   3.647   3.213   3.958  0.3380  0.0679  0.0695
 8057TIP3    H245587   3.525   3.242   4.043  1.2961 -1.2022  1.9585
 8058TIP3   OH245588   0.971   4.158  15.913  0.0181  0.0133 -0.5123
 8058TIP3    H145589   0.971   4.081  15.856 -0.7417  0.1247 -0.6825
 8058TIP3    H245590   1.006   4.127  15.996 -2.8408 -1.2692  0.3580
 8059TIP3   OH245591   3.794   1.458  13.432  0.0419 -0.1822 -0.4987
 8059TIP3    H145592   3.779   1.543  13.391  0.2737 -0.5436 -1.3582
 8059TIP3    H245593   3.712   1.410  13.418  0.2250 -0.4108 -0.8278
 8060TIP3   OH245594   1.226   1.196  12.807  0.1786  0.3656 -0.8171
 8060TIP3    H145595   1.244   1.120  12.862  2.8164  2.1778  1.0539
 8060TIP3    H245596   1.307   1.210  12.758 -0.5299  1.5474 -1.7088
 8061TIP3   OH245597   5.690   0.431   5.696  0.0194  0.5605  0.5363
 8061TIP3    H145598   5.716   0.455   5.785  0.3188 -1.4823  1.0371
 8061TIP3    H245599   5.719   0.341   5.686 -1.0213  0.3867 -1.2507
 8062TIP3   OH245600   6.194   2.904   1.006 -0.3560  0.2154 -0.4287
 8062TIP3    H145601   6.169   2.989   1.041  0.7253  0.6075 -0.5959
 8062TIP3    H245602   6.129   2.843   1.043  0.8733  0.5370  2.5872
 8063TIP3   OH245603   0.630   2.384   4.344 -0.6109 -0.2552 -0.1958
 8063TIP3    H145604   0.593   2.297   4.327 -0.5517 -0.5343  1.0410
 8063TIP3    H245605   0.725   2.370   4.343 -0.5619  0.0445 -1.1930
 8064TIP3   OH245606   6.181   5.939  16.576 -0.0156  0.3122  0.1660
 8064TIP3    H145607   6.268   5.902  16.589 -0.3285 -0.0259  1.4131
 8064TIP3    H245608   6.171   5.943  16.481  0.7758 -1.0519  0.0002
 8065TIP3   OH245609   2.751   5.697   5.277  0.8564  0.3906  0.2145
 8065TIP3    H145610   2.843   5.700   5.302  0.2595  0.1705  2.6341
 8065TIP3    H245611   2.716   5.618   5.318 -0.4253  0.4296 -0.7133
 8066TIP3   OH245612   2.712   1.346  17.153  0.0479  0.1200  0.0367
 8066TIP3    H145613   2.743   1.431  17.184 -1.9202  0.3747  1.4542
 8066TIP3    H245614   2.689   1.361  17.061  0.9558  0.7458 -0.1043
 8067TIP3   OH245615   3.524   0.257   5.040  0.1866  0.0372  0.2840
 8067TIP3    H145616   3.536   0.162   5.050  1.0928  0.2720  1.7978
 8067TIP3    H245617   3.429   0.268   5.035 -0.0095 -0.8716  1.4729
 8068TIP3   OH245618   5.154   4.605  14.087 -0.4859  0.0562 -0.6823
 8068TIP3    H145619   5.203   4.577  14.009 -0.1873  0.4376 -0.6366
 8068TIP3    H245620   5.109   4.685  14.059  0.7818  1.0324 -0.0612
 8069TIP3   OH245621   2.774   1.861   0.950  0.1382  0.3339  0.1992
 8069TIP3    H145622   2.791   1.937   1.006  1.5575 -0.4259  0.8350
 8069TIP3    H245623   2.746   1.899   0.867 -1.2073  1.4949  1.1359
 8070TIP3   OH245624   3.163   6.336  16.979  0.9152 -0.3080 -0.0955
 8070TIP3    H145625   3.159   6.398  16.906 -0.8826 -0.9627 -0.6125
 8070TIP3    H245626   3.212   6.261  16.943  2.4018  0.4400  0.2806
 8071TIP3   OH245627   1.974   5.512  17.017 -0.2610 -0.4366 -0.5642
 8071TIP3    H145628   1.999   5.505  17.109  0.9974  1.1924 -0.7164
 8071TIP3    H245629   2.058   5.516  16.970 -0.8000  1.4100 -1.4949
 8072TIP3   OH245630   4.694   6.262  17.131 -1.0412 -0.1486  0.1367
 8072TIP3    H145631   4.687   6.338  17.188  0.6407  0.5026 -0.4522
 8072TIP3    H245632   4.629   6.278  17.062 -0.0992  1.2319 -0.4717
 8073TIP3   OH245633   3.555   1.830  14.972 -0.1507  0.3838  0.2034
 8073TIP3    H145634   3.534   1.834  14.879  1.4914  1.4248 -0.1462
 8073TIP3    H245635   3.505   1.755  15.004 -1.4701  0.5735 -1.3069
 8074TIP3   OH245636   3.076   6.679  11.682 -0.1379 -0.2769 -0.3864
 8074TIP3    H145637   3.098   6.626  11.758  0.9558 -0.3985 -0.7639
 8074TIP3    H245638   2.982   6.668  11.670 -1.0348  2.2735  2.8924
 8075TIP3   OH245639   5.516   1.915  12.377 -0.1446 -0.2578 -0.2371
 8075TIP3    H145640   5.557   1.945  12.296  1.8141  0.6526  1.0020
 8075TIP3    H245641   5.422   1.925  12.362  0.2176  1.0019 -1.9686
 8076TIP3   OH245642   0.875   4.897  16.628  0.1573  0.1259 -0.5439
 8076TIP3    H145643   0.847   4.817  16.673 -0.7808  0.5162 -0.4259
 8076TIP3    H245644   0.829   4.968  16.673  1.5963  0.8259 -0.1194
 8077TIP3   OH245645   0.346   6.433  11.438  0.1882  0.3179 -0.2775
 8077TIP3    H145646   0.266   6.486  11.435 -0.3406 -0.5009 -0.7744
 8077TIP3    H245647   0.412   6.488  11.395 -0.6060  0.1621 -1.7373
 8078TIP3   OH245648   1.442   5.229   4.888  0.4336  0.0424  0.3304
 8078TIP3    H145649   1.454   5.195   4.799  0.5756  0.4933  0.1705
 8078TIP3    H245650   1.348   5.242   4.896  0.2686 -1.3176  0.7525
 8079TIP3   OH245651   2.825   1.598  11.774 -0.1617  0.0804  0.4862
 8079TIP3    H145652   2.766   1.674  11.774  0.2033  0.4400 -2.1156
 8079TIP3    H245653   2.778   1.532  11.824 -1.8113  1.0639  0.3117
 8080TIP3   OH245654   4.539   3.211  11.419 -0.0539 -0.2869 -0.0484
 8080TIP3    H145655   4.509   3.300  11.402 -0.2131 -0.0967  1.1216
 8080TIP3    H245656   4.627   3.222  11.454  0.7215 -0.7327 -1.8153
 8081TIP3   OH245657   3.960   2.985   1.261 -0.2131  0.7140 -0.1495
 8081TIP3    H145658   4.012   2.951   1.333  0.7814  0.4950 -0.9446
 8081TIP3    H245659   3.879   2.936   1.264  0.7189 -0.9077 -0.5454
 8082TIP3   OH245660   2.473   2.755   0.143 -0.2869 -0.3968  0.4673
 8082TIP3    H145661   2.445   2.729   0.055 -1.7195  1.3995  0.3412
 8082TIP3    H245662   2.410   2.714   0.202 -0.2723 -0.3129  0.5412
 8083TIP3   OH245663   3.987   2.597   2.494  0.2905 -0.0632 -0.2874
 8083TIP3    H145664   3.967   2.690   2.492 -0.6916 -0.2566  0.0034
 8083TIP3    H245665   4.077   2.592   2.525 -0.8221  0.6619  3.6102
 8084TIP3   OH245666   1.978   6.730  11.658  0.0808 -0.6466  0.3205
 8084TIP3    H145667   1.896   6.716  11.705  0.5312  0.6462  1.5389
 8084TIP3    H245668   2.047   6.718  11.724  0.9560 -2.3128 -0.8010
 8085TIP3   OH245669   1.084   6.458  15.914 -0.1854 -0.3529  0.8483
 8085TIP3    H145670   1.074   6.383  15.972 -2.1882 -1.3924 -0.7334
 8085TIP3    H245671   0.998   6.468  15.872  0.2297  2.3711  0.4381
 8086TIP3   OH245672   0.186   2.442   2.994 -0.7500 -0.2078 -0.4017
 8086TIP3    H145673   0.104   2.464   3.037  0.0351  2.0531  0.1001
 8086TIP3    H245674   0.161   2.383   2.923 -2.6678 -0.2522  0.2452
 8087TIP3   OH245675   1.306   4.274   3.385 -0.3043 -0.1563 -0.1100
 8087TIP3    H145676   1.264   4.188   3.382  0.7737 -0.7932  1.5106
 8087TIP3    H245677   1.277   4.318   3.306 -1.1307 -1.8981 -0.8223
 8088TIP3   OH245678   0.298   2.094   2.187  0.1488 -0.9636 -0.4094
 8088TIP3    H145679   0.209   2.123   2.167  0.3927 -1.1859 -1.9630
 8088TIP3    H245680   0.287   2.012   2.234 -0.4828 -0.2216  0.7777
 8089TIP3   OH245681   5.208   3.418   1.484 -0.5042 -0.3596 -0.2160
 8089TIP3    H145682   5.260   3.338   1.493  1.1795  0.7825  0.4929
 8089TIP3    H245683   5.118   3.386   1.474  0.1100 -2.3406  0.1126
 8090TIP3   OH245684   5.998   0.854   0.192 -0.3889 -0.0470 -0.5195
 8090TIP3    H145685   5.989   0.848   0.097 -0.9229  1.0895 -0.5545
 8090TIP3    H245686   5.908   0.863   0.224 -0.4941 -2.9176  0.3389
 8091TIP3   OH245687   1.778   1.798  10.899 -0.0454  0.2014  0.3295
 8091TIP3    H145688   1.752   1.772  10.810  0.3813  2.3289 -0.4735
 8091TIP3    H245689   1.795   1.715  10.944 -2.8619 -1.0938 -0.7193
 8092TIP3   OH245690   6.345   0.725  11.606  0.1926  0.0444  0.0011
 8092TIP3    H145691   6.395   0.798  11.568  1.5971 -0.8209  0.1173
 8092TIP3    H245692   6.384   0.647  11.566 -2.9096 -0.6148 -2.0834
 8093TIP3   OH245693   4.030   3.715   1.372  0.0605 -0.4451  0.3420
 8093TIP3    H145694   3.966   3.782   1.396 -0.4552 -0.7164 -0.2470
 8093TIP3    H245695   3.978   3.638   1.350  0.5774 -0.5946 -0.4018
 8094TIP3   OH245696   2.970   2.508  14.794 -0.2180  0.1053  0.3983
 8094TIP3    H145697   2.969   2.541  14.704 -0.4336 -1.1606 -0.0851
 8094TIP3    H245698   2.960   2.587  14.849 -5.1650  0.6262 -0.7791
 8095TIP3   OH245699   5.683   4.714   0.382 -0.1872  0.2661 -0.1662
 8095TIP3    H145700   5.729   4.792   0.351  0.4015 -0.2513 -0.6282
 8095TIP3    H245701   5.601   4.712   0.332  0.8822 -0.7221 -1.9621
 8096TIP3   OH245702   1.072   5.541  14.846 -0.5644  0.3074  0.2435
 8096TIP3    H145703   1.109   5.628  14.866  0.7740 -0.3239  0.6411
 8096TIP3    H245704   1.065   5.498  14.931  1.1347 -0.8542 -0.1530
 8097TIP3   OH245705   6.600   5.568  17.045 -0.2066  0.1986 -0.0144
 8097TIP3    H145706   6.578   5.554  17.137  2.3879 -1.6202  0.4489
 8097TIP3    H245707   6.626   5.481  17.013 -3.0841  0.2769 -3.1780
 8098TIP3   OH245708   1.249   5.343   2.790  0.6454 -0.3093  0.1701
 8098TIP3    H145709   1.205   5.391   2.861  2.1075  0.4274  0.6206
 8098TIP3    H245710   1.209   5.256   2.792 -0.5193  0.2086  0.7948
 8099TIP3   OH245711   5.091   6.441   1.023  0.0688  0.1843 -0.0873
 8099TIP3    H145712   5.028   6.488   1.078  0.2634  0.9674 -0.5147
 8099TIP3    H245713   5.039   6.374   0.979  0.0763 -1.0402  1.6951
 8100TIP3   OH245714   6.802   1.200   1.817  0.4247 -0.4216  0.0641
 8100TIP3    H145715   6.741   1.199   1.891  1.4088 -0.5159  0.8915
 8100TIP3    H245716   6.796   1.289   1.783 -0.3403 -0.4945 -0.0090
 8101TIP3   OH245717   1.761   2.807  14.265 -0.0570 -0.1971  0.5230
 8101TIP3    H145718   1.780   2.877  14.203  1.5633  0.6001  1.8216
 8101TIP3    H245719   1.845   2.789  14.307 -1.1183 -0.5344  2.6343
 8102TIP3   OH245720   1.089   6.440   3.352  0.5478 -0.4671 -0.2319
 8102TIP3    H145721   0.994   6.455   3.343  0.1680 -1.4865  1.5904
 8102TIP3    H245722   1.128   6.524   3.326 -0.7877 -0.2610 -1.7643
 8103TIP3   OH245723   1.590   5.628   1.478  0.1405 -0.2119 -0.3938
 8103TIP3    H145724   1.659   5.566   1.503  2.2694  2.1451 -0.0860
 8103TIP3    H245725   1.622   5.668   1.397 -1.0180  0.7306 -0.3988
 8104TIP3   OH245726   0.469   6.266   5.468  0.0561  0.0059  0.0148
 8104TIP3    H145727   0.506   6.201   5.528 -2.8322 -0.3859  1.5495
 8104TIP3    H245728   0.472   6.348   5.517 -1.7836 -0.2049  0.5626
 8105TIP3   OH245729   2.118   0.763   3.900  0.0916 -0.6030  0.0852
 8105TIP3    H145730   2.135   0.737   3.810 -0.0930 -2.2238  0.4830
 8105TIP3    H245731   2.045   0.707   3.928 -0.2470  0.2815  1.0615
 8106TIP3   OH245732   4.953   4.663  16.272 -0.2482 -0.7692 -0.2315
 8106TIP3    H145733   4.977   4.662  16.179 -0.1019  0.8467 -0.2394
 8106TIP3    H245734   5.036   4.681  16.317 -0.6833  0.6021  0.0474
 8107TIP3   OH245735   6.750   2.863   3.292 -0.0981 -0.2738 -0.0005
 8107TIP3    H145736   6.690   2.911   3.348 -1.0767 -1.4162 -0.0189
 8107TIP3    H245737   6.822   2.924   3.275 -0.0499  0.2927  2.0131
 8108TIP3   OH245738   3.817   0.112  11.234 -0.2396 -0.4890  0.0611
 8108TIP3    H145739   3.723   0.101  11.253 -0.3838  1.0959  0.3866
 8108TIP3    H245740   3.820   0.174  11.161  0.5750  0.4338  0.8520
 8109TIP3   OH245741   1.187   3.726  13.150 -0.4230 -0.1856  0.4380
 8109TIP3    H145742   1.240   3.686  13.082 -2.7115  0.0078 -1.5989
 8109TIP3    H245743   1.156   3.652  13.203  0.0119 -0.5087  0.2461
 8110TIP3   OH245744   4.716   3.635  15.641  0.2410  0.0157 -0.2665
 8110TIP3    H145745   4.786   3.636  15.706 -0.1453 -1.4987  0.2130
 8110TIP3    H245746   4.690   3.543  15.636 -2.0219  0.5966 -0.1078
 8111TIP3   OH245747   5.414   5.583   3.696 -0.0834  0.1381 -0.2728
 8111TIP3    H145748   5.390   5.525   3.768 -1.8100  0.7734 -0.2913
 8111TIP3    H245749   5.460   5.656   3.739  1.8720 -1.0438 -0.2263
 8112TIP3   OH245750   3.263   3.729  14.587  0.3118  0.3167  0.4902
 8112TIP3    H145751   3.195   3.772  14.535  1.2265 -0.3857 -1.3471
 8112TIP3    H245752   3.321   3.801  14.615  0.0795  0.6419  0.1486
 8113TIP3   OH245753   4.156   0.405  16.139 -0.3836 -0.3480  0.4027
 8113TIP3    H145754   4.092   0.335  16.150  0.1208 -0.8672  0.0777
 8113TIP3    H245755   4.105   0.485  16.148 -1.0893 -0.7523  0.1372
 8114TIP3   OH245756   4.978   4.737   3.405 -0.8640  0.4675  0.9380
 8114TIP3    H145757   4.982   4.825   3.442 -1.5255 -0.2690  2.9345
 8114TIP3    H245758   4.896   4.701   3.439 -0.1838 -1.2118  0.8948
 8115TIP3   OH245759   3.695   6.488   0.061 -0.7050  0.0431 -0.2615
 8115TIP3    H145760   3.677   6.421  -0.005  0.4070  0.7087 -1.2791
 8115TIP3    H245761   3.666   6.570   0.020 -0.1122  0.4485  0.1279
 8116TIP3   OH245762   0.442   2.935   6.449 -0.0012 -0.2064  0.2698
 8116TIP3    H145763   0.432   2.882   6.370 -0.6474  0.3057  0.0050
 8116TIP3    H245764   0.502   3.005   6.423 -0.2370 -0.0212  0.2314
 8117TIP3   OH245765   3.873   1.659   2.056 -0.2363 -0.3327  0.3116
 8117TIP3    H145766   3.858   1.690   2.145  1.0464  2.3945 -0.3384
 8117TIP3    H245767   3.959   1.693   2.033 -0.2911 -1.4636 -1.8044
 8118TIP3   OH245768   1.070   2.717   3.081 -0.2917 -0.2877  0.4208
 8118TIP3    H145769   1.037   2.757   3.161 -0.9092 -0.9808  0.5322
 8118TIP3    H245770   1.058   2.623   3.095 -2.8369 -0.3701 -1.4552
 8119TIP3   OH245771   0.135   1.029  15.565 -0.0947 -0.1594  0.1438
 8119TIP3    H145772   0.185   0.955  15.529 -2.0191 -2.3974  1.7835
 8119TIP3    H245773   0.186   1.059  15.640  0.4127 -0.1769 -0.1889
 8120TIP3   OH245774   4.628   1.156   2.776  0.0186 -0.1457 -0.6032
 8120TIP3    H145775   4.714   1.147   2.735 -0.0251 -1.7865 -0.4387
 8120TIP3    H245776   4.647   1.163   2.870 -0.0049 -0.0113 -0.6087
 8121TIP3   OH245777   4.412   5.275  13.872  0.1024  0.2397  0.3698
 8121TIP3    H145778   4.385   5.186  13.893 -0.3370  0.4074  0.5223
 8121TIP3    H245779   4.385   5.327  13.948  1.7275  0.2590  0.9645
 8122TIP3   OH245780   0.696   5.563   3.247  0.1619 -0.2804  0.4006
 8122TIP3    H145781   0.712   5.655   3.268 -0.5238 -0.2253  0.7025
 8122TIP3    H245782   0.756   5.515   3.304  0.7742 -0.0241 -0.0024
 8123TIP3   OH245783   4.641   3.278  11.925 -0.0543  0.0441  0.2655
 8123TIP3    H145784   4.736   3.271  11.915 -0.1973 -0.3421 -1.1183
 8123TIP3    H245785   4.626   3.368  11.953  0.5936  0.9556 -2.0233
 8124TIP3   OH245786   0.121   1.276  11.686 -0.0201  0.1682 -0.0449
 8124TIP3    H145787   0.211   1.307  11.675 -0.1533  0.1143 -1.5513
 8124TIP3    H245788   0.095   1.307  11.773  0.9252  1.5356 -0.2191
 8125TIP3   OH245789   0.410   6.149   1.847  0.3867 -0.6227 -0.5986
 8125TIP3    H145790   0.493   6.157   1.799  0.3740 -2.5108 -1.0134
 8125TIP3    H245791   0.342   6.159   1.781  0.2901  0.2591 -0.3707
 8126TIP3   OH245792   1.663   1.710   0.063  0.1554  0.1595  0.2730
 8126TIP3    H145793   1.617   1.742   0.141 -2.0008 -0.7157 -0.5515
 8126TIP3    H245794   1.736   1.658   0.097 -1.2888 -0.9961  1.7663
 8127TIP3   OH245795   5.465   0.321   0.217 -0.1187 -0.1458  0.5031
 8127TIP3    H145796   5.497   0.405   0.185  1.1222 -1.4239 -1.8732
 8127TIP3    H245797   5.392   0.344   0.275 -0.1219  2.5280 -0.4128
 8128TIP3   OH245798   1.861   3.428  12.685 -0.2035  0.0049  0.3075
 8128TIP3    H145799   1.774   3.403  12.655 -0.1183  2.1441 -2.0476
 8128TIP3    H245800   1.921   3.376  12.632 -0.0767  3.0264 -2.9012
 8129TIP3   OH245801   1.283   6.280   0.689 -0.1426  0.2685  0.0635
 8129TIP3    H145802   1.316   6.220   0.756  2.2663  1.6661  0.2541
 8129TIP3    H245803   1.265   6.225   0.614  1.0177 -0.8558  0.5707
 8130TIP3   OH245804   4.896   3.489   5.172 -0.2666  0.5645 -0.2619
 8130TIP3    H145805   4.912   3.502   5.079  0.0788  0.9112 -0.1563
 8130TIP3    H245806   4.864   3.399   5.178 -3.2007  1.4490 -1.0461
 8131TIP3   OH245807   4.117   3.160  11.469 -0.4983  0.2244  0.2275
 8131TIP3    H145808   4.090   3.069  11.481 -0.1462  0.2315  1.1727
 8131TIP3    H245809   4.210   3.161  11.493 -0.6334  0.9354  0.7469
 8132TIP3   OH245810   1.447   1.272   3.987  0.9360  0.2641 -0.6087
 8132TIP3    H145811   1.429   1.308   3.900 -0.1986  1.0268 -0.0959
 8132TIP3    H245812   1.465   1.179   3.972  2.0693  0.6470 -1.7751
 8133TIP3   OH245813   6.357   0.622  13.585 -0.3521  0.5830  0.1555
 8133TIP3    H145814   6.267   0.617  13.554  0.0893 -1.1346 -1.0134
 8133TIP3    H245815   6.401   0.680  13.522 -0.5193  1.0194  0.4366
 8134TIP3   OH245816   2.802   5.404   4.011 -0.2485  0.0081 -0.0400
 8134TIP3    H145817   2.726   5.411   4.070 -0.2889 -1.7426  0.1674
 8134TIP3    H245818   2.848   5.487   4.021  0.2722 -0.5246  3.2680
 8135TIP3   OH245819   2.735   2.529  12.229  0.3635  0.1963 -0.2170
 8135TIP3    H145820   2.813   2.555  12.279  0.5850 -1.0005  0.0766
 8135TIP3    H245821   2.670   2.595  12.253  1.0253  0.7255  0.1909
 8136TIP3   OH245822   4.372   5.350   1.052  0.4485 -0.0299  0.0497
 8136TIP3    H145823   4.346   5.359   1.144  0.8412  1.5634  0.0392
 8136TIP3    H245824   4.464   5.323   1.056  0.2705 -0.6409  0.1123
 8137TIP3   OH245825   2.070   0.486  16.347 -0.1893 -0.1023  0.0169
 8137TIP3    H145826   2.105   0.411  16.298  0.8370  1.2719 -1.4692
 8137TIP3    H245827   2.134   0.502  16.416  0.1767  0.0518 -0.3482
 8138TIP3   OH245828   5.776   4.572   5.716 -0.5570  0.1062 -0.4033
 8138TIP3    H145829   5.828   4.506   5.671 -2.9458 -1.7642 -0.6591
 8138TIP3    H245830   5.796   4.559   5.808  1.0788  0.9751 -0.6071
 8139TIP3   OH245831   2.737   5.272   0.789  0.1196 -0.6582 -0.0078
 8139TIP3    H145832   2.703   5.241   0.873  0.1591 -0.5377  0.0527
 8139TIP3    H245833   2.783   5.197   0.752 -1.2635 -1.2289 -0.6590
 8140TIP3   OH245834   4.538   4.823  11.901  0.4422 -0.4768 -0.3921
 8140TIP3    H145835   4.614   4.766  11.892  1.4432  0.9052 -0.9348
 8140TIP3    H245836   4.516   4.819  11.994  0.4076 -1.8238 -0.4356
 8141TIP3   OH245837   1.620   0.412   5.174  0.0242 -0.1386  0.0174
 8141TIP3    H145838   1.683   0.418   5.246 -0.0981  1.4249  0.0276
 8141TIP3    H245839   1.543   0.371   5.214  0.0769  0.4120  0.7062
 8142TIP3   OH245840   3.571   4.748   3.404 -0.0302  0.3991  0.1087
 8142TIP3    H145841   3.548   4.807   3.476 -1.1533  0.1041  0.0104
 8142TIP3    H245842   3.494   4.750   3.347 -0.5319 -1.9153  0.6055
 8143TIP3   OH245843   6.623   3.872   5.549 -0.2275 -0.0316 -0.1559
 8143TIP3    H145844   6.659   3.789   5.520  1.2530  0.7003 -0.5197
 8143TIP3    H245845   6.659   3.886   5.636 -1.7188 -0.4760  0.5704
 8144TIP3   OH245846   3.664   4.123   1.519  0.6498  0.3763 -0.0780
 8144TIP3    H145847   3.644   4.214   1.538  0.1331  0.2158  0.1803
 8144TIP3    H245848   3.667   4.080   1.605  3.3432  0.6006  0.0217
 8145TIP3   OH245849   1.174   4.468   5.751 -0.0437 -0.2703 -0.2994
 8145TIP3    H145850   1.100   4.440   5.698  0.0185 -1.2006  0.0885
 8145TIP3    H245851   1.175   4.407   5.825  0.6199  0.2327  0.1126
 8146TIP3   OH245852   2.713   3.124   4.825 -0.7878  0.3623  0.1259
 8146TIP3    H145853   2.808   3.132   4.823 -0.8428  1.1337  0.2247
 8146TIP3    H245854   2.695   3.036   4.792  0.0183 -0.2895  1.3437
 8147TIP3   OH245855   0.513   6.674   4.110  0.2908 -0.1006  0.1750
 8147TIP3    H145856   0.471   6.616   4.046  2.4607 -2.4367  0.6693
 8147TIP3    H245857   0.442   6.701   4.168 -0.8606 -2.4075 -0.0366
 8148TIP3   OH245858   5.259   1.707   2.853 -0.2194  0.5175 -0.2173
 8148TIP3    H145859   5.255   1.772   2.923  1.1691 -1.5667  1.9455
 8148TIP3    H245860   5.195   1.737   2.788 -0.4443  3.3671  1.2013
 8149TIP3   OH245861   1.016   3.041   2.081  0.5069 -0.0335 -0.3371
 8149TIP3    H145862   1.044   2.949   2.082 -1.4532 -0.7402 -2.0201
 8149TIP3    H245863   1.019   3.066   1.988 -0.6286  1.0433 -0.1161
 8150TIP3   OH245864   5.653   0.156   2.713 -0.5035  0.0346  0.2427
 8150TIP3    H145865   5.621   0.242   2.741 -1.6314 -0.3075  0.0494
 8150TIP3    H245866   5.749   0.163   2.717 -0.5648  1.5151 -0.4421
 8151TIP3   OH245867   1.419   1.908   4.065  0.0999 -0.0828 -0.1592
 8151TIP3    H145868   1.364   1.983   4.083  0.0925 -0.6490  2.4577
 8151TIP3    H245869   1.358   1.836   4.050  0.1320 -0.1350 -0.0353
 8152TIP3   OH245870   1.027   1.519  13.099  0.3859  0.0422 -0.0071
 8152TIP3    H145871   1.094   1.516  13.167  0.4669  0.1730 -0.0815
 8152TIP3    H245872   1.073   1.494  13.019  0.0658 -1.1972  0.1610
 8153TIP3   OH245873   2.847   2.222   5.625 -0.6538 -0.3444  0.2795
 8153TIP3    H145874   2.892   2.306   5.614 -1.7070  0.2827  0.6053
 8153TIP3    H245875   2.804   2.208   5.541 -2.2933  0.5723  0.9125
 8154TIP3   OH245876   4.874   3.530  12.756  0.0681  0.3489 -0.1174
 8154TIP3    H145877   4.929   3.546  12.679  0.7804 -1.4693 -0.0311
 8154TIP3    H245878   4.924   3.566  12.829  1.5431 -1.9043  0.0566
 8155TIP3   OH245879   1.358   0.366   1.030 -0.1983 -0.2468 -0.4093
 8155TIP3    H145880   1.364   0.421   1.109  0.6869  0.8262 -1.1905
 8155TIP3    H245881   1.309   0.289   1.059  0.8635 -0.2958  1.4188
 8156TIP3   OH245882   4.611   2.707  12.687  0.6064 -0.2105  0.1320
 8156TIP3    H145883   4.633   2.800  12.687  1.7357 -0.4459  1.2149
 8156TIP3    H245884   4.569   2.692  12.603  2.2820  0.8551 -0.9618
 8157TIP3   OH245885   1.768   1.090  11.150  0.3341  0.4288  0.3272
 8157TIP3    H145886   1.699   1.086  11.085 -0.5316 -0.2408  1.2707
 8157TIP3    H245887   1.846   1.114  11.100 -0.4597  0.6850 -0.8279
 8158TIP3   OH245888   4.026   6.205   1.525 -0.2070 -0.3812  0.5036
 8158TIP3    H145889   4.021   6.298   1.506 -1.0247  0.1129  2.7916
 8158TIP3    H245890   3.934   6.177   1.532  0.0183 -0.8164  2.0245
 8159TIP3   OH245891   0.009   1.151   5.664 -0.1677 -0.4419  1.2712
 8159TIP3    H145892   0.032   1.063   5.695 -0.1800 -1.3886 -1.2356
 8159TIP3    H245893  -0.064   1.177   5.720 -0.8927 -2.5091  1.3724
 8160TIP3   OH245894   0.462   1.327  16.936  0.1010  0.0530  0.1751
 8160TIP3    H145895   0.370   1.305  16.950 -0.1424  0.7251 -0.3488
 8160TIP3    H245896   0.498   1.337  17.024 -0.2669 -0.4445  0.3833
 8161TIP3   OH245897   3.566   4.418   0.884 -0.1851 -0.7189  0.3054
 8161TIP3    H145898   3.546   4.463   0.965 -1.9564 -2.0135  0.6479
 8161TIP3    H245899   3.502   4.450   0.821 -0.1854 -1.2663  0.0134
 8162TIP3   OH245900   0.257   1.856  15.848  0.5640  0.3993  0.0491
 8162TIP3    H145901   0.224   1.873  15.760  0.2780  1.8545  0.4095
 8162TIP3    H245902   0.345   1.822  15.835  0.2672 -0.0703 -0.8067
 8163TIP3   OH245903   2.766   3.177   0.630 -0.3990 -0.1379  0.1366
 8163TIP3    H145904   2.813   3.124   0.695 -0.4787  0.3686  0.6244
 8163TIP3    H245905   2.702   3.227   0.682  0.0379  0.8325 -0.2369
 8164TIP3   OH245906   3.644   1.846   4.628 -0.0032  0.8736 -0.0281
 8164TIP3    H145907   3.588   1.890   4.565  0.3032  0.9640 -0.2396
 8164TIP3    H245908   3.595   1.769   4.655  0.7437 -0.3303 -1.9627
 8165TIP3   OH245909   5.555   5.254   5.357 -0.2079  0.0668 -0.0762
 8165TIP3    H145910   5.617   5.269   5.285  1.4214  0.0554  1.2640
 8165TIP3    H245911   5.502   5.180   5.329  0.6567 -0.1813 -1.0989
 8166TIP3   OH245912   2.191   6.795   3.551 -0.2444  0.0712 -0.1454
 8166TIP3    H145913   2.166   6.712   3.592 -0.2251 -0.1070 -0.4903
 8166TIP3    H245914   2.241   6.769   3.474 -1.7376  0.3645 -1.2441
 8167TIP3   OH245915   6.777   4.549   0.401 -0.0295 -0.2733 -0.3762
 8167TIP3    H145916   6.788   4.623   0.341 -0.9284  0.5745  0.4918
 8167TIP3    H245917   6.816   4.475   0.353 -1.4654  0.1809 -2.3916
 8168TIP3   OH245918   0.647   0.567  15.458  0.0815 -0.3873 -0.0948
 8168TIP3    H145919   0.559   0.530  15.446 -0.0633 -0.4354  1.0142
 8168TIP3    H245920   0.686   0.564  15.370  0.4195 -4.0065  0.0242
 8169TIP3   OH245921   3.446   6.752   5.610  0.4066  0.8617  0.3746
 8169TIP3    H145922   3.489   6.667   5.606 -2.7232 -0.8957  0.4359
 8169TIP3    H245923   3.414   6.766   5.521  0.9522  2.0554  0.3498
 8170TIP3   OH245924   1.166   2.461  13.737 -0.5874 -0.0203 -0.4237
 8170TIP3    H145925   1.257   2.442  13.717 -0.4333  0.9969 -0.7144
 8170TIP3    H245926   1.153   2.552  13.712 -1.8496 -0.3227 -0.9715
 8171TIP3   OH245927   3.883   4.593  12.951  0.4886 -0.3791 -0.7932
 8171TIP3    H145928   3.956   4.642  12.913  0.7319 -1.5082 -1.8615
 8171TIP3    H245929   3.919   4.550  13.028 -0.1612  2.4318  1.2107
 8172TIP3   OH245930   3.774   0.408   2.654 -0.2406  0.0066 -0.2021
 8172TIP3    H145931   3.852   0.353   2.667 -0.6027 -0.2037  1.2881
 8172TIP3    H245932   3.802   0.495   2.680 -0.4256 -0.0099  0.0498
 8173TIP3   OH245933   5.905   0.277  16.145 -0.3770  0.3022  0.1854
 8173TIP3    H145934   5.883   0.184  16.131 -1.1770  0.0854  2.4561
 8173TIP3    H245935   6.000   0.281  16.134 -0.4207 -0.6236 -0.6779
 8174TIP3   OH245936   0.732   1.059   3.430  0.4555 -0.0901 -0.2162
 8174TIP3    H145937   0.770   1.099   3.507 -0.6186 -2.2216  1.5391
 8174TIP3    H245938   0.760   1.114   3.357  1.1406  2.2618  1.7143
 8175TIP3   OH245939   2.081   6.537  13.313 -0.0265  0.1033 -0.0632
 8175TIP3    H145940   1.996   6.496  13.299 -0.1372 -0.5396  2.0667
 8175TIP3    H245941   2.144   6.472  13.283 -0.2416 -0.9991  1.7376
 8176TIP3   OH245942   5.685   0.154  14.178 -0.2301 -0.2237  0.4885
 8176TIP3    H145943   5.598   0.193  14.173  0.2713  0.9230  0.4463
 8176TIP3    H245944   5.724   0.191  14.257  0.6811  0.2720 -0.1684
 8177TIP3   OH245945   2.862   5.160  13.948 -0.0053 -0.2796 -0.3717
 8177TIP3    H145946   2.811   5.238  13.972 -1.2281 -0.8575 -0.9923
 8177TIP3    H245947   2.930   5.154  14.015 -0.2921  0.9478  0.0553
 8178TIP3   OH245948   0.562   3.844  13.215  0.0635  0.1888  0.3154
 8178TIP3    H145949   0.582   3.763  13.262  0.1205  0.6533  1.1042
 8178TIP3    H245950   0.525   3.902  13.281  0.4332  0.9612 -0.1386
 8179TIP3   OH245951   3.986   2.858   0.589  0.1472 -0.2486 -0.6772
 8179TIP3    H145952   3.963   2.950   0.573  0.9835 -0.1376 -1.3064
 8179TIP3    H245953   3.902   2.812   0.588 -0.3966  0.6567  0.7649
 8180TIP3   OH245954   5.991   4.518  15.144  0.7608 -0.2802  0.0329
 8180TIP3    H145955   5.915   4.566  15.113  0.8738 -0.3434 -0.3471
 8180TIP3    H245956   5.966   4.426  15.137  1.6167 -0.3949 -2.1081
 8181TIP3   OH245957   1.770   3.375  14.353 -0.0166  0.6446 -0.2328
 8181TIP3    H145958   1.853   3.419  14.332  0.3567  0.1803  0.2232
 8181TIP3    H245959   1.739   3.419  14.432  1.0326 -0.7359  1.0072
 8182TIP3   OH245960   2.285   4.891   1.335 -0.5150  0.2897  0.1305
 8182TIP3    H145961   2.220   4.836   1.290  0.4595 -0.4246 -0.4367
 8182TIP3    H245962   2.348   4.829   1.371  0.0268  0.9868  0.4029
 8183TIP3   OH245963   1.294   0.495   5.499  0.0808  0.1249 -0.6999
 8183TIP3    H145964   1.315   0.571   5.445  0.7935  1.3311  1.1811
 8183TIP3    H245965   1.364   0.433   5.481  1.0855  1.0730 -0.1737
 8184TIP3   OH245966   1.364   0.635  12.413 -0.2166  0.1696  0.2396
 8184TIP3    H145967   1.332   0.700  12.476 -1.2860 -0.1935  0.0796
 8184TIP3    H245968   1.293   0.572  12.405 -0.3704  0.5327 -1.7892
 8185TIP3   OH245969   4.359   1.051  15.230  0.4408  0.5035 -0.4007
 8185TIP3    H145970   4.284   1.060  15.289 -0.7983  0.6632 -1.9465
 8185TIP3    H245971   4.425   1.005  15.282 -0.8687  0.0044  0.8784
 8186TIP3   OH245972   4.512   0.038   5.321 -0.4447 -0.5575  0.1477
 8186TIP3    H145973   4.513   0.042   5.225 -1.9905  0.0574  0.1237
 8186TIP3    H245974   4.479  -0.050   5.341 -1.2146 -0.2917  0.0815
 8187TIP3   OH245975   0.362   3.474  17.148  0.3786  0.1584 -0.0450
 8187TIP3    H145976   0.397   3.500  17.062 -0.4018 -0.2483 -0.4967
 8187TIP3    H245977   0.272   3.504  17.147 -0.6649 -2.7205 -0.7186
 8188TIP3   OH245978   5.253   5.682  11.027  0.2657 -0.4259  0.2455
 8188TIP3    H145979   5.171   5.689  10.978  0.8671  1.2166 -0.5856
 8188TIP3    H245980   5.251   5.756  11.088  1.0925 -0.4175  0.2751
 8189TIP3   OH245981   2.045   6.291   4.924  0.4753 -0.4571 -0.1863
 8189TIP3    H145982   2.010   6.336   4.847 -0.9206 -0.0041  0.6715
 8189TIP3    H245983   2.053   6.199   4.897  0.8509 -0.1541 -1.1365
 8190TIP3   OH245984   6.290   6.404  15.632  0.0862 -0.2189  0.0127
 8190TIP3    H145985   6.273   6.448  15.715 -0.3289 -1.0149  0.3642
 8190TIP3    H245986   6.253   6.462  15.565 -2.3512 -0.9573  0.6135
 8191TIP3   OH245987   4.982   4.741   3.874  0.1044  0.1629  0.6343
 8191TIP3    H145988   4.916   4.808   3.854  0.7228  0.8684  0.9202
 8191TIP3    H245989   5.026   4.774   3.952  1.7982  0.4568 -0.4000
 8192TIP3   OH245990   0.503   5.608  11.614  0.2840 -0.5278 -0.3420
 8192TIP3    H145991   0.500   5.603  11.710 -1.0963  0.6777 -0.2987
 8192TIP3    H245992   0.412   5.612  11.587  0.6790  0.1142 -1.6680
 8193TIP3   OH245993   6.539   3.372  14.627  0.2595  0.1683  0.1798
 8193TIP3    H145994   6.601   3.348  14.696  0.1617 -1.6252 -0.3196
 8193TIP3    H245995   6.474   3.426  14.671  0.8919  0.1084  1.2201
 8194TIP3   OH245996   0.341   1.514  13.746  0.1670  0.2861 -0.0228
 8194TIP3    H145997   0.354   1.436  13.692 -0.7581 -0.2417  0.4870
 8194TIP3    H245998   0.429   1.538  13.775  0.4409 -0.7183  0.0286
 8195TIP3   OH245999   3.109   0.296  13.847  0.3652  0.0793  0.0528
 8195TIP3    H146000   3.015   0.279  13.845  0.4575 -0.4200 -1.1009
 8195TIP3    H246001   3.132   0.295  13.940 -0.0403 -3.8600  0.2745
 8196TIP3   OH246002   1.160   2.487  15.529  0.2674  0.2401 -0.0030
 8196TIP3    H146003   1.088   2.425  15.512 -0.1840  1.1490 -1.5878
 8196TIP3    H246004   1.116   2.569  15.549  0.8783  0.3314  1.0063
 8197TIP3   OH246005   4.339   6.629  13.266 -0.1641  0.6381 -0.1469
 8197TIP3    H146006   4.272   6.698  13.267 -0.3967  0.4086  1.2236
 8197TIP3    H246007   4.357   6.611  13.358  0.5559 -0.5071 -0.4902
 8198TIP3   OH246008   3.842   2.637   3.646 -0.4126  0.7012 -0.1306
 8198TIP3    H146009   3.794   2.562   3.609  0.0726  0.1386  0.3474
 8198TIP3    H246010   3.788   2.713   3.625 -3.5083 -0.1894  3.4592
 8199TIP3   OH246011   1.169   2.810  16.437  0.7557  0.1327 -0.3414
 8199TIP3    H146012   1.195   2.886  16.386  2.0367  0.6127  0.9636
 8199TIP3    H246013   1.169   2.738  16.374 -1.4871  1.3191 -1.8397
 8200TIP3   OH246014   5.815   6.477  14.468 -0.1008 -0.0600 -0.2731
 8200TIP3    H146015   5.737   6.526  14.440  0.0011  0.2780  0.0223
 8200TIP3    H246016   5.834   6.511  14.555  1.3282  1.0322 -0.9710
 8201TIP3   OH246017   0.147   5.655   2.169  0.5504  0.6340  0.2004
 8201TIP3    H146018   0.204   5.583   2.142  0.1442 -0.9116  3.1212
 8201TIP3    H246019   0.059   5.623   2.151  0.4198  1.1764 -0.1478
 8202TIP3   OH246020   1.213   6.123   6.052  0.3177 -0.2624  0.1225
 8202TIP3    H146021   1.149   6.057   6.025 -0.3766 -0.2517  1.6780
 8202TIP3    H246022   1.165   6.206   6.050  1.0825  0.1887 -1.4517
 8203TIP3   OH246023   3.665   6.415  12.950  0.0299  0.5890  0.0433
 8203TIP3    H146024   3.752   6.448  12.975 -0.3344  1.6652 -0.0588
 8203TIP3    H246025   3.680   6.368  12.868  0.9130 -1.3557  1.2482
 8204TIP3   OH246026   3.469   0.245   5.866  0.5509 -0.7480  0.5291
 8204TIP3    H146027   3.450   0.338   5.858  0.0373 -0.8734  0.2585
 8204TIP3    H246028   3.488   0.216   5.777  1.1139 -0.8203  0.6682
 8205TIP3   OH246029   3.307   0.903  15.751  0.6055 -0.5393 -0.3425
 8205TIP3    H146030   3.385   0.900  15.808  0.9015 -1.9844 -0.7645
 8205TIP3    H246031   3.267   0.988  15.769  2.9476  0.7878 -0.9964
 8206TIP3   OH246032   3.508   0.342   6.371  0.0177  0.0564  0.4925
 8206TIP3    H146033   3.566   0.357   6.445 -1.7740  0.6734  1.8444
 8206TIP3    H246034   3.421   0.335   6.409 -0.6335 -3.1730 -1.1669
 8207TIP3   OH246035   3.136   3.134   1.370  0.2449  0.0939  0.3780
 8207TIP3    H146036   3.087   3.198   1.421 -0.0373  1.1779 -1.1709
 8207TIP3    H246037   3.225   3.169   1.366 -0.5368  2.1490 -3.0048
 8208TIP3   OH246038   5.819   4.182   4.822  0.0345  0.1486 -0.4231
 8208TIP3    H146039   5.748   4.216   4.766 -0.6023 -0.0123  0.2764
 8208TIP3    H246040   5.879   4.257   4.831 -0.3163  0.4554 -0.5838
 8209TIP3   OH246041   1.219   4.691  15.985  0.1981  0.3744  0.7111
 8209TIP3    H146042   1.178   4.731  15.908  1.7016  1.9140  0.6613
 8209TIP3    H246043   1.162   4.717  16.058  0.4316  1.5336  0.4999
 8210TIP3   OH246044   4.229   5.645   4.119 -0.1685 -0.3396  0.0615
 8210TIP3    H146045   4.318   5.652   4.084  0.0434  1.2357  0.8403
 8210TIP3    H246046   4.173   5.680   4.049 -0.1455 -0.8452 -0.2195
 8211TIP3   OH246047   5.956   2.387  10.953 -0.1626 -0.1473 -0.2869
 8211TIP3    H146048   5.903   2.426  10.884 -1.9643 -0.3898  0.8916
 8211TIP3    H246049   5.969   2.296  10.924 -0.9108 -0.2501 -0.3208
 8212TIP3   OH246050   2.213   1.767   2.010  0.3125 -0.4268 -0.4316
 8212TIP3    H146051   2.180   1.818   2.084  2.2632 -0.2084  0.3681
 8212TIP3    H246052   2.176   1.810   1.933 -1.5537 -0.4896  0.3661
 8213TIP3   OH246053   5.391   5.804   0.490 -0.2149  0.1975 -0.0010
 8213TIP3    H146054   5.343   5.803   0.408 -0.2918  1.3350  0.0049
 8213TIP3    H246055   5.476   5.765   0.469 -1.3513 -2.5387  0.1707
 8214TIP3   OH246056   2.543   1.176   4.193 -0.6847  0.2597 -0.5582
 8214TIP3    H146057   2.450   1.184   4.211 -0.6395 -0.9289  0.3420
 8214TIP3    H246058   2.550   1.179   4.098 -1.4870  1.6816 -0.5827
 8215TIP3   OH246059   1.858   0.705  12.920 -0.1413 -0.1950 -0.0674
 8215TIP3    H146060   1.930   0.705  12.984  1.2981 -0.0040 -1.6135
 8215TIP3    H246061   1.787   0.751  12.965  0.8384  0.0076  1.3682
 8216TIP3   OH246062   1.290   3.651   6.363 -0.4230  0.3506  0.2551
 8216TIP3    H146063   1.243   3.682   6.441 -0.9839  0.6109 -0.1809
 8216TIP3    H246064   1.381   3.676   6.378 -0.7918  1.8626  0.0879
 8217TIP3   OH246065   2.458   4.262   6.078  0.0184 -0.1784  0.1110
 8217TIP3    H146066   2.410   4.223   6.151 -1.4624 -0.6370 -1.0440
 8217TIP3    H246067   2.546   4.226   6.085 -0.5445 -1.5049  0.7249
 8218TIP3   OH246068   4.770   5.904   5.296  0.4486  0.3417  0.0628
 8218TIP3    H146069   4.719   5.942   5.224 -1.2697  0.6985  1.4211
 8218TIP3    H246070   4.810   5.826   5.257 -1.4111 -0.1507 -1.0191
 8219TIP3   OH246071   6.671   0.729   6.447  0.2485 -0.3041 -0.1106
 8219TIP3    H146072   6.580   0.757   6.438 -0.0969 -1.4380 -0.2748
 8219TIP3    H246073   6.704   0.779   6.521 -0.2779  0.6737 -0.5106
 8220TIP3   OH246074   4.225   0.228   2.988  0.7971  0.3201 -0.1657
 8220TIP3    H146075   4.219   0.157   2.924 -2.0217  1.3854 -1.2417
 8220TIP3    H246076   4.176   0.195   3.063  0.0157  0.8644 -0.4293
 8221TIP3   OH246077   3.090   0.543   0.240 -0.9917  0.2370 -0.4631
 8221TIP3    H146078   3.007   0.494   0.240 -0.7296 -0.2306  0.2461
 8221TIP3    H246079   3.120   0.538   0.331  0.6586 -1.0754 -1.0322
 8222TIP3   OH246080   3.488   5.063  15.972  0.1307 -0.3154  0.3246
 8222TIP3    H146081   3.508   4.970  15.973  0.1617 -0.3144  1.2037
 8222TIP3    H246082   3.542   5.099  16.043 -1.2632  0.0602  1.2314
 8223TIP3   OH246083   4.285   3.326   1.708  0.1509 -0.5124  0.1027
 8223TIP3    H146084   4.313   3.411   1.741 -1.4123  0.9345 -2.0233
 8223TIP3    H246085   4.355   3.298   1.650 -1.1238  1.6118 -2.7531
 8224TIP3   OH246086   0.122   0.020  15.513  0.3780 -0.1617 -0.5795
 8224TIP3    H146087   0.205   0.046  15.553  0.3911 -1.4074  0.2928
 8224TIP3    H246088   0.062   0.010  15.588 -0.7261  1.2334 -1.2345
 8225TIP3   OH246089   6.301   4.006  11.078 -0.0309  0.0893 -0.3640
 8225TIP3    H146090   6.311   3.913  11.098  1.1292 -0.0525 -1.4272
 8225TIP3    H246091   6.371   4.049  11.128 -0.5204  0.3888  0.0722
 8226TIP3   OH246092   0.857   3.788  14.319 -0.1617 -0.3447  0.0040
 8226TIP3    H146093   0.903   3.715  14.277  0.5730 -0.8285  1.5825
 8226TIP3    H246094   0.878   3.864  14.265  0.0542 -1.0719 -0.9694
 8227TIP3   OH246095   6.343   3.954  16.784  0.1387  0.7586 -0.4880
 8227TIP3    H146096   6.355   4.041  16.823 -0.3153  1.5071 -1.9293
 8227TIP3    H246097   6.251   3.952  16.757 -0.1581 -0.6294  0.5398
 8228TIP3   OH246098   6.393   0.551   2.177  0.7243  0.0502 -0.0350
 8228TIP3    H146099   6.427   0.510   2.097 -1.6739 -0.7368 -0.7209
 8228TIP3    H246100   6.309   0.509   2.192 -0.4401  2.5686  1.0252
 8229TIP3   OH246101   2.126   4.009   1.792 -0.4212  0.2156 -0.2872
 8229TIP3    H146102   2.118   3.919   1.760 -0.5162  0.2983 -0.5025
 8229TIP3    H246103   2.072   4.012   1.871  2.7811 -1.0266  2.1589
 8230TIP3   OH246104   6.688   0.023  15.951 -0.0597  0.0910 -0.0513
 8230TIP3    H146105   6.596   0.009  15.972 -0.0431  1.9519  1.5592
 8230TIP3    H246106   6.735  -0.035  16.011 -0.1549 -0.3822 -0.4274
 8231TIP3   OH246107   4.938   6.380   4.074 -0.0106 -0.3845  0.3362
 8231TIP3    H146108   4.886   6.336   4.142 -1.4307  1.0392  0.2652
 8231TIP3    H246109   5.017   6.410   4.120  0.3980 -1.8972  0.6540
 8232TIP3   OH246110   4.436   4.842   5.329 -0.2470 -0.1105  0.3921
 8232TIP3    H146111   4.518   4.792   5.325 -0.5714 -0.6898  0.8057
 8232TIP3    H246112   4.368   4.776   5.312 -0.6072  0.4276 -0.2811
 8233TIP3   OH246113   1.251   0.727  14.570  0.2418 -0.3490 -0.4770
 8233TIP3    H146114   1.209   0.804  14.610 -0.0047 -0.2971 -0.8297
 8233TIP3    H246115   1.337   0.758  14.542  0.6590 -0.5414  0.5535
 8234TIP3   OH246116   3.278   2.132   4.227  0.1098 -0.0472 -0.7758
 8234TIP3    H146117   3.183   2.122   4.229  0.1731 -0.7067 -0.8682
 8234TIP3    H246118   3.292   2.218   4.186 -0.4371 -0.1858 -1.2744
 8235TIP3   OH246119   3.659   6.756   0.442  0.9388  0.5516  0.2378
 8235TIP3    H146120   3.642   6.663   0.427  0.2346  0.5158  1.1658
 8235TIP3    H246121   3.573   6.798   0.434  1.2252  1.1005 -0.0079
 8236TIP3   OH246122   6.473   2.599  11.347  0.0645 -0.2612 -0.1894
 8236TIP3    H146123   6.546   2.612  11.408 -0.2248 -1.8604  0.5428
 8236TIP3    H246124   6.507   2.630  11.263  1.6267 -0.9729  0.1308
 8237TIP3   OH246125   5.373   1.313  15.743 -0.6893 -0.1162 -0.3835
 8237TIP3    H146126   5.440   1.363  15.789 -0.3660 -1.1865  0.3489
 8237TIP3    H246127   5.310   1.288  15.811 -0.4694 -1.2992 -0.5838
 8238TIP3   OH246128   2.767   3.405   4.436 -0.2684  0.0608 -0.6785
 8238TIP3    H146129   2.812   3.456   4.368 -0.5791 -0.4508 -1.2745
 8238TIP3    H246130   2.753   3.468   4.507  1.3723  0.2433 -0.4685
 8239TIP3   OH246131   4.957   2.823  12.118  0.6987  0.8040 -0.0772
 8239TIP3    H146132   5.041   2.778  12.133  0.1340  0.2827  1.8731
 8239TIP3    H246133   4.895   2.776  12.174 -0.7634  1.5941 -0.9926
 8240TIP3   OH246134   1.263   6.331   4.416  0.2861  0.3866 -0.3314
 8240TIP3    H146135   1.182   6.359   4.372  1.1723  1.9941 -1.0175
 8240TIP3    H246136   1.248   6.349   4.509  0.7046  3.0616 -0.7044
 8241TIP3   OH246137   5.160   0.928   2.757 -0.1611 -0.3322  0.4086
 8241TIP3    H146138   5.094   0.885   2.812  1.3400  0.4752  3.0149
 8241TIP3    H246139   5.187   0.861   2.694 -1.5757 -1.4907  0.9706
 8242TIP3   OH246140   5.401   4.492   4.793 -0.4114  0.1323  0.4426
 8242TIP3    H146141   5.353   4.545   4.729 -1.2540 -0.8769  0.2093
 8242TIP3    H246142   5.333   4.453   4.848  0.2515  0.1660  1.3241
 8243TIP3   OH246143   4.173   0.530  11.424  0.0506  0.1346  0.1308
 8243TIP3    H146144   4.159   0.537  11.329  1.4927  1.2188 -0.0343
 8243TIP3    H246145   4.207   0.441  11.437  1.0673  0.3988 -0.5664
 8244TIP3   OH246146   3.364   1.865   6.056  0.0987  0.1058  0.2796
 8244TIP3    H146147   3.435   1.927   6.040  0.0882 -0.1124 -0.6970
 8244TIP3    H246148   3.396   1.783   6.018 -0.5036 -0.0963  0.2057
 8245TIP3   OH246149   4.515   6.522   5.763  0.4062 -0.3812  0.7313
 8245TIP3    H146150   4.524   6.481   5.676  1.5350  1.0003  0.1593
 8245TIP3    H246151   4.565   6.465   5.821  0.3207 -0.8785  0.3234
 8246TIP3   OH246152   4.835   2.844  16.927  0.2976 -0.1579  0.4286
 8246TIP3    H146153   4.926   2.859  16.951  0.4169 -0.4394  0.1565
 8246TIP3    H246154   4.838   2.771  16.865  0.1290  1.2166 -1.2985
 8247TIP3   OH246155   6.658   6.243   1.550 -0.0752  0.7250 -0.2593
 8247TIP3    H146156   6.744   6.227   1.511  0.3050  0.1121  0.7831
 8247TIP3    H246157   6.648   6.173   1.615 -1.6225  0.4328 -0.7667
 8248TIP3   OH246158   1.132   5.122   4.668  0.1952 -0.0416  0.5265
 8248TIP3    H146159   1.203   5.156   4.613  1.2072 -0.2804  1.6440
 8248TIP3    H246160   1.159   5.032   4.688 -0.5083 -0.1905  0.8265
 8249TIP3   OH246161   0.514   1.953   0.374  0.0094 -0.0621  0.2032
 8249TIP3    H146162   0.481   1.874   0.331 -2.1999  0.6785  0.3850
 8249TIP3    H246163   0.468   1.955   0.458 -0.5578  1.7775 -0.1099
 8250TIP3   OH246164   6.456   0.394   1.973  0.1219 -0.2630 -0.1818
 8250TIP3    H146165   6.391   0.411   1.904  0.2854 -0.2114 -0.3218
 8250TIP3    H246166   6.414   0.328   2.029  0.5262 -1.3121 -1.0806
 8251TIP3   OH246167   0.174   2.277  15.988 -0.0664 -0.1791  0.0374
 8251TIP3    H146168   0.204   2.282  16.079  0.2760 -2.7561  0.1499
 8251TIP3    H246169   0.247   2.235  15.941 -0.2728  1.0206 -1.4315
 8252TIP3   OH246170   4.966   2.218   5.547 -0.4134 -0.0624  0.0514
 8252TIP3    H146171   5.053   2.211   5.507  0.8089 -0.9893  2.6956
 8252TIP3    H246172   4.911   2.160   5.493  1.2543 -1.6256 -0.0660
 8253TIP3   OH246173   5.921   2.916   2.143 -0.0465 -0.1804  0.2054
 8253TIP3    H146174   5.944   2.993   2.196  0.5669 -0.9351  1.0615
 8253TIP3    H246175   5.830   2.930   2.118  0.1293  0.9423  0.1424
 8254TIP3   OH246176   6.221   5.516  16.856 -0.1590  0.2493  0.4184
 8254TIP3    H146177   6.180   5.602  16.856  1.2777  0.9691  1.1863
 8254TIP3    H246178   6.306   5.530  16.812  0.1453 -0.7364  0.6629
 8255TIP3   OH246179   0.667   3.608  13.459 -0.1871 -0.3869 -0.4321
 8255TIP3    H146180   0.695   3.684  13.510  0.1318  0.2777 -1.5704
 8255TIP3    H246181   0.700   3.533  13.509  0.7981  0.2681 -0.0502
 8256TIP3   OH246182   1.418   5.140   4.104  0.4275  0.6524 -0.0079
 8256TIP3    H146183   1.497   5.185   4.072  1.5999  0.3502  2.2805
 8256TIP3    H246184   1.348   5.205   4.093  0.6111  0.4940 -3.2879
 8257TIP3   OH246185   4.116   6.236   2.663 -0.2234  0.2577  0.2383
 8257TIP3    H146186   4.152   6.312   2.616  1.4975 -2.2884 -3.0284
 8257TIP3    H246187   4.083   6.179   2.594 -1.5796 -1.9337  2.5410
 8258TIP3   OH246188   5.765   6.250   2.416 -0.6005 -0.1215 -0.0181
 8258TIP3    H146189   5.807   6.316   2.360  1.3469  0.7874  2.3296
 8258TIP3    H246190   5.694   6.297   2.459 -1.5880 -0.6043 -1.0853
 8259TIP3   OH246191   6.624   5.312  16.338 -0.3999 -0.0485 -0.1376
 8259TIP3    H146192   6.675   5.257  16.278  0.1077  0.8637 -0.5806
 8259TIP3    H246193   6.536   5.274  16.337  0.2966 -1.7974  0.8168
 8260TIP3   OH246194   1.853   4.222   4.789  0.1305  0.2350  0.5201
 8260TIP3    H146195   1.916   4.289   4.762  1.7307 -0.7605  1.6587
 8260TIP3    H246196   1.810   4.259   4.867 -1.7467  1.4811 -1.0102
 8261TIP3   OH246197   2.635   1.684   1.086 -0.4607 -0.0062 -0.1798
 8261TIP3    H146198   2.686   1.704   1.008  0.0793  0.2789  0.2474
 8261TIP3    H246199   2.585   1.763   1.103 -0.7036 -0.1254 -0.3272
 8262TIP3   OH246200   6.240   5.037   0.909  0.0228  0.7510 -0.0246
 8262TIP3    H146201   6.329   5.071   0.912  0.0144  0.9802 -1.4605
 8262TIP3    H246202   6.231   4.984   0.988  2.7456 -2.4209 -1.5973
 8263TIP3   OH246203   0.384   1.602   1.674 -0.4038 -0.5394 -0.6202
 8263TIP3    H146204   0.299   1.632   1.704  0.6790  1.0996  1.0631
 8263TIP3    H246205   0.412   1.668   1.611  0.7608  0.5423  0.9426
 8264TIP3   OH246206   4.788   1.610   4.536 -0.0979 -0.4674  0.6151
 8264TIP3    H146207   4.731   1.670   4.585  1.0168  0.4450  0.8506
 8264TIP3    H246208   4.730   1.564   4.476 -0.8157  1.9880 -0.7073
 8265TIP3   OH246209   4.731   2.315   0.495  0.1638 -0.4095  0.0170
 8265TIP3    H146210   4.726   2.409   0.480 -1.1421 -0.6346 -1.1221
 8265TIP3    H246211   4.741   2.306   0.589 -0.1672  0.8529  0.1856
 8266TIP3   OH246212   3.427   0.595  12.289 -0.3424  0.2782 -0.0652
 8266TIP3    H146213   3.498   0.540  12.321 -0.5639  0.5853  0.9689
 8266TIP3    H246214   3.381   0.540  12.225  1.5347  0.4765 -1.6811
 8267TIP3   OH246215   1.644   4.632  16.975 -0.2906  0.2559 -0.1564
 8267TIP3    H146216   1.652   4.695  17.046 -2.7528  1.8755 -1.1863
 8267TIP3    H246217   1.622   4.550  17.018 -0.1485  0.8250  1.0423
 8268TIP3   OH246218   6.672   5.069   1.247 -0.3796  0.5442 -0.1016
 8268TIP3    H146219   6.682   4.991   1.193  0.3018 -0.0581  0.8476
 8268TIP3    H246220   6.645   5.138   1.187 -3.8718 -1.0355 -0.5573
 8269TIP3   OH246221   1.947   2.625  11.699 -0.5727 -0.3331 -0.0484
 8269TIP3    H146222   2.001   2.676  11.639 -0.5817 -1.2881 -0.9003
 8269TIP3    H246223   1.932   2.683  11.774 -0.6174  0.9199 -0.9907
 8270TIP3   OH246224   3.803   1.487   0.477 -0.0469  0.1236  0.0057
 8270TIP3    H146225   3.826   1.531   0.559 -0.5518  2.6141 -1.0950
 8270TIP3    H246226   3.837   1.398   0.487  2.8611  1.2733  1.6029
 8271TIP3   OH246227   3.948   3.672   3.416  0.0337 -0.3337 -0.2399
 8271TIP3    H146228   3.897   3.614   3.473 -0.6790  0.2465 -0.2627
 8271TIP3    H246229   3.882   3.726   3.372  0.6746  0.5280 -0.1743
 8272TIP3   OH246230   4.340   3.146  15.833 -0.3817  0.4787  0.0076
 8272TIP3    H146231   4.314   3.211  15.897 -0.7189  0.1253  0.2359
 8272TIP3    H246232   4.433   3.162  15.818 -0.5883  1.3756 -0.3708
 8273TIP3   OH246233   3.321   2.989  17.031 -0.5285 -0.0997 -0.0498
 8273TIP3    H146234   3.400   2.937  17.019 -0.0880  0.5992 -0.2453
 8273TIP3    H246235   3.256   2.948  16.974 -0.6777 -1.3898  0.9792
 8274TIP3   OH246236   0.515   1.282   0.733  0.2468 -0.4286  0.2138
 8274TIP3    H146237   0.487   1.297   0.643 -0.2077 -2.0882  0.0377
 8274TIP3    H246238   0.555   1.195   0.732  1.3146  0.0098  1.3937
 8275TIP3   OH246239   4.708   4.171  15.650 -0.2038 -0.9988 -0.0194
 8275TIP3    H146240   4.655   4.226  15.592  0.6914 -0.9111 -0.7941
 8275TIP3    H246241   4.668   4.180  15.736 -0.2878  0.6149 -0.1921
 8276TIP3   OH246242   0.983   3.035   4.975 -0.1175 -0.4633  0.2182
 8276TIP3    H146243   0.951   2.949   4.949  0.0015 -1.0061  1.7583
 8276TIP3    H246244   0.935   3.096   4.919 -3.0198 -1.3253  1.5680
 8277TIP3   OH246245   4.175   0.461   5.935  0.0317 -0.4828 -0.0892
 8277TIP3    H146246   4.092   0.498   5.964  1.0051  1.9147 -0.1481
 8277TIP3    H246247   4.151   0.401   5.863 -1.6267  0.1693 -0.1185
 8278TIP3   OH246248   6.624   2.916   1.985 -0.2912 -0.0246 -0.0125
 8278TIP3    H146249   6.677   2.964   1.922  1.7569  0.2492  1.8079
 8278TIP3    H246250   6.542   2.966   1.991  0.6732  1.6521 -0.2458
 8279TIP3   OH246251   4.426   4.270   4.566  0.0657 -0.1622 -0.1980
 8279TIP3    H146252   4.515   4.234   4.565  0.4069  0.5411  1.4650
 8279TIP3    H246253   4.435   4.355   4.521  0.5626  0.5281  1.1428
 8280TIP3   OH246254   4.090   5.969  15.943 -0.2446 -0.5385 -0.0780
 8280TIP3    H146255   4.146   5.943  16.016  0.4318  1.2029  0.0743
 8280TIP3    H246256   4.100   5.898  15.879  1.7916 -0.5082  0.1381
 8281TIP3   OH246257   5.727   5.039  12.199 -0.3812 -0.1117  0.1735
 8281TIP3    H146258   5.783   5.115  12.218 -1.3063  0.5266  0.4453
 8281TIP3    H246259   5.666   5.035  12.274  0.3177 -1.7750  0.6899
 8282TIP3   OH246260   2.846   6.769   4.098  0.4608 -0.3561 -0.1742
 8282TIP3    H146261   2.878   6.823   4.026  3.9275 -0.1530  1.3175
 8282TIP3    H246262   2.918   6.709   4.117 -0.5442 -0.8141  2.7107
 8283TIP3   OH246263   1.116   0.198  15.149 -0.6462  0.1564 -0.3445
 8283TIP3    H146264   1.098   0.253  15.226  0.4630  1.8882 -1.2728
 8283TIP3    H246265   1.191   0.239  15.107  0.2972 -2.1560 -1.0646
 8284TIP3   OH246266   4.075   6.238  15.072  0.5668  0.0440  0.2973
 8284TIP3    H146267   4.158   6.280  15.094  0.7758 -0.2732  0.1279
 8284TIP3    H246268   4.067   6.247  14.977 -0.2630  1.2831  0.4613
 8285TIP3   OH246269   5.881   1.965   1.639  0.2088  0.6135  0.0911
 8285TIP3    H146270   5.892   2.057   1.616  0.7130  0.3432 -0.7763
 8285TIP3    H246271   5.970   1.933   1.652  0.0816  0.0615 -0.3622
 8286TIP3   OH246272   4.107   4.964   1.376 -0.1460  0.1014  0.0680
 8286TIP3    H146273   4.184   4.990   1.325 -0.3634  0.1798 -0.2260
 8286TIP3    H246274   4.089   4.874   1.349  0.6869 -0.4275  1.1859
 8287TIP3   OH246275   0.589   3.815   6.107 -0.2281 -0.2310  0.3634
 8287TIP3    H146276   0.562   3.859   6.027  0.1627 -0.9658 -0.1790
 8287TIP3    H246277   0.513   3.764   6.133 -0.5297  0.4061  0.7487
 8288TIP3   OH246278   5.712   2.009   6.557 -0.1975 -0.3175  0.2645
 8288TIP3    H146279   5.780   1.949   6.525 -1.8327 -1.4405 -1.3537
 8288TIP3    H246280   5.641   1.951   6.586 -1.8061  0.7500 -1.2912
 8289TIP3   OH246281   0.901   4.304  15.101 -0.5252 -0.1252 -0.0809
 8289TIP3    H146282   0.938   4.229  15.055  0.3838  0.8905 -1.0600
 8289TIP3    H246283   0.806   4.295  15.087 -0.3366 -0.3471 -1.3803
 8290TIP3   OH246284   3.468   6.302  16.219 -0.9969 -0.2130  0.0657
 8290TIP3    H146285   3.413   6.268  16.149  0.5809 -0.2297 -1.2169
 8290TIP3    H246286   3.497   6.224  16.267 -3.3356 -0.1205  1.8157
 8291TIP3   OH246287   5.643   6.151  15.399  0.0143  0.1174  0.4556
 8291TIP3    H146288   5.626   6.090  15.328  0.3097 -1.2076  1.4921
 8291TIP3    H246289   5.592   6.229  15.377  0.6228 -0.0019 -1.5221
 8292TIP3   OH246290   3.744   3.809  14.077  0.2706  0.2870  0.4410
 8292TIP3    H146291   3.781   3.865  14.009  0.9542 -2.7417 -1.9375
 8292TIP3    H246292   3.654   3.840  14.087  0.5915  1.7276 -0.7727
 8293TIP3   OH246293   6.460   6.811  16.281  0.6993 -0.2942 -0.6931
 8293TIP3    H146294   6.437   6.718  16.287 -0.3755  0.0010  0.1578
 8293TIP3    H246295   6.427   6.838  16.196 -1.7008 -0.0337  0.2372
 8294TIP3   OH246296   1.242   4.962   5.543  0.2282 -0.1607 -0.5167
 8294TIP3    H146297   1.332   4.954   5.512  0.3662 -0.1948 -0.1116
 8294TIP3    H246298   1.238   4.905   5.620 -0.8886 -2.4190 -2.0947
 8295TIP3   OH246299   0.170   1.669   1.485  0.0990 -0.4097 -0.3211
 8295TIP3    H146300   0.255   1.686   1.445 -0.5461 -0.3562 -1.7062
 8295TIP3    H246301   0.148   1.579   1.460 -0.2845 -0.4056 -0.0249
 8296TIP3   OH246302   0.159   4.054   0.182  0.0359  0.0262 -0.1558
 8296TIP3    H146303   0.236   3.996   0.185  0.1644  0.1990 -0.0781
 8296TIP3    H246304   0.196   4.142   0.188 -0.0363  0.1966 -1.7089
 8297TIP3   OH246305   3.170   1.635   5.473 -0.0250  0.6706 -0.8314
 8297TIP3    H146306   3.235   1.566   5.467 -0.6178  0.2265 -2.7675
 8297TIP3    H246307   3.214   1.712   5.436  0.0232  0.8762 -0.3582
 8298TIP3   OH246308   6.713   0.433  15.721  0.0172 -0.1674 -0.0712
 8298TIP3    H146309   6.761   0.515  15.709  1.8465 -1.1052  0.4746
 8298TIP3    H246310   6.697   0.402  15.632  0.0936  0.3414 -0.2690
 8299TIP3   OH246311   0.853   4.484  16.209  0.0123  0.1926  0.8536
 8299TIP3    H146312   0.882   4.557  16.264  0.1755  1.6751 -1.0855
 8299TIP3    H246313   0.868   4.406  16.262 -0.1646  1.5512  3.0048
 8300TIP3   OH246314   5.220   0.736  14.875  1.1850 -0.4192 -0.4724
 8300TIP3    H146315   5.134   0.701  14.854  0.9352 -0.9935  1.4222
 8300TIP3    H246316   5.280   0.662  14.865  1.3203 -0.2820 -0.7205
 8301TIP3   OH246317   4.219   2.426   0.815  0.0079 -0.2942  0.0962
 8301TIP3    H146318   4.185   2.473   0.739  1.0082  0.3255  0.0039
 8301TIP3    H246319   4.218   2.491   0.885  1.9258  0.0974 -0.1682
 8302TIP3   OH246320   1.302   4.271  10.455  0.0261  0.0393  0.1074
 8302TIP3    H146321   1.277   4.285  10.546 -1.0036  0.8993 -0.2778
 8302TIP3    H246322   1.321   4.359  10.421  1.8350 -0.4078 -0.1402
 8303TIP3   OH246323   5.170   2.737  13.803  0.0378  0.2727 -0.3824
 8303TIP3    H146324   5.234   2.779  13.745  1.2345 -1.3477 -0.2935
 8303TIP3    H246325   5.087   2.741  13.754  0.8326 -0.2391 -1.8069
 8304TIP3   OH246326   0.842   3.544   4.437 -0.1479  0.2018 -0.5151
 8304TIP3    H146327   0.855   3.546   4.342  1.0609 -0.2292 -0.3900
 8304TIP3    H246328   0.780   3.472   4.451  0.3460 -0.3181 -0.9293
 8305TIP3   OH246329   0.402   3.156  16.271 -0.2582  0.0840  0.3851
 8305TIP3    H146330   0.444   3.196  16.195 -1.3749 -2.3559 -1.6708
 8305TIP3    H246331   0.455   3.184  16.345  3.2300 -0.4445 -1.7005
 8306TIP3   OH246332   0.439   0.791   0.452  0.2232 -0.6421  0.1864
 8306TIP3    H146333   0.490   0.870   0.436  0.3058 -0.8649 -0.7492
 8306TIP3    H246334   0.502   0.728   0.487 -0.1628  0.1677  2.5249
 8307TIP3   OH246335   3.530   1.422   1.213  0.0018 -0.4582 -0.3673
 8307TIP3    H146336   3.624   1.439   1.217  0.3990 -2.3364 -0.7848
 8307TIP3    H246337   3.500   1.474   1.138  0.2436  1.8330  1.0135
 8308TIP3   OH246338   6.471   4.800  13.451  0.2813  0.0233  0.1230
 8308TIP3    H146339   6.452   4.870  13.513 -0.0662  0.1966 -0.1702
 8308TIP3    H246340   6.484   4.845  13.367 -0.6819 -0.3077 -0.2238
 8309TIP3   OH246341   0.236   6.060  12.678 -0.7096  0.4734  0.6553
 8309TIP3    H146342   0.308   6.113  12.712  0.7992 -1.9403  1.4241
 8309TIP3    H246343   0.181   6.043  12.754  0.0771 -0.9551  0.9259
 8310TIP3   OH246344   3.303   3.384   0.497 -0.0324  0.0669 -0.2409
 8310TIP3    H146345   3.261   3.412   0.579  2.4402  0.3843  0.9938
 8310TIP3    H246346   3.313   3.289   0.507 -0.0752  0.0506 -0.3523
 8311TIP3   OH246347   5.165   0.953   2.008 -0.4380  0.3688 -0.5063
 8311TIP3    H146348   5.204   1.041   2.000  2.1219 -0.6523 -0.3284
 8311TIP3    H246349   5.168   0.935   2.102 -1.6282  0.3457 -0.4633
 8312TIP3   OH246350   2.733   5.432  15.439  0.1036 -0.3421  0.2063
 8312TIP3    H146351   2.789   5.449  15.363  1.6037 -1.1062  1.1031
 8312TIP3    H246352   2.794   5.413  15.510 -1.2927 -3.7869  0.6469
 8313TIP3   OH246353   5.489   2.360   1.243  0.3303  0.1587 -0.5381
 8313TIP3    H146354   5.438   2.349   1.323 -1.2027 -0.3457 -1.5384
 8313TIP3    H246355   5.571   2.313   1.260 -1.1527 -2.5620 -0.2782
 8314TIP3   OH246356   2.803   1.507   3.861  0.3363 -0.4142  0.1082
 8314TIP3    H146357   2.802   1.568   3.936  1.6490  0.1595 -0.3144
 8314TIP3    H246358   2.713   1.476   3.855 -0.0953  0.5630  1.0939
 8315TIP3   OH246359   3.488   3.925  14.651  0.4864 -0.5840  0.7268
 8315TIP3    H146360   3.540   4.002  14.678  1.1203 -1.5662  2.4526
 8315TIP3    H246361   3.539   3.887  14.579  1.4857 -0.7543  1.4920
 8316TIP3   OH246362   1.927   1.736   4.506 -0.1316 -0.1841 -0.4887
 8316TIP3    H146363   1.873   1.788   4.565 -0.3466 -0.6887 -0.2383
 8316TIP3    H246364   1.916   1.646   4.536  1.5352 -0.2123  0.1156
 8317TIP3   OH246365   3.175   4.219  11.943 -0.2402 -0.1317  0.1274
 8317TIP3    H146366   3.209   4.308  11.951  0.0597 -0.2576  0.2672
 8317TIP3    H246367   3.202   4.176  12.024  0.9269 -0.7924 -0.5831
 8318TIP3   OH246368   6.032   6.513   4.062 -0.0077  0.1214 -0.2398
 8318TIP3    H146369   6.059   6.565   4.138  1.6084  1.6324 -1.7368
 8318TIP3    H246370   6.100   6.446   4.055  0.2499  0.4346 -0.7570
 8319TIP3   OH246371   3.889   3.246  14.020 -0.1549 -0.6894  0.7111
 8319TIP3    H146372   3.931   3.262  14.104 -1.8256 -1.9992  1.8631
 8319TIP3    H246373   3.932   3.306  13.959  0.9806  0.4061  2.5222
 8320TIP3   OH246374   5.465   6.577   0.434  0.0085  0.0872 -0.3952
 8320TIP3    H146375   5.445   6.484   0.432 -0.1841  0.1362 -0.9140
 8320TIP3    H246376   5.386   6.620   0.400  0.0516  0.4465 -0.0499
 8321TIP3   OH246377   2.492   3.792   2.548 -0.1853  0.3547  0.2871
 8321TIP3    H146378   2.587   3.785   2.546 -0.0123  0.6327  3.0952
 8321TIP3    H246379   2.474   3.886   2.542 -0.3962  0.2381 -1.3578
 8322TIP3   OH246380   6.313   2.876   0.756  0.2584 -0.1355  0.0860
 8322TIP3    H146381   6.359   2.959   0.747  0.3873 -0.0590  1.2239
 8322TIP3    H246382   6.246   2.893   0.823  0.2099 -0.9010  0.2446
 8323TIP3   OH246383   6.635   5.436   3.974  0.0089  0.0079  0.0486
 8323TIP3    H146384   6.665   5.422   3.884  1.5500 -0.4863  0.6097
 8323TIP3    H246385   6.590   5.520   3.971 -0.7544 -0.4206 -1.3660
 8324TIP3   OH246386   3.649   4.411   4.886 -0.5682  0.3955 -0.2301
 8324TIP3    H146387   3.614   4.430   4.799 -2.0126  0.3104  0.2918
 8324TIP3    H246388   3.599   4.334   4.915  0.2358  0.1290  0.4724
 8325TIP3   OH246389   6.233   4.837  16.913 -0.1972 -0.7385 -0.2352
 8325TIP3    H146390   6.254   4.816  16.822 -0.8165  0.2999 -0.6302
 8325TIP3    H246391   6.237   4.933  16.917  1.1708 -0.8142  1.1700
 8326TIP3   OH246392   5.591   5.280   6.371 -0.0054 -0.1067  0.3725
 8326TIP3    H146393   5.622   5.360   6.329  0.5644 -1.7902 -2.7245
 8326TIP3    H246394   5.657   5.260   6.436  0.9538  0.8401 -0.2747
 8327TIP3   OH246395   5.020   4.191  11.432 -0.0536 -0.0480 -1.1372
 8327TIP3    H146396   5.062   4.151  11.356  0.5359 -0.3231 -0.6724
 8327TIP3    H246397   5.052   4.140  11.507  0.0195  0.7324 -0.6259
 8328TIP3   OH246398   0.904   0.542  15.599  0.1603  1.1386  0.4364
 8328TIP3    H146399   0.818   0.532  15.558  0.3966 -2.8898  0.4976
 8328TIP3    H246400   0.966   0.511  15.533  1.3293  1.7096  1.2254
 8329TIP3   OH246401   6.266   1.513  14.101 -0.1905 -0.2353  0.2575
 8329TIP3    H146402   6.300   1.429  14.071 -0.3185 -0.3530  0.4426
 8329TIP3    H246403   6.250   1.501  14.194  0.9147  0.3580  0.5470
 8330TIP3   OH246404   0.455   2.150  16.161 -0.4434  0.3481 -0.2253
 8330TIP3    H146405   0.527   2.087  16.164  1.2215  2.0907 -0.9117
 8330TIP3    H246406   0.450   2.176  16.069 -1.5279  0.7411 -0.0687
 8331TIP3   OH246407   1.613   4.904   4.006 -0.1265 -0.1010  0.0295
 8331TIP3    H146408   1.652   4.986   4.037  2.0760 -0.8155 -0.6335
 8331TIP3    H246409   1.582   4.925   3.918  2.0740 -0.3211 -0.8877
 8332TIP3   OH246410   1.367   2.688   6.246 -0.5890 -0.1016  0.4651
 8332TIP3    H146411   1.325   2.643   6.319 -0.7404 -1.4345 -0.4121
 8332TIP3    H246412   1.298   2.695   6.180 -0.6059  1.5570  0.6116
 8333TIP3   OH246413   4.045   2.306  15.258 -0.4439  0.0890  0.5083
 8333TIP3    H146414   4.096   2.255  15.320 -1.9698 -2.2577 -0.0444
 8333TIP3    H246415   4.014   2.243  15.193 -1.3935  1.9356 -0.9574
 8334TIP3   OH246416   4.634   5.958   0.688  0.2678 -0.2288 -0.5478
 8334TIP3    H146417   4.582   5.979   0.610  1.6630 -0.9904 -1.7390
 8334TIP3    H246418   4.695   6.031   0.695  0.8937 -0.7146 -0.8614
 8335TIP3   OH246419   2.970   2.814   2.087  0.2077 -0.2691  0.1729
 8335TIP3    H146420   2.928   2.798   2.171 -0.6155  1.8276  0.2015
 8335TIP3    H246421   3.047   2.868   2.108  2.1725 -2.7587 -0.0618
 8336TIP3   OH246422   1.222   1.014  14.496 -0.3354 -0.1947  0.9915
 8336TIP3    H146423   1.161   1.028  14.569  0.0832 -0.0865  1.3219
 8336TIP3    H246424   1.308   1.035  14.532  0.0768 -1.6547  0.9263
 8337TIP3   OH246425   6.594   4.079   6.073  0.4952 -0.0618 -0.3877
 8337TIP3    H146426   6.589   4.174   6.084 -1.2067 -0.2322  0.8923
 8337TIP3    H246427   6.552   4.044   6.152 -1.6348 -1.7972 -2.1430
 8338TIP3   OH246428   4.725   1.144   3.073  0.0211 -0.1967  0.6450
 8338TIP3    H146429   4.756   1.226   3.113  0.8790  0.3579 -1.0688
 8338TIP3    H246430   4.781   1.076   3.110 -0.2191  0.0744  1.5362
 8339TIP3   OH246431   4.910   0.555   0.147 -0.4466  0.1296 -0.5502
 8339TIP3    H146432   4.960   0.598   0.077 -2.1788 -0.6424 -2.3860
 8339TIP3    H246433   4.846   0.620   0.175 -0.3139  0.1478 -0.2842
 8340TIP3   OH246434   6.215   4.407   5.532  0.3282  0.1408  0.0149
 8340TIP3    H146435   6.233   4.367   5.446  0.0052 -1.5334  0.6914
 8340TIP3    H246436   6.295   4.391   5.582  0.5967  1.3077 -0.0146
 8341TIP3   OH246437   5.985   3.477   3.032 -0.0748  0.3428 -0.2178
 8341TIP3    H146438   6.020   3.412   3.093 -1.2037 -1.3813 -1.3242
 8341TIP3    H246439   5.893   3.487   3.057 -0.6496 -0.6592 -1.7969
 8342TIP3   OH246440   4.183   5.324  17.046  0.6357 -0.4969 -0.5041
 8342TIP3    H146441   4.237   5.403  17.056  1.3409 -0.7898 -1.8286
 8342TIP3    H246442   4.167   5.317  16.952  1.3412 -2.4280 -0.5250
 8343TIP3   OH246443   3.425   3.953   1.928  0.0463 -0.5868  0.1974
 8343TIP3    H146444   3.357   3.888   1.916  0.0960 -0.9513  1.6948
 8343TIP3    H246445   3.380   4.037   1.918 -0.7755 -0.8107  1.7313
 8344TIP3   OH246446   4.601   0.416   3.539  0.4878  0.2230 -0.5298
 8344TIP3    H146447   4.586   0.423   3.444  0.3073  0.0829 -0.5129
 8344TIP3    H246448   4.514   0.423   3.578  0.6279  0.9152 -0.3303
 8345TIP3   OH246449   1.703   1.033   2.633 -0.1048 -0.8973 -0.4429
 8345TIP3    H146450   1.739   0.946   2.619 -0.9627 -0.9446 -2.6180
 8345TIP3    H246451   1.615   1.029   2.595 -0.3083  0.8006 -0.2080
 8346TIP3   OH246452   4.390   3.416  11.307 -0.7411 -0.5396  0.0426
 8346TIP3    H146453   4.334   3.465  11.367 -0.0829 -1.1058  1.1541
 8346TIP3    H246454   4.334   3.397  11.231 -1.1143  1.5920 -0.2671
 8347TIP3   OH246455   4.257   0.822  16.008 -0.1308  0.5490  0.1147
 8347TIP3    H146456   4.297   0.769  15.939 -0.4888  1.4463 -0.8243
 8347TIP3    H246457   4.165   0.795  16.009  0.2748 -0.9267  1.7038
 8348TIP3   OH246458   2.269   3.548   2.030  0.1269 -0.3609  0.7922
 8348TIP3    H146459   2.236   3.617   2.087  1.3758  2.0914 -1.2456
 8348TIP3    H246460   2.363   3.564   2.024  0.2171 -1.1950 -1.0326
 8349TIP3   OH246461   0.042   3.460   4.645  0.2868 -0.4119  0.2318
 8349TIP3    H146462   0.051   3.540   4.593 -1.2974 -1.0610 -1.1533
 8349TIP3    H246463  -0.043   3.469   4.687  0.9427 -0.5375  1.6214
 8350TIP3   OH246464   0.723   2.762   0.920 -0.3888  0.4137 -0.4933
 8350TIP3    H146465   0.815   2.787   0.925 -0.0886  0.2450 -3.3368
 8350TIP3    H246466   0.725   2.668   0.901 -1.1884  0.2505  0.1571
 8351TIP3   OH246467   4.442   1.369   6.433 -0.0305 -0.2441 -0.0185
 8351TIP3    H146468   4.505   1.368   6.362 -0.2158  0.0055 -0.1868
 8351TIP3    H246469   4.475   1.304   6.495  1.4158  1.1672  0.7815
 8352TIP3   OH246470   0.872   5.150   6.661  0.0882 -0.1663  0.7691
 8352TIP3    H146471   0.857   5.055   6.666  2.2230 -0.6230 -0.4638
 8352TIP3    H246472   0.965   5.160   6.678  0.4643  1.4337 -1.7743
 8353TIP3   OH246473   4.907   3.747  14.908  0.6614 -0.1826 -0.2012
 8353TIP3    H146474   4.852   3.821  14.883 -0.0215 -0.0711  1.5439
 8353TIP3    H246475   4.864   3.670  14.870  1.2355  0.2430 -1.7946
 8354TIP3   OH246476   5.310   0.541   2.048  0.3317  0.3000  0.3521
 8354TIP3    H146477   5.400   0.522   2.073 -0.0972 -1.6370  0.5598
 8354TIP3    H246478   5.284   0.469   1.991 -1.4188  0.2325  1.1528
 8355TIP3   OH246479   0.343   0.267  13.731 -0.0428  0.4167 -0.2360
 8355TIP3    H146480   0.330   0.340  13.671 -1.0477  0.0396 -0.4991
 8355TIP3    H246481   0.299   0.294  13.811 -3.2073 -1.0897 -1.3039
 8356TIP3   OH246482   5.576   2.096   0.563  0.3485  0.2388 -0.1995
 8356TIP3    H146483   5.531   2.015   0.585 -0.7598  0.4657 -1.5026
 8356TIP3    H246484   5.573   2.149   0.643  2.1403 -1.4069  1.0600
 8357TIP3   OH246485   3.811   3.827  14.867  0.2605  0.3843  0.3923
 8357TIP3    H146486   3.727   3.783  14.853 -0.2106  1.5880 -0.8375
 8357TIP3    H246487   3.871   3.758  14.895 -1.4600 -0.2767  2.7386
 8358TIP3   OH246488   4.090   0.041  16.197 -0.2168 -0.1607 -0.0928
 8358TIP3    H146489   4.180   0.067  16.219 -0.2149  0.3617 -0.6806
 8358TIP3    H246490   4.100  -0.040  16.147 -0.1253 -0.4910  0.4506
 8359TIP3   OH246491   1.498   3.157   1.760 -0.1143  0.2875 -0.4264
 8359TIP3    H146492   1.493   3.113   1.846  0.3475 -0.4562 -0.7716
 8359TIP3    H246493   1.423   3.217   1.760 -0.9421 -0.7084 -0.0395
 8360TIP3   OH246494   1.513   6.130  11.675  0.1582  0.2476 -0.6651
 8360TIP3    H146495   1.471   6.181  11.745  1.0361 -0.4745  0.4360
 8360TIP3    H246496   1.518   6.190  11.601 -0.2440  1.2495  0.0950
 8361TIP3   OH246497   0.338   1.722   3.316 -0.4818  0.2408  0.1662
 8361TIP3    H146498   0.393   1.799   3.319  3.5717 -2.3782  1.1521
 8361TIP3    H246499   0.328   1.695   3.408 -1.0040 -0.8753 -0.1925
 8362TIP3   OH246500   2.557   1.575   2.046 -0.0546  0.1663  0.0348
 8362TIP3    H146501   2.528   1.627   1.971  1.5726  0.6305 -0.3246
 8362TIP3    H246502   2.625   1.629   2.087  1.1468 -1.3341  0.1010
 8363TIP3   OH246503   1.920   4.638  11.357 -0.1401  0.6596  0.2841
 8363TIP3    H146504   1.963   4.656  11.273 -1.4706  0.0498 -0.5672
 8363TIP3    H246505   1.990   4.647  11.422  0.9426  1.0858 -0.8858
 8364TIP3   OH246506   4.143   5.348   5.220 -0.0805  0.3320  0.1274
 8364TIP3    H146507   4.136   5.375   5.129 -0.5905  1.6049  0.5305
 8364TIP3    H246508   4.230   5.377   5.247  0.8244 -1.6587 -0.4339
 8365TIP3   OH246509   1.912   2.959  13.795  0.2508 -0.0949  0.1294
 8365TIP3    H146510   1.918   2.969  13.890  0.0250 -1.0067  0.2483
 8365TIP3    H246511   1.975   3.022  13.761  1.3186 -0.6680  0.9337
 8366TIP3   OH246512   2.679   1.660  15.338 -0.1594  0.2805 -0.0246
 8366TIP3    H146513   2.653   1.606  15.263  1.3674  0.0901 -0.4461
 8366TIP3    H246514   2.698   1.596  15.407  0.2833  0.3559 -0.0771
 8367TIP3   OH246515   5.790   6.230  10.378  0.0102  0.4500  0.3686
 8367TIP3    H146516   5.717   6.177  10.346  0.1629  0.7068 -0.4226
 8367TIP3    H246517   5.794   6.211  10.472  0.4401 -1.4035  0.0077
 8368TIP3   OH246518   2.213   3.176  17.043  0.0809 -0.2110  0.2503
 8368TIP3    H146519   2.224   3.212  17.131  0.8095 -2.6312  1.2328
 8368TIP3    H246520   2.280   3.220  16.991 -0.1811  1.0579  0.9618
 8369TIP3   OH246521   2.590   4.221   0.663 -0.3105  0.1832  0.7300
 8369TIP3    H146522   2.573   4.314   0.646 -0.7505 -0.0646 -0.2860
 8369TIP3    H246523   2.672   4.202   0.618 -0.8746 -0.2021 -0.1767
 8370TIP3   OH246524   1.650   4.623  14.494 -0.0110 -0.2033 -0.1264
 8370TIP3    H146525   1.711   4.610  14.567 -2.9287 -1.3919  2.3190
 8370TIP3    H246526   1.564   4.632  14.536 -1.8126 -0.4647 -3.4371
 8371TIP3   OH246527   5.619   1.140   0.429  0.0756  0.4887  0.2124
 8371TIP3    H146528   5.705   1.178   0.449  1.1330 -1.0790 -1.0198
 8371TIP3    H246529   5.560   1.215   0.421  2.0934  2.0018 -2.4180
 8372TIP3   OH246530   6.059   2.867  13.511 -0.0208 -0.2075 -0.3176
 8372TIP3    H146531   6.124   2.850  13.443 -0.7863  0.2367 -1.1729
 8372TIP3    H246532   6.017   2.782  13.526 -0.8458 -0.0210 -1.4605
 8373TIP3   OH246533   6.810   4.200  11.758  0.2655 -0.4333  0.2880
 8373TIP3    H146534   6.876   4.136  11.732  0.1642 -0.4463  0.0619
 8373TIP3    H246535   6.754   4.210  11.681 -1.0566 -1.7203  1.0348
 8374TIP3   OH246536   1.537   3.469   3.948  0.1545  0.2701 -0.1255
 8374TIP3    H146537   1.576   3.529   3.884 -1.2544  1.9558  0.4935
 8374TIP3    H246538   1.533   3.521   4.029 -1.0564 -0.7031  0.4594
 8375TIP3   OH246539   2.263   2.396   3.408 -0.4309 -0.5355  0.3368
 8375TIP3    H146540   2.236   2.464   3.469 -2.2250 -0.8989 -0.0011
 8375TIP3    H246541   2.209   2.320   3.431  0.8539 -1.5688  0.0980
 8376TIP3   OH246542   3.704   0.648   4.130  0.2702  0.1204  0.2631
 8376TIP3    H146543   3.703   0.569   4.077 -1.9252  0.1381  0.1658
 8376TIP3    H246544   3.761   0.627   4.204  1.3667 -0.7849 -0.8054
 8377TIP3   OH246545   0.741   6.247  15.624  0.1616  0.1193  0.6699
 8377TIP3    H146546   0.664   6.304  15.623 -2.4374 -2.9376 -2.6023
 8377TIP3    H246547   0.731   6.195  15.703 -0.7608  0.2555  0.6557
 8378TIP3   OH246548   2.620   4.864   2.518  0.4334  0.2704  0.1426
 8378TIP3    H146549   2.577   4.928   2.575  1.6036  0.2947  1.0267
 8378TIP3    H246550   2.575   4.873   2.434 -2.0306 -0.4605  1.2945
 8379TIP3   OH246551   5.268   2.667  12.472  0.8249 -0.2769 -0.4246
 8379TIP3    H146552   5.246   2.645  12.381  1.3397 -0.6713 -0.4607
 8379TIP3    H246553   5.364   2.672  12.473  0.8713 -1.0922  0.2745
 8380TIP3   OH246554   2.533   6.409  12.763  0.2505 -0.2113  0.4583
 8380TIP3    H146555   2.449   6.389  12.719  0.8577 -1.2538 -0.2928
 8380TIP3    H246556   2.537   6.504  12.764 -0.5441 -0.1500 -0.3031
 8381TIP3   OH246557   0.889   3.789   1.996 -0.3083 -0.6824 -0.1949
 8381TIP3    H146558   0.870   3.809   2.088 -0.3198 -3.5880  0.5512
 8381TIP3    H246559   0.984   3.801   1.988 -0.5142  1.1055 -0.2852
 8382TIP3   OH246560   6.722   2.090   4.844  0.0004  0.4768  1.1092
 8382TIP3    H146561   6.801   2.080   4.898  2.6183 -0.4550 -2.5034
 8382TIP3    H246562   6.677   2.006   4.852  1.0174 -0.1066  0.9772
 8383TIP3   OH246563   5.295   4.641   4.284 -0.1515  0.4706 -0.3554
 8383TIP3    H146564   5.334   4.701   4.220 -0.0621 -0.8091 -1.5496
 8383TIP3    H246565   5.218   4.605   4.240 -1.0773  0.8290  0.9164
 8384TIP3   OH246566   6.749   4.925   1.907  0.2702 -0.0670 -0.4486
 8384TIP3    H146567   6.767   4.893   1.819 -0.1245 -0.1844 -0.4864
 8384TIP3    H246568   6.662   4.964   1.901  0.3744  0.2120 -0.1858
 8385TIP3   OH246569   0.030   5.759   5.112  0.1607 -0.6266 -0.1220
 8385TIP3    H146570  -0.052   5.799   5.081  0.8463  1.5258  0.6687
 8385TIP3    H246571   0.060   5.707   5.038 -2.0856 -1.7829 -0.3024
 8386TIP3   OH246572   0.813   1.131   1.079  0.1096 -0.9184  0.1388
 8386TIP3    H146573   0.787   1.205   1.024 -0.8554  0.3082  2.1179
 8386TIP3    H246574   0.750   1.062   1.057 -0.4269 -0.3602 -0.1261
 8387TIP3   OH246575   3.394   3.563   4.675 -0.1376 -0.2508  0.2105
 8387TIP3    H146576   3.362   3.475   4.695 -0.1225 -0.1253  0.7947
 8387TIP3    H246577   3.489   3.555   4.678 -0.1352 -0.2478  0.1279
 8388TIP3   OH246578   1.083   1.717   0.640 -0.4710 -0.0549  0.3713
 8388TIP3    H146579   0.998   1.688   0.673 -0.2359  0.1638  1.1935
 8388TIP3    H246580   1.085   1.811   0.658 -0.2688  0.0443 -0.1428
 8389TIP3   OH246581   2.114   3.193   3.430  0.0592 -0.4143  0.2987
 8389TIP3    H146582   2.197   3.226   3.465  0.8582 -1.4646 -0.5381
 8389TIP3    H246583   2.052   3.200   3.503  0.2375  2.5721  0.2612
 8390TIP3   OH246584   3.198   5.537   6.434  0.1293  0.0247  0.7244
 8390TIP3    H146585   3.212   5.540   6.529  2.4844  0.2238  0.4360
 8390TIP3    H246586   3.167   5.625   6.412 -2.2096 -0.5387  1.4770
 8391TIP3   OH246587   6.337   5.040  13.099  0.5561  0.2968 -0.5636
 8391TIP3    H146588   6.321   5.086  13.181  2.4340  1.5593 -0.8313
 8391TIP3    H246589   6.373   4.956  13.126 -1.1334 -0.3257 -0.0996
 8392TIP3   OH246590   2.934   5.482  14.296  0.0467 -0.0838 -0.1489
 8392TIP3    H146591   2.949   5.417  14.364 -1.4800  0.2266  0.5426
 8392TIP3    H246592   2.926   5.565  14.344 -2.6542 -0.0752 -0.4301
 8393TIP3   OH246593   1.526   3.078  10.391 -0.0158  0.4951 -0.2075
 8393TIP3    H146594   1.575   3.150  10.350 -0.3066  0.6480 -0.2851
 8393TIP3    H246595   1.515   3.014  10.321  1.4640 -0.2689  0.2043
 8394TIP3   OH246596   0.247   2.145  16.724  0.0204  0.1361 -0.3485
 8394TIP3    H146597   0.321   2.152  16.784 -1.8589  0.4574  2.1060
 8394TIP3    H246598   0.225   2.052  16.723 -0.7704  0.3015  0.5702
 8395TIP3   OH246599   6.313   0.062  13.223 -0.8064 -0.1463  0.9914
 8395TIP3    H146600   6.368   0.099  13.291  0.5315 -0.6920  0.2533
 8395TIP3    H246601   6.360  -0.016  13.194 -2.2943 -1.0054  0.7612
 8396TIP3   OH246602   4.984   1.987   0.866  0.1791 -0.0305  0.5933
 8396TIP3    H146603   4.987   1.895   0.843 -0.3849 -0.4388  2.0226
 8396TIP3    H246604   4.926   1.991   0.942 -2.2519  1.9038 -1.2064
 8397TIP3   OH246605   3.779   4.891   4.743 -0.4297  0.0723 -0.1825
 8397TIP3    H146606   3.850   4.953   4.759  0.1601 -0.8002  0.6491
 8397TIP3    H246607   3.818   4.805   4.756 -1.0063 -0.5474 -2.1716
 8398TIP3   OH246608   3.262   1.493  16.580  0.0696 -0.0356 -0.0370
 8398TIP3    H146609   3.273   1.429  16.510 -0.9630 -2.8581  2.1823
 8398TIP3    H246610   3.288   1.446  16.660 -2.8557  1.5347  2.0279
 8399TIP3   OH246611   6.373   6.733   1.706 -0.0911  0.5701  0.6166
 8399TIP3    H146612   6.392   6.823   1.679 -0.9329  0.2758 -1.0908
 8399TIP3    H246613   6.340   6.691   1.627  0.1242 -1.2092  1.4237
 8400TIP3   OH246614   1.915   5.750   0.386 -0.6160 -0.2797  0.4443
 8400TIP3    H146615   1.852   5.693   0.431 -1.8449 -0.3224 -1.2055
 8400TIP3    H246616   2.000   5.726   0.422 -1.5526 -0.0308  2.9594
 8401TIP3   OH246617   1.342   2.917  16.021  0.2650 -0.0395 -0.0602
 8401TIP3    H146618   1.328   2.946  15.931 -0.1509  0.9259  0.3042
 8401TIP3    H246619   1.381   2.830  16.012  0.0025 -0.0576 -1.1650
 8402TIP3   OH246620   3.541   5.371  11.406  0.2520  0.4805 -0.3092
 8402TIP3    H146621   3.557   5.311  11.478 -2.2131  0.8769  0.6579
 8402TIP3    H246622   3.583   5.453  11.434  0.4613  0.2491  0.0598
 8403TIP3   OH246623   6.460   4.706  16.395  0.2480 -0.2860  0.5453
 8403TIP3    H146624   6.515   4.783  16.378  0.2527 -0.2229  0.8412
 8403TIP3    H246625   6.382   4.741  16.437  0.2961 -0.4560  0.7767
 8404TIP3   OH246626   0.415   1.599  11.741  0.6380 -0.3098  0.7036
 8404TIP3    H146627   0.371   1.544  11.806  0.7508 -1.3467 -0.0798
 8404TIP3    H246628   0.360   1.593  11.663  0.4335  1.0309  0.7255
 8405TIP3   OH246629   3.459   4.830  11.801 -0.1344 -0.1507 -0.0605
 8405TIP3    H146630   3.443   4.908  11.748 -1.1045 -0.4157 -0.1832
 8405TIP3    H246631   3.476   4.761  11.738 -0.1680 -0.2246  0.0118
 8406TIP3   OH246632   3.690   4.834   1.002 -0.7405 -0.0362 -0.1431
 8406TIP3    H146633   3.645   4.879   1.074 -0.1374  0.8888 -0.3330
 8406TIP3    H246634   3.665   4.881   0.923 -0.9961 -0.7378 -0.4921
 8407TIP3   OH246635   4.993   0.770  11.534  0.2171  0.0723 -0.3427
 8407TIP3    H146636   4.959   0.810  11.614  1.5928  1.5870 -0.4433
 8407TIP3    H246637   4.932   0.700  11.514 -0.1399 -0.3985  2.0589
 8408TIP3   OH246638   4.588   0.155   4.365 -0.5278  0.4856  0.2980
 8408TIP3    H146639   4.522   0.109   4.314  0.1870  0.3506 -0.5341
 8408TIP3    H246640   4.540   0.227   4.406 -1.5047 -0.5460  1.0266
 8409TIP3   OH246641   1.801   0.499  13.583  0.3346  0.8260 -0.7561
 8409TIP3    H146642   1.736   0.539  13.640 -0.3288 -0.9336 -0.2044
 8409TIP3    H246643   1.885   0.527  13.619 -0.1070  1.5360 -0.2608
 8410TIP3   OH246644   2.961   6.521   4.519 -0.3508  0.1896 -0.8226
 8410TIP3    H146645   2.918   6.478   4.444  2.0202 -4.5181  0.1175
 8410TIP3    H246646   3.046   6.548   4.486 -1.1174  2.8512 -0.8880
 8411TIP3   OH246647   6.629   0.232   3.209 -0.0827 -0.0891 -0.5415
 8411TIP3    H146648   6.689   0.226   3.283 -1.5104  0.9001  0.7430
 8411TIP3    H246649   6.589   0.146   3.203  0.1920 -0.2355 -0.3022
 8412TIP3   OH246650   1.997   5.825   4.684 -0.0467 -0.1112 -0.1051
 8412TIP3    H146651   1.934   5.755   4.703 -0.1003  0.1189  0.5791
 8412TIP3    H246652   1.980   5.849   4.593 -0.7553 -0.2463 -0.0122
 8413TIP3   OH246653   6.286   1.496  11.428 -0.1832 -0.0407 -0.1666
 8413TIP3    H146654   6.346   1.426  11.454  0.8766  1.4468  1.6529
 8413TIP3    H246655   6.303   1.567  11.490 -2.9443  0.9410 -0.3773
 8414TIP3   OH246656   2.013   2.590  16.357 -0.0425  0.0766  0.0874
 8414TIP3    H146657   1.989   2.641  16.280  0.3054  0.5159  0.2590
 8414TIP3    H246658   1.977   2.503  16.342 -0.2711  0.2571 -0.4125
 8415TIP3   OH246659   4.760   3.866   2.012  0.8791 -0.4309  0.4508
 8415TIP3    H146660   4.770   3.894   1.921  0.2635 -0.0416  0.4972
 8415TIP3    H246661   4.714   3.783   2.007 -0.5503  0.3319  0.4570
 8416TIP3   OH246662   1.153   6.551  10.834  0.4086  0.2331  0.1143
 8416TIP3    H146663   1.132   6.521  10.923  1.8708  2.4651  1.3139
 8416TIP3    H246664   1.248   6.546  10.829  0.5130  2.0551 -0.5317
 8417TIP3   OH246665   4.707   3.510   3.742  0.5749 -0.4202 -0.0787
 8417TIP3    H146666   4.617   3.495   3.711  1.2118 -1.3270 -1.5603
 8417TIP3    H246667   4.718   3.605   3.737 -0.5198 -0.2188  0.8215
 8418TIP3   OH246668   3.827   6.082   1.007 -0.4396 -0.6570  0.0154
 8418TIP3    H146669   3.745   6.050   0.969 -0.1069  0.4038 -1.7359
 8418TIP3    H246670   3.883   6.100   0.931  0.2210  1.7802  0.9689
 8419TIP3   OH246671   6.163   1.167   0.375 -0.0368 -0.1238 -0.1881
 8419TIP3    H146672   6.083   1.160   0.427  0.5249  0.0095  0.7219
 8419TIP3    H246673   6.200   1.078   0.374  0.7124  0.1563  0.9088
 8420TIP3   OH246674   0.741   3.270  15.106  0.1648 -0.2989  0.0474
 8420TIP3    H146675   0.809   3.270  15.174 -1.3003 -0.5935  1.5983
 8420TIP3    H246676   0.687   3.346  15.128 -0.6986 -0.7761 -0.4024
 8421TIP3   OH246677   5.692   1.096  15.702  0.2987 -0.1963  0.5448
 8421TIP3    H146678   5.747   1.139  15.638 -1.1556 -0.5355 -0.9906
 8421TIP3    H246679   5.632   1.164  15.733 -0.3456 -0.5035 -0.0046
 8422TIP3   OH246680   4.128   6.216   0.391 -0.0468  0.0705 -0.0927
 8422TIP3    H146681   4.088   6.139   0.351 -2.1344  1.0359  0.0428
 8422TIP3    H246682   4.091   6.220   0.479 -0.0350  1.2506 -0.1181
 8423TIP3   OH246683   5.795   6.442  14.870  0.0612 -0.2080  0.1560
 8423TIP3    H146684   5.762   6.532  14.865 -1.2724 -0.7110 -0.7462
 8423TIP3    H246685   5.765   6.410  14.955  1.0159  0.3541  0.7231
 8424TIP3   OH246686   4.487   0.021   2.128  0.4421  0.0307 -0.4681
 8424TIP3    H146687   4.565   0.076   2.117  1.2467 -0.9797 -0.0824
 8424TIP3    H246688   4.522  -0.068   2.134 -0.6988 -0.3893  0.3609
 8425TIP3   OH246689   1.604   3.102  13.388 -0.0521  0.2312  0.4545
 8425TIP3    H146690   1.603   3.189  13.428 -0.7187  0.6914 -0.5242
 8425TIP3    H246691   1.613   3.042  13.462 -1.5967  1.0356  1.3399
 8426TIP3   OH246692   1.406   1.378  13.052  0.1371  0.1095  0.1613
 8426TIP3    H146693   1.335   1.416  13.000 -0.3116 -2.1595 -0.9955
 8426TIP3    H246694   1.486   1.414  13.014 -0.2533 -0.2441 -1.0389
 8427TIP3   OH246695   1.387   5.895  11.769  0.3965 -0.1452 -0.0440
 8427TIP3    H146696   1.425   5.961  11.710  0.1271  2.6171  2.5973
 8427TIP3    H246697   1.460   5.868  11.825  0.2611 -1.3701 -0.4314
 8428TIP3   OH246698   6.699   1.554  15.332  0.2245  0.2325 -0.3031
 8428TIP3    H146699   6.700   1.474  15.384 -0.5683 -0.5338 -1.4257
 8428TIP3    H246700   6.681   1.623  15.395 -0.2613 -0.6176  0.5110
 8429TIP3   OH246701   6.435   2.126  13.584 -0.4087 -0.5113  0.5720
 8429TIP3    H146702   6.520   2.170  13.585 -1.1893  1.0757  1.1023
 8429TIP3    H246703   6.455   2.035  13.604  0.9766  0.2033  2.7700
 8430TIP3   OH246704   3.619   1.246  13.180 -0.2182 -0.0238 -0.2702
 8430TIP3    H146705   3.642   1.233  13.088 -0.5163 -1.6891 -0.1431
 8430TIP3    H246706   3.543   1.189  13.194  1.0657 -1.4387  1.4826
 8431TIP3   OH246707   4.882   4.824  15.636  0.2551  0.0255 -0.1263
 8431TIP3    H146708   4.889   4.850  15.544 -0.1200  0.3891 -0.0543
 8431TIP3    H246709   4.858   4.731  15.633 -2.2393  0.6137 -0.4442
 8432TIP3   OH246710   2.216   1.625  13.581 -0.1531  0.6337 -0.2781
 8432TIP3    H146711   2.151   1.591  13.519  0.4099 -0.3087 -0.3760
 8432TIP3    H246712   2.275   1.678  13.527  0.0033  0.2887 -0.4452
 8433TIP3   OH246713   5.843   0.138   0.053  0.8487 -0.6395 -0.0274
 8433TIP3    H146714   5.916   0.199   0.060  0.1539  0.0170  2.4297
 8433TIP3    H246715   5.835   0.122  -0.041  2.7134  0.9891 -0.5476
 8434TIP3   OH246716   0.795   6.583   1.981  0.4670 -0.0978 -0.2726
 8434TIP3    H146717   0.822   6.539   2.062 -0.6397 -0.2013  0.0549
 8434TIP3    H246718   0.814   6.675   1.996  1.6166 -0.2786 -0.4746
 8435TIP3   OH246719   5.234   3.619  14.535  0.1174 -0.4707 -0.5040
 8435TIP3    H146720   5.276   3.664  14.462 -1.0449 -0.9066 -1.4878
 8435TIP3    H246721   5.202   3.537  14.497 -0.1294 -0.9077  0.6059
 8436TIP3   OH246722   3.847   3.173  14.778 -0.4353  0.6704  0.0616
 8436TIP3    H146723   3.844   3.148  14.685  1.7243  0.1537  0.0795
 8436TIP3    H246724   3.756   3.167  14.807 -1.2120  1.1207 -2.0843
 8437TIP3   OH246725   0.628   0.341   4.053 -0.1896 -0.1418 -0.6370
 8437TIP3    H146726   0.548   0.291   4.069 -0.4323  0.2314 -0.6647
 8437TIP3    H246727   0.684   0.282   4.003  0.2216 -1.0057  0.7751
 8438TIP3   OH246728   2.090   0.802  15.616  0.0854 -0.2279  0.8968
 8438TIP3    H146729   2.180   0.774  15.597  0.3438 -0.7660  2.6960
 8438TIP3    H246730   2.047   0.723  15.650 -1.8712 -0.6600 -2.1887
 8439TIP3   OH246731   3.001   3.652  11.979 -0.0598  0.0059 -0.0072
 8439TIP3    H146732   3.004   3.685  12.069  1.7405  1.7060 -0.6290
 8439TIP3    H246733   3.028   3.726  11.925 -3.1195 -0.3067 -2.2004
 8440TIP3   OH246734   3.005   6.351  16.283  0.0940  0.6373 -0.1577
 8440TIP3    H146735   2.938   6.418  16.293  0.2297  0.4477  3.1243
 8440TIP3    H246736   3.028   6.326  16.373  1.7435 -2.1146 -1.2037
 8441TIP3   OH246737   5.620   3.809  13.746 -0.3869 -0.4391  0.0878
 8441TIP3    H146738   5.601   3.838  13.657 -1.6260 -0.8792  0.1835
 8441TIP3    H246739   5.547   3.843  13.798 -0.0056 -0.7233  0.8145
 8442TIP3   OH246740   5.285   0.965   1.432  0.3419  0.3476  0.5441
 8442TIP3    H146741   5.255   0.952   1.522 -1.4038 -0.4642 -0.1237
 8442TIP3    H246742   5.231   0.906   1.379  0.7737  1.3883 -1.1385
 8443TIP3   OH246743   1.981   2.957   3.625 -0.1292 -0.6490 -0.0992
 8443TIP3    H146744   1.913   2.931   3.687 -0.4080 -0.2851 -0.2473
 8443TIP3    H246745   1.980   3.053   3.627  0.1125 -0.6382 -0.3882
 8444TIP3   OH246746   0.688   6.115   2.582 -0.2203  0.3074 -0.1378
 8444TIP3    H146747   0.727   6.153   2.503  2.5365 -0.3989  0.7561
 8444TIP3    H246748   0.701   6.021   2.571  0.0208  0.1930  1.0358
 8445TIP3   OH246749   0.407   0.087  12.848 -0.6958 -0.3780  0.3071
 8445TIP3    H146750   0.437   0.000  12.873 -0.1306  0.2839  2.0516
 8445TIP3    H246751   0.451   0.104  12.765 -1.3387 -1.9981 -0.4054
 8446TIP3   OH246752   6.733   0.174   4.422  0.2625  0.1662 -0.8816
 8446TIP3    H146753   6.783   0.253   4.436 -0.2045  0.1299  1.3648
 8446TIP3    H246754   6.643   0.198   4.445  0.0398 -0.8827 -0.5891
 8447TIP3   OH246755   0.380   6.631  16.741 -0.4713  0.2190 -0.4165
 8447TIP3    H146756   0.323   6.588  16.677 -0.2648 -1.8871  0.7262
 8447TIP3    H246757   0.468   6.625  16.702 -0.3800 -0.8357 -0.0641
 8448TIP3   OH246758   6.361   0.006  17.016  0.3843 -0.3128  0.7344
 8448TIP3    H146759   6.436  -0.045  17.047  0.0553 -0.4829  1.2594
 8448TIP3    H246760   6.312   0.029  17.096  0.4218  0.6688  0.4973
 8449TIP3   OH246761   5.481   2.785  17.093 -0.2402  0.0130 -0.4075
 8449TIP3    H146762   5.531   2.786  17.174 -0.2080  1.5960 -0.4216
 8449TIP3    H246763   5.441   2.698  17.091  1.9965 -1.0936 -0.1109
 8450TIP3   OH246764   3.732   5.252   0.212  0.4942  0.1243  0.0408
 8450TIP3    H146765   3.799   5.262   0.144  1.4009  0.9349  1.0288
 8450TIP3    H246766   3.659   5.306   0.180  0.0658 -1.1723 -1.2937
 8451TIP3   OH246767   0.940   4.967  12.307 -0.4754  0.6372 -0.2725
 8451TIP3    H146768   0.990   4.943  12.384  0.8435 -0.4133 -1.3956
 8451TIP3    H246769   0.851   4.983  12.339  0.0506  0.2814  1.4356
 8452TIP3   OH246770   5.053   6.423   3.397 -0.4341  0.4569  0.2054
 8452TIP3    H146771   4.989   6.494   3.396  0.6516  1.4889  1.2273
 8452TIP3    H246772   5.136   6.465   3.378  0.0886 -0.7183 -0.1812
 8453TIP3   OH246773   4.579   5.672   2.496  0.1347 -0.0412  0.3938
 8453TIP3    H146774   4.581   5.727   2.574 -2.7849  2.9030 -1.3548
 8453TIP3    H246775   4.570   5.734   2.423 -1.9717 -2.7676 -1.8760
 8454TIP3   OH246776   3.957   2.074  11.300 -0.6549  0.2286  0.3449
 8454TIP3    H146777   3.975   2.072  11.394 -0.5267  1.0768  0.3454
 8454TIP3    H246778   3.873   2.119  11.293 -0.7649 -0.0213  0.0659
 8455TIP3   OH246779   6.586   0.294  14.824 -0.5637 -0.6774  0.2481
 8455TIP3    H146780   6.529   0.229  14.783 -1.2072 -0.3352  0.5776
 8455TIP3    H246781   6.665   0.295  14.770 -0.6803 -1.4865  0.0453
 8456TIP3   OH246782   2.429   1.019  14.134 -0.0021 -0.9506  0.4191
 8456TIP3    H146783   2.441   1.096  14.078  0.7614 -1.2788  0.1102
 8456TIP3    H246784   2.465   1.045  14.219  1.4067 -1.3576 -0.0277
 8457TIP3   OH246785   5.130   5.636  11.403  0.2482  0.2383 -0.4913
 8457TIP3    H146786   5.122   5.579  11.327 -2.2419 -0.1457 -0.0258
 8457TIP3    H246787   5.096   5.585  11.476  0.3595  1.4251  0.4377
 8458TIP3   OH246788   3.154   5.700   2.798 -0.2282 -0.5306 -0.1131
 8458TIP3    H146789   3.200   5.649   2.731 -1.0843  1.9073 -2.7726
 8458TIP3    H246790   3.069   5.720   2.759 -2.1181 -1.5916  3.0678
 8459TIP3   OH246791   0.494   5.770   2.873 -0.4085 -0.2657 -0.3594
 8459TIP3    H146792   0.418   5.774   2.815 -1.1192 -0.0600  0.5662
 8459TIP3    H246793   0.494   5.855   2.918 -0.8975 -1.0603  1.2032
 8460TIP3   OH246794   5.414   4.388  12.135  0.0666  0.2300  0.6060
 8460TIP3    H146795   5.335   4.376  12.189  0.1592  0.3788  0.7752
 8460TIP3    H246796   5.483   4.343  12.184 -0.2748 -1.5471 -0.4570
 8461TIP3   OH246797   4.228   1.851  15.235  0.0353 -0.3564  0.6081
 8461TIP3    H146798   4.239   1.779  15.297  2.3154 -0.7408 -0.1570
 8461TIP3    H246799   4.253   1.815  15.150  0.1812  1.0391  0.0212
 8462TIP3   OH246800   5.262   4.159   4.321 -0.1018 -0.2442 -0.4428
 8462TIP3    H146801   5.341   4.142   4.270 -1.3920 -3.2722 -1.7096
 8462TIP3    H246802   5.279   4.119   4.406  0.7334  1.6896  0.3517
 8463TIP3   OH246803   0.722   3.602  11.871 -0.5243 -0.2473  0.4398
 8463TIP3    H146804   0.676   3.551  11.804 -0.2253 -0.3715  0.3296
 8463TIP3    H246805   0.797   3.547  11.895  1.9933  1.6937 -2.3358
 8464TIP3   OH246806   2.098   4.868  16.024  0.1832 -0.2189 -0.6935
 8464TIP3    H146807   2.059   4.846  15.940 -0.3536 -1.2757 -0.1768
 8464TIP3    H246808   2.033   4.924  16.067  0.5558  0.5096 -1.0652
 8465TIP3   OH246809   3.079   2.223   6.613 -0.0042  0.2061 -0.2692
 8465TIP3    H146810   3.141   2.261   6.550  0.2232  0.9741  0.3965
 8465TIP3    H246811   3.046   2.144   6.570  1.1667 -0.0172 -0.7804
 8466TIP3   OH246812   1.144   5.623   1.822  0.5075 -0.0493  0.6412
 8466TIP3    H146813   1.198   5.692   1.860  0.7005 -0.1016  0.4624
 8466TIP3    H246814   1.145   5.641   1.728 -1.7588  1.3947  0.8199
 8467TIP3   OH246815   4.834   3.653  12.355 -0.4171  0.2724  0.1520
 8467TIP3    H146816   4.840   3.590  12.284 -0.0701  0.3579  0.0979
 8467TIP3    H246817   4.909   3.632  12.411  0.4802  1.4406 -0.5514
 8468TIP3   OH246818   0.652   2.690  16.765 -0.9702 -0.2359 -0.0152
 8468TIP3    H146819   0.684   2.607  16.731  0.4560  0.5183 -0.6076
 8468TIP3    H246820   0.570   2.668  16.808 -1.9932 -1.5419 -2.4204
 8469TIP3   OH246821   5.571   3.547   0.927 -0.4610  0.4524 -0.6175
 8469TIP3    H146822   5.535   3.628   0.892 -0.0591  0.9748  0.1463
 8469TIP3    H246823   5.543   3.545   1.018  0.9715  0.6073 -0.1492
 8470TIP3   OH246824   3.987   1.532  11.416  0.8782  0.3361  0.2428
 8470TIP3    H146825   3.927   1.604  11.436  0.9887  0.5974 -0.3529
 8470TIP3    H246826   3.929   1.460  11.391  0.7321 -0.0367  1.5867
 8471TIP3   OH246827   1.801   5.672  16.851  0.4693 -0.2666 -0.1792
 8471TIP3    H146828   1.846   5.664  16.767  0.2925 -1.0614 -0.2020
 8471TIP3    H246829   1.857   5.624  16.913  0.4942  0.1408  0.1177
 8472TIP3   OH246830   6.456   1.958  13.304  0.6262 -0.4092 -0.2150
 8472TIP3    H146831   6.413   2.023  13.359 -0.8938 -0.9221 -0.7534
 8472TIP3    H246832   6.399   1.881  13.307  0.5035 -0.4894 -2.4272
 8473TIP3   OH246833   4.526   2.716   5.382  0.1515  0.5714 -0.7234
 8473TIP3    H146834   4.585   2.656   5.428 -2.1631 -0.9947  0.4328
 8473TIP3    H246835   4.584   2.781   5.343  2.5385 -0.0800  1.4119
 8474TIP3   OH246836   1.011   0.152   3.251 -0.0734 -0.4380  0.2799
 8474TIP3    H146837   1.046   0.067   3.224  0.4217 -0.4244  0.8666
 8474TIP3    H246838   0.936   0.129   3.306  0.1636 -0.5038  0.5803
 8475TIP3   OH246839   5.057   0.082  15.091 -0.0373 -0.1757 -0.2947
 8475TIP3    H146840   5.080   0.064  15.000  0.1280  0.0079 -0.2905
 8475TIP3    H246841   4.997   0.156  15.087  2.1334  1.7186 -0.1081
 8476TIP3   OH246842   2.082   0.185  12.784  0.0154 -0.2414 -0.4175
 8476TIP3    H146843   2.119   0.272  12.772 -1.2561  0.0291 -3.4256
 8476TIP3    H246844   2.132   0.128  12.725 -0.1430 -1.2450  0.3737
 8477TIP3   OH246845   0.736   2.705   1.270  1.4037 -0.3305 -0.2660
 8477TIP3    H146846   0.672   2.642   1.305  1.5412  0.1264  0.8581
 8477TIP3    H246847   0.706   2.790   1.301  2.3139 -0.0621 -0.0920
 8478TIP3   OH246848   1.386   3.813   1.137 -0.2463  0.8698  0.3281
 8478TIP3    H146849   1.361   3.902   1.114 -1.2751  0.1099 -1.7172
 8478TIP3    H246850   1.406   3.771   1.053 -0.2740 -0.9627  1.1894
 8479TIP3   OH246851   4.877   1.828   2.378 -0.3324 -0.1714 -0.2691
 8479TIP3    H146852   4.895   1.859   2.290 -0.8630 -2.4877 -1.2741
 8479TIP3    H246853   4.784   1.804   2.377 -0.0694 -1.3282  0.5299
 8480TIP3   OH246854   5.779   1.490   4.732  0.2564 -0.5130 -0.2120
 8480TIP3    H146855   5.852   1.534   4.688 -1.4785  1.7041 -1.1160
 8480TIP3    H246856   5.711   1.484   4.664 -0.4862 -2.4132  0.6226
 8481TIP3   OH246857   0.122   2.547   4.920  0.2514  0.3699 -0.7438
 8481TIP3    H146858   0.037   2.552   4.877  0.4021  0.3974 -1.0410
 8481TIP3    H246859   0.164   2.631   4.903  0.0832  0.5965 -0.0561
 8482TIP3   OH246860   6.422   1.787   1.117  0.6320 -0.0597  0.0580
 8482TIP3    H146861   6.466   1.715   1.072  1.0307 -0.4330  1.0138
 8482TIP3    H246862   6.463   1.866   1.082 -1.1599 -0.1182 -2.4806
 8483TIP3   OH246863   1.951   0.080   1.748  0.5167 -0.0776  0.1480
 8483TIP3    H146864   1.980   0.118   1.664  0.2588  0.0088  0.0991
 8483TIP3    H246865   2.032   0.071   1.798  0.3570  2.9941  1.1895
 8484TIP3   OH246866   3.880   1.503   0.070 -0.1190  0.3706 -0.3409
 8484TIP3    H146867   3.865   1.573   0.007  0.6644 -0.0041 -0.9632
 8484TIP3    H246868   3.800   1.500   0.123  0.2797  2.5788  0.5362
 8485TIP3   OH246869   4.730   4.782   2.130  0.3170  0.0689 -0.3606
 8485TIP3    H146870   4.784   4.861   2.121  0.0472  0.2001 -0.8782
 8485TIP3    H246871   4.660   4.793   2.066 -0.1097 -0.2813  0.0345
 8486TIP3   OH246872   5.214   5.842   6.028  0.3368 -0.1209 -0.5773
 8486TIP3    H146873   5.305   5.857   6.001  0.8359 -1.6721  0.1216
 8486TIP3    H246874   5.215   5.756   6.070 -0.7469  1.3472  2.7941
 8487TIP3   OH246875   0.755   4.771  14.057  0.0053  0.1697  0.6465
 8487TIP3    H146876   0.841   4.773  14.015  0.1196  1.2689  0.8879
 8487TIP3    H246877   0.768   4.721  14.137  0.0692 -0.9010 -0.0159
 8488TIP3   OH246878   3.617   2.974  14.312 -0.2080 -0.0692 -0.4013
 8488TIP3    H146879   3.555   3.016  14.251  1.3324  1.5988 -0.9324
 8488TIP3    H246880   3.700   2.976  14.265  0.8208  0.3225  1.3703
 8489TIP3   OH246881   4.518   2.224  11.216  0.3230 -0.6120  0.0948
 8489TIP3    H146882   4.578   2.295  11.237  1.1215 -0.3866 -2.5953
 8489TIP3    H246883   4.567   2.167  11.157 -1.4282 -1.5540 -0.5330
 8490TIP3   OH246884   5.178   4.572  11.936 -0.0389 -0.3449  0.7039
 8490TIP3    H146885   5.196   4.531  12.020  0.0076 -1.2419  0.2655
 8490TIP3    H246886   5.223   4.656  11.940  1.8174 -1.2877  0.7552
 8491TIP3   OH246887   4.181   3.875   6.469  0.3879 -0.0644 -0.3115
 8491TIP3    H146888   4.134   3.804   6.426 -0.5108 -1.0154  2.0636
 8491TIP3    H246889   4.136   3.955   6.440  0.1629 -0.6051 -1.4952
 8492TIP3   OH246890   3.226   3.610  11.814  0.1018 -0.6488 -0.4044
 8492TIP3    H146891   3.153   3.597  11.874 -1.1071  1.4960 -1.2893
 8492TIP3    H246892   3.282   3.674  11.858  0.4297 -0.8261 -0.5603
 8493TIP3   OH246893   3.839   2.556  12.943 -0.1257 -0.1494 -0.0897
 8493TIP3    H146894   3.818   2.464  12.926 -1.1703 -0.1215  0.9366
 8493TIP3    H246895   3.918   2.552  12.997  0.2665 -0.3996 -0.6648
 8494TIP3   OH246896   6.452   2.917  14.181  0.4500  0.5423  0.2301
 8494TIP3    H146897   6.425   2.931  14.272 -0.4519 -0.2123  0.0981
 8494TIP3    H246898   6.525   2.855  14.186  0.2207  0.2875  0.4267
 8495TIP3   OH246899   4.608   3.188   2.839 -0.3926 -0.3223 -0.2635
 8495TIP3    H146900   4.563   3.161   2.919  1.5532 -1.3321  0.5654
 8495TIP3    H246901   4.600   3.112   2.781 -0.7500 -0.0645 -0.5492
 8496TIP3   OH246902   5.277   1.515  11.265 -0.3327  0.1678 -0.1190
 8496TIP3    H146903   5.181   1.514  11.268 -0.3770  0.9747 -1.0035
 8496TIP3    H246904   5.302   1.423  11.279 -1.1078  0.2973  2.9110
 8497TIP3   OH246905   2.445   6.288   4.563 -0.2035 -0.1115  0.0530
 8497TIP3    H146906   2.421   6.329   4.646  1.6697  1.4176 -0.0909
 8497TIP3    H246907   2.380   6.320   4.501 -0.4523  0.3244  0.5321
 8498TIP3   OH246908   3.445   0.550   0.654  0.5255 -0.0047 -0.1213
 8498TIP3    H146909   3.434   0.589   0.740 -0.2841  0.2636 -0.3389
 8498TIP3    H246910   3.459   0.457   0.672  1.1312  0.1606  0.3270
 8499TIP3   OH246911   0.062   0.375   5.434 -0.5818  0.3675 -0.3200
 8499TIP3    H146912  -0.008   0.337   5.487 -0.5719  0.7224 -0.0485
 8499TIP3    H246913   0.022   0.452   5.393 -0.2150  0.8729  0.2477
 8500TIP3   OH246914   4.724   0.331  11.371  0.3869 -0.1464  0.7971
 8500TIP3    H146915   4.648   0.272  11.362  2.3471 -2.5446 -2.3246
 8500TIP3    H246916   4.697   0.411  11.326 -0.9848 -0.1237  1.6041
 8501TIP3   OH246917   2.697   2.105   4.034  0.1845 -0.0914 -0.6861
 8501TIP3    H146918   2.606   2.132   4.031  0.4969  1.6597  1.8380
 8501TIP3    H246919   2.696   2.025   4.086  0.1023  0.1468 -0.3145
 8502TIP3   OH246920   5.432   2.336  14.381  0.9396 -0.0469 -0.1314
 8502TIP3    H146921   5.372   2.261  14.378 -1.4204  1.7113  0.3252
 8502TIP3    H246922   5.516   2.301  14.350 -0.9341 -2.0895 -3.5681
 8503TIP3   OH246923   0.566   1.092   2.547 -0.4678 -0.1101 -0.4765
 8503TIP3    H146924   0.527   1.005   2.532  1.2246 -0.7145 -1.7026
 8503TIP3    H246925   0.506   1.135   2.608 -1.1126 -2.3143  0.5532
 8504TIP3   OH246926   4.927   2.631  15.226 -0.5294  0.1880 -0.1138
 8504TIP3    H146927   4.893   2.556  15.275 -1.4267 -0.6508 -1.9121
 8504TIP3    H246928   4.997   2.595  15.172 -0.8549  0.6442 -0.8646
 8505TIP3   OH246929   3.928   5.785  14.671 -0.1579  0.5023  0.1056
 8505TIP3    H146930   3.908   5.704  14.717  2.2933  0.0740  0.5547
 8505TIP3    H246931   4.011   5.815  14.710 -0.9259  3.1762 -0.1088
 8506TIP3   OH246932   5.585   2.853   5.388 -0.0471  0.6081 -0.3290
 8506TIP3    H146933   5.663   2.813   5.350  0.1036  1.2189 -0.6700
 8506TIP3    H246934   5.610   2.944   5.406  0.2391  0.1067  2.2224
 8507TIP3   OH246935   3.744   1.122  12.301 -0.6413  0.7314 -0.1972
 8507TIP3    H146936   3.775   1.125  12.211  0.0437  0.1254  0.0105
 8507TIP3    H246937   3.812   1.165  12.352 -1.5831  2.1657 -0.0945
 8508TIP3   OH246938   2.147   4.157  12.042  0.6376 -0.7221  0.2313
 8508TIP3    H146939   2.083   4.093  12.010  1.6710 -1.5292 -0.2559
 8508TIP3    H246940   2.231   4.113  12.034  1.3754  0.7053 -0.0963
 8509TIP3   OH246941   2.141   6.337  15.297 -0.5667 -0.0038  0.0658
 8509TIP3    H146942   2.102   6.253  15.322 -1.9682  0.6787  0.2763
 8509TIP3    H246943   2.201   6.358  15.368 -0.1646 -0.8512 -0.0169
 8510TIP3   OH246944   3.917   6.060   5.902 -0.1911 -0.5390 -0.3535
 8510TIP3    H146945   3.960   6.114   5.835  1.6994 -4.0944 -2.2981
 8510TIP3    H246946   3.963   6.081   5.983 -0.2751  1.4650 -0.7688
 8511TIP3   OH246947   1.697   3.831   0.743 -0.0854 -0.3551 -0.1493
 8511TIP3    H146948   1.770   3.860   0.689  0.4036  3.6104  2.2907
 8511TIP3    H246949   1.621   3.834   0.684  1.0034 -0.0624 -1.5823
 8512TIP3   OH246950   3.971   0.045   1.415 -0.3046 -0.0723  0.1209
 8512TIP3    H146951   3.982   0.059   1.509 -0.8075  0.9158  0.0484
 8512TIP3    H246952   4.060   0.036   1.381 -0.0721  0.5428  0.5531
 8513TIP3   OH246953   3.877   4.912   5.832  0.2789 -0.1763 -0.0064
 8513TIP3    H146954   3.858   4.839   5.892 -2.2196  1.0074  0.7855
 8513TIP3    H246955   3.822   4.894   5.755  1.1237 -0.0814 -0.6481
 8514TIP3   OH246956   3.069   1.489  13.614 -0.3122 -0.2824  0.3339
 8514TIP3    H146957   2.974   1.483  13.605 -0.8387  2.0698  2.7148
 8514TIP3    H246958   3.097   1.540  13.539 -1.0650 -0.2598  0.0592
 8515TIP3   OH246959   5.165   0.239   2.161  0.7210  0.4709 -0.3265
 8515TIP3    H146960   5.092   0.177   2.160  0.2004  0.9217  2.2933
 8515TIP3    H246961   5.143   0.303   2.094 -1.8827  1.1388  1.0336
 8516TIP3   OH246962   0.057   4.897   0.165  0.4222  0.4766  0.0529
 8516TIP3    H146963   0.079   4.887   0.257  1.1464  2.3955  0.1253
 8516TIP3    H246964   0.138   4.877   0.118  0.2407  0.1785 -0.1403
 8517TIP3   OH246965   5.161   6.166   3.911 -0.5083  0.0836  0.3484
 8517TIP3    H146966   5.188   6.253   3.938  1.2053 -0.3570  0.1705
 8517TIP3    H246967   5.086   6.180   3.853 -1.3703  1.3021  1.7066
 8518TIP3   OH246968   2.724   0.197  14.271  0.1620  0.5582 -0.1682
 8518TIP3    H146969   2.768   0.211  14.355  0.6254  1.6339 -0.5766
 8518TIP3    H246970   2.772   0.253  14.210  1.0379 -1.5930 -1.5561
 8519TIP3   OH246971   2.676   6.252  13.244  0.4328 -0.2111 -0.2605
 8519TIP3    H146972   2.677   6.156  13.237  1.4568 -0.1111 -2.1971
 8519TIP3    H246973   2.740   6.271  13.313  0.9457 -0.8994 -0.5288
 8520TIP3   OH246974   5.608   0.795   4.604  0.1866  0.3487 -0.0426
 8520TIP3    H146975   5.658   0.718   4.576  1.2638  0.9135  0.2515
 8520TIP3    H246976   5.662   0.833   4.673 -0.2565  1.4629 -0.3022
 8521TIP3   OH246977   2.483   1.055   3.255 -0.2627 -0.4202  0.5217
 8521TIP3    H146978   2.460   1.143   3.284  3.2399  0.3747  1.2718
 8521TIP3    H246979   2.527   1.015   3.330 -0.7739 -2.4286 -0.1773
 8522TIP3   OH246980   2.104   2.070  11.069  0.1994  0.2702 -0.0798
 8522TIP3    H146981   2.195   2.040  11.073  0.1064 -0.1744 -0.9945
 8522TIP3    H246982   2.063   2.031  11.146  0.0646 -2.0892 -1.2634
 8523TIP3   OH246983   5.437   0.913  11.334 -0.1669  0.2428  0.6057
 8523TIP3    H146984   5.395   0.971  11.397 -0.5950  0.2256  0.3399
 8523TIP3    H246985   5.467   0.972  11.264  0.9960  0.3624  1.1764
 8524TIP3   OH246986   5.307   3.455  14.166 -0.0098  0.2029 -0.3247
 8524TIP3    H146987   5.240   3.456  14.098  0.0310  1.5647 -0.3670
 8524TIP3    H246988   5.386   3.485  14.122  0.0739  0.8618  0.2569
 8525TIP3   OH246989   3.950   0.764   5.418 -0.2831  0.0301 -0.3065
 8525TIP3    H146990   3.864   0.806   5.410 -0.7632 -0.4183  1.7536
 8525TIP3    H246991   4.000   0.796   5.343 -1.4304  2.2896 -0.2077
 8526TIP3   OH246992   2.962   2.284   2.560  0.4331 -0.1767  0.2697
 8526TIP3    H146993   2.900   2.249   2.624  1.7323 -0.0969  1.6048
 8526TIP3    H246994   2.915   2.278   2.476 -0.6779 -1.8567  0.9555
 8527TIP3   OH246995   4.360   2.447  12.705 -0.0291  0.3481  0.4709
 8527TIP3    H146996   4.294   2.505  12.668 -0.0408 -0.4706 -0.8502
 8527TIP3    H246997   4.435   2.455  12.646  0.1832 -0.5278  0.6119
 8528TIP3   OH246998   2.485   0.189  16.203 -0.7608 -0.6905 -0.1201
 8528TIP3    H146999   2.518   0.212  16.117 -1.4811 -1.0300 -0.4983
 8528TIP3    H247000   2.398   0.229  16.208 -0.8583 -0.9360  0.3138
 8529TIP3   OH247001   1.755   4.309   6.395  0.2755  0.0729 -0.1936
 8529TIP3    H147002   1.738   4.275   6.307  0.1757  0.7308 -0.4348
 8529TIP3    H247003   1.749   4.232   6.452 -0.0036 -0.3003 -0.7171
 8530TIP3   OH247004   1.960   1.257   0.721 -0.1090 -0.2294 -0.8254
 8530TIP3    H147005   1.878   1.245   0.673 -0.1890  0.3166 -0.8274
 8530TIP3    H247006   1.959   1.186   0.786  1.4568 -2.9134 -3.5352
 8531TIP3   OH247007   3.828   2.668  13.780 -0.3404  0.2101 -0.4009
 8531TIP3    H147008   3.920   2.653  13.758  0.7028  2.3284  1.9567
 8531TIP3    H247009   3.793   2.580  13.799  1.4195 -0.5565 -0.5374
 8532TIP3   OH247010   6.042   4.153   5.296 -0.1028 -0.5256 -0.8576
 8532TIP3    H147011   6.041   4.068   5.252 -0.6611 -0.2862 -1.3176
 8532TIP3    H247012   6.105   4.142   5.367  0.7461 -0.9581 -1.6536
 8533TIP3   OH247013   0.516   6.513  12.573  0.0445 -0.1050 -0.0157
 8533TIP3    H147014   0.579   6.568  12.526  0.3810 -1.1371 -0.7939
 8533TIP3    H247015   0.511   6.552  12.661 -0.4646  1.7528 -0.8208
 8534TIP3   OH247016   1.294   3.335  15.887 -0.3208  0.2694  0.0383
 8534TIP3    H147017   1.365   3.353  15.825 -0.4162  0.1781 -0.0974
 8534TIP3    H247018   1.315   3.389  15.963 -0.5804  0.9149 -0.3420
 8535TIP3   OH247019   1.333   5.597   6.266 -0.1472  0.0156  0.9766
 8535TIP3    H147020   1.353   5.514   6.223  0.0507  1.1067 -1.2172
 8535TIP3    H247021   1.417   5.643   6.270 -0.4629  0.6184  0.9553
 8536TIP3   OH247022   5.746   3.607  11.349  0.4407 -0.3918 -0.1788
 8536TIP3    H147023   5.740   3.592  11.255  0.7164 -0.1114 -0.2427
 8536TIP3    H247024   5.809   3.541  11.380  1.2065  0.2341 -0.3685
 8537TIP3   OH247025   4.669   4.890  12.139  0.2416  0.1578 -0.1257
 8537TIP3    H147026   4.762   4.914  12.142 -0.2680  2.4375 -0.6038
 8537TIP3    H247027   4.623   4.969  12.168 -1.5389 -1.2818  1.2256
 8538TIP3   OH247028   1.171   0.894   4.553 -0.7275 -0.1131 -0.0553
 8538TIP3    H147029   1.194   0.976   4.598 -1.1514 -0.1799  0.2888
 8538TIP3    H247030   1.207   0.904   4.465  0.4551 -0.1385  0.4062
 8539TIP3   OH247031   3.296   0.949   2.664 -0.4043 -0.2022  0.0425
 8539TIP3    H147032   3.224   1.007   2.639  1.6966  2.8128  0.4823
 8539TIP3    H247033   3.351   0.943   2.585  0.4565  0.1029  0.6077
 8540TIP3   OH247034   0.228   1.252   2.158  0.0374  0.3020  0.5992
 8540TIP3    H147035   0.149   1.204   2.183  0.5461  0.2602  2.2950
 8540TIP3    H247036   0.197   1.338   2.130 -0.6951 -0.1454  0.0205
 8541TIP3   OH247037   3.391   4.122  10.795 -0.2114  0.0918 -0.1888
 8541TIP3    H147038   3.434   4.088  10.716 -2.5663 -1.0511 -1.0492
 8541TIP3    H247039   3.306   4.153  10.764 -0.8983  0.2982  1.8024
 8542TIP3   OH247040   2.683   0.356  13.452 -0.0414 -0.0592  0.3690
 8542TIP3    H147041   2.685   0.267  13.416  1.6665 -0.3158  1.0070
 8542TIP3    H247042   2.631   0.349  13.531 -0.9953 -0.2021 -0.2554
 8543TIP3   OH247043   1.051   0.898  15.669  0.1059 -0.7126 -0.2892
 8543TIP3    H147044   1.088   0.814  15.640 -0.1706 -0.7619 -0.4966
 8543TIP3    H247045   1.043   0.889  15.764  0.0522 -0.9295 -0.3151
 8544TIP3   OH247046   6.771   2.170   5.363  0.1169  0.1814 -0.0818
 8544TIP3    H147047   6.793   2.185   5.271  0.1279 -0.3966 -0.1729
 8544TIP3    H247048   6.838   2.111   5.395  1.1026  1.6852  0.7627
 8545TIP3   OH247049   0.602   1.901  11.345 -0.1065  0.0859  0.9456
 8545TIP3    H147050   0.509   1.884  11.358 -0.0802 -0.2069  0.7724
 8545TIP3    H247051   0.645   1.818  11.367 -0.0404 -0.3373 -0.6672
 8546TIP3   OH247052   0.465   5.082   5.214 -0.2979  0.0880 -0.0021
 8546TIP3    H147053   0.463   5.023   5.138 -2.6996 -0.6142  0.5164
 8546TIP3    H247054   0.457   5.023   5.289 -0.3116  0.9357  0.6678
 8547TIP3   OH247055   1.669   3.253  12.564  0.2585  0.1996  0.4650
 8547TIP3    H147056   1.575   3.234  12.567  0.6250 -1.7455  0.5410
 8547TIP3    H247057   1.692   3.244  12.472  0.4281  0.3957  0.4881
 8548TIP3   OH247058   5.192   5.146   6.148 -0.1981  0.4026  0.9819
 8548TIP3    H147059   5.172   5.205   6.221 -0.4575 -1.0124  2.0840
 8548TIP3    H247060   5.261   5.089   6.181  0.1862  0.2077 -0.1324
 8549TIP3   OH247061   5.984   6.297  16.815  0.3365 -0.1484  0.0017
 8549TIP3    H147062   5.909   6.265  16.765  1.6409 -1.6803 -1.0753
 8549TIP3    H247063   6.060   6.264  16.769  1.7808  2.4076  0.3465
 8550TIP3   OH247064   4.224   0.997  11.324  0.4230 -0.4056 -0.1766
 8550TIP3    H147065   4.213   0.970  11.233  3.4508 -0.0716 -0.7781
 8550TIP3    H247066   4.290   0.937  11.359  0.5285  0.4928  1.2597
 8551TIP3   OH247067   1.360   3.745   3.533 -0.2353 -0.9967  0.0863
 8551TIP3    H147068   1.415   3.687   3.586  1.2729  0.1460 -0.1443
 8551TIP3    H247069   1.297   3.781   3.595 -1.1550 -2.7815  0.2497
 8552TIP3   OH247070   2.544   1.059  11.000 -0.7593  0.6447 -0.3896
 8552TIP3    H147071   2.481   1.092  10.936  2.6774  0.7838 -4.0934
 8552TIP3    H247072   2.595   0.993  10.953  1.9933  0.6418  2.2424
 8553TIP3   OH247073   6.201   2.274   4.363 -0.1076  0.1208  0.1269
 8553TIP3    H147074   6.269   2.285   4.296  0.8022 -0.2373  0.9636
 8553TIP3    H247075   6.241   2.217   4.428 -1.2023 -0.0439  0.6737
 8554TIP3   OH247076   3.686   4.803  11.139  0.7290  0.1202  0.1663
 8554TIP3    H147077   3.778   4.800  11.167  0.7249  1.0256  0.3127
 8554TIP3    H247078   3.655   4.714  11.149  2.0589 -0.5823 -1.4175
 8555TIP3   OH247079   4.651   5.449  11.182  0.4830  1.1188 -0.5808
 8555TIP3    H147080   4.637   5.355  11.175  1.0417  1.0603 -0.9650
 8555TIP3    H247081   4.721   5.458  11.247  0.3307  1.2731 -0.4385
 8556TIP3   OH247082   1.649   2.030  11.441 -0.0961  0.0522  0.8790
 8556TIP3    H147083   1.714   2.003  11.376  0.0148  0.7206  0.6962
 8556TIP3    H247084   1.656   2.126  11.442  0.1217  0.0430  2.0998
 8557TIP3   OH247085   3.076   5.348  16.028 -0.2028  0.2774  0.3002
 8557TIP3    H147086   3.167   5.318  16.025  0.0123  0.9119  0.4524
 8557TIP3    H247087   3.046   5.325  16.116  0.2745  1.3910  0.7736
 8558TIP3   OH247088   6.808   0.555   1.666  0.0862  0.8655  0.2052
 8558TIP3    H147089   6.767   0.625   1.717 -0.6674 -1.8835  3.7128
 8558TIP3    H247090   6.746   0.538   1.595 -1.1046  1.8265  0.9785
 8559TIP3   OH247091   4.419   2.360   4.924 -0.1513  0.2723  0.1913
 8559TIP3    H147092   4.385   2.381   5.011 -1.9067  0.1555 -0.4275
 8559TIP3    H247093   4.351   2.306   4.884  0.9233 -0.2447 -1.0270
 8560TIP3   OH247094   5.917   0.488   2.935 -0.0083 -0.3930  0.0397
 8560TIP3    H147095   5.827   0.475   2.962 -0.5302  0.6241 -1.0918
 8560TIP3    H247096   5.952   0.553   2.995 -0.2036 -0.3845  0.1430
 8561TIP3   OH247097   3.050   2.179   1.501  0.3306  0.5945 -0.3378
 8561TIP3    H147098   3.116   2.112   1.515  1.4595  1.4365 -1.3692
 8561TIP3    H247099   3.071   2.247   1.565  1.1593  1.3312 -1.3533
 8562TIP3   OH247100   1.562   3.884  11.210  0.0314 -0.3546 -0.4966
 8562TIP3    H147101   1.475   3.882  11.250 -0.2940 -0.0496 -1.1850
 8562TIP3    H247102   1.597   3.971  11.231  0.8306 -1.0194  1.1359
 8563TIP3   OH247103   4.632   5.484  16.642  0.1032  0.1194 -0.5357
 8563TIP3    H147104   4.710   5.519  16.686 -0.2006 -0.3246  0.3788
 8563TIP3    H247105   4.664   5.453  16.557  0.5083  1.9544 -1.0952
 8564TIP3   OH247106   0.443   2.111   5.426  0.4579 -0.3300  0.5380
 8564TIP3    H147107   0.438   2.037   5.487  2.4359 -0.6086  0.4218
 8564TIP3    H247108   0.536   2.136   5.426  0.1197  1.0524 -0.7335
 8565TIP3   OH247109   4.673   6.015   1.512  0.2537 -0.4678  0.2626
 8565TIP3    H147110   4.686   6.108   1.494 -0.3263 -0.4062  0.1231
 8565TIP3    H247111   4.596   6.012   1.569  0.2086 -0.8696  0.1858
 8566TIP3   OH247112   4.557   1.636   0.025  0.0148 -0.0833  0.3330
 8566TIP3    H147113   4.545   1.641  -0.070  2.0519 -0.5731 -0.0077
 8566TIP3    H247114   4.469   1.646   0.061 -0.8290 -0.0357 -1.6049
 8567TIP3   OH247115   0.037   2.671  13.456  0.3869  0.2228  0.5749
 8567TIP3    H147116   0.035   2.696  13.548 -2.0829  0.3327  0.5568
 8567TIP3    H247117   0.076   2.747  13.412 -1.2995  1.5271  1.2154
 8568TIP3   OH247118   2.259   2.751   0.878 -0.2910 -0.5572 -0.2598
 8568TIP3    H147119   2.204   2.799   0.940  0.1149 -0.8397  0.3268
 8568TIP3    H247120   2.222   2.772   0.792 -1.9684 -1.5482  0.1569
 8569TIP3   OH247121   4.623   6.446   4.316  0.0391  0.9911 -0.3071
 8569TIP3    H147122   4.634   6.508   4.244 -1.7487  1.4462 -0.2263
 8569TIP3    H247123   4.665   6.366   4.285  0.5430  1.6121 -1.2700
 8570TIP3   OH247124   0.335   6.026  15.173 -0.0956  0.5186 -0.2240
 8570TIP3    H147125   0.396   5.980  15.116 -0.1077  1.1974 -0.7895
 8570TIP3    H247126   0.391   6.083  15.227 -0.1107  0.0976  0.2478
 8571TIP3   OH247127   5.874   0.065   2.394  0.0145  0.8392  0.1534
 8571TIP3    H147128   5.940   0.053   2.325  0.1962  3.3749 -0.2213
 8571TIP3    H247129   5.865   0.160   2.402 -2.1298  0.5867  1.6333
 8572TIP3   OH247130   1.448   5.834  13.483  0.2536  0.2050 -0.2634
 8572TIP3    H147131   1.541   5.846  13.503  0.1124  0.7101  0.1114
 8572TIP3    H247132   1.446   5.757  13.425  0.8142 -0.3832  0.4732
 8573TIP3   OH247133   6.740   4.632  13.949  0.4944  0.1018  0.1638
 8573TIP3    H147134   6.743   4.561  14.013 -1.2390 -0.9395 -0.8044
 8573TIP3    H247135   6.828   4.636  13.913  0.8288 -1.0456  0.7924
 8574TIP3   OH247136   6.485   5.670   0.954  0.0727  0.0653 -0.2785
 8574TIP3    H147137   6.552   5.616   0.912 -0.1697 -1.0225  0.6928
 8574TIP3    H247138   6.433   5.609   1.006 -0.3862  1.1873  0.6431
 8575TIP3   OH247139   1.317   2.218  13.567 -0.1364  0.1735 -0.3562
 8575TIP3    H147140   1.343   2.184  13.482 -1.6687  0.8713 -1.1389
 8575TIP3    H247141   1.302   2.311  13.553  1.7756  0.7834  1.2335
 8576TIP3   OH247142   3.958   1.583   5.298  0.2270  0.4109  0.0565
 8576TIP3    H147143   3.934   1.669   5.330  0.2847 -0.0902  1.5204
 8576TIP3    H247144   4.042   1.563   5.339  0.6313 -0.0053 -0.9253
 8577TIP3   OH247145   2.030   6.497  12.144  0.5389 -0.3059  0.1392
 8577TIP3    H147146   2.037   6.503  12.239 -2.7629  0.0494  0.5019
 8577TIP3    H247147   2.020   6.403  12.126  0.6649 -0.3295  0.1934
 8578TIP3   OH247148   0.850   6.068  13.202  0.0077  0.1522 -0.3117
 8578TIP3    H147149   0.769   6.117  13.217 -0.3058 -0.5787  0.4797
 8578TIP3    H247150   0.918   6.119  13.247 -0.4421 -0.4948  1.1657
 8579TIP3   OH247151   4.148   0.261   2.116 -0.0301 -0.0147 -0.1499
 8579TIP3    H147152   4.111   0.173   2.131 -2.7071  0.7598 -1.4662
 8579TIP3    H247153   4.220   0.247   2.055  1.4202 -1.5346  1.7935
 8580TIP3   OH247154   3.617   0.641   5.188 -0.6064 -0.2573 -0.1127
 8580TIP3    H147155   3.611   0.550   5.217 -0.9865 -0.2347 -0.1201
 8580TIP3    H247156   3.583   0.640   5.099  0.5251 -0.3200 -0.5616
 8581TIP3   OH247157   3.790   5.196  13.851 -0.0239 -0.1118 -0.2250
 8581TIP3    H147158   3.852   5.132  13.886  0.9300  0.2403 -1.2157
 8581TIP3    H247159   3.835   5.280  13.860 -1.2349  0.4400  0.9898
 8582TIP3   OH247160   1.702   1.186  15.672  0.2521  0.0028 -0.0174
 8582TIP3    H147161   1.749   1.117  15.626  2.5185 -0.4163  2.6257
 8582TIP3    H247162   1.617   1.148  15.693  1.1684 -1.7505  0.7181
 8583TIP3   OH247163   1.267   3.024  16.266  0.4496  0.1685  0.1042
 8583TIP3    H147164   1.289   2.980  16.184  0.3594 -1.2187  0.7991
 8583TIP3    H247165   1.210   3.097  16.240  1.5704  0.6209 -1.1873
 8584TIP3   OH247166   2.231   4.285  15.731 -0.3354 -0.1132  0.5074
 8584TIP3    H147167   2.209   4.297  15.823  0.2411  1.3533  0.4928
 8584TIP3    H247168   2.325   4.266  15.732 -0.3073  0.0099  0.2191
 8585TIP3   OH247169   6.016   2.333  13.842 -0.4851 -0.1601 -0.3904
 8585TIP3    H147170   6.074   2.312  13.768  0.3632  0.7592 -0.0080
 8585TIP3    H247171   5.933   2.291  13.821  0.3386 -1.5777 -0.9328
 8586TIP3   OH247172   6.538   3.678   2.858  0.2609 -0.2891 -0.1043
 8586TIP3    H147173   6.484   3.650   2.932  0.5182 -0.5802 -0.0231
 8586TIP3    H247174   6.607   3.612   2.853  0.8498  0.3043  0.0499
 8587TIP3   OH247175   3.469   6.254   3.782  0.3992 -0.0362  0.1710
 8587TIP3    H147176   3.434   6.338   3.753  2.4259  0.8937  0.2705
 8587TIP3    H247177   3.433   6.241   3.870 -1.6046 -0.3494 -0.6300
 8588TIP3   OH247178   1.285   3.025  10.478 -0.1359 -0.4338  0.7873
 8588TIP3    H147179   1.266   2.936  10.509 -1.2711 -0.3405  0.3981
 8588TIP3    H247180   1.377   3.022  10.451 -0.0747 -1.3997  1.0592
 8589TIP3   OH247181   4.799   0.702   3.255 -0.1482  0.3765  0.2744
 8589TIP3    H147182   4.715   0.660   3.237 -0.2649  0.4397  0.6583
 8589TIP3    H247183   4.790   0.736   3.344 -1.0051  3.4961 -0.8967
 8590TIP3   OH247184   0.040   0.879  16.286  0.3266 -0.5771  0.1588
 8590TIP3    H147185  -0.030   0.875  16.350  0.5962 -1.8157  0.4001
 8590TIP3    H247186   0.055   0.973  16.271 -2.0790 -0.2697 -0.6890
 8591TIP3   OH247187   4.193   0.896   5.745 -0.4315 -0.0861  0.2051
 8591TIP3    H147188   4.136   0.819   5.751  0.7484 -0.9345  1.0609
 8591TIP3    H247189   4.179   0.929   5.656 -2.6462  0.0952  0.5615
 8592TIP3   OH247190   5.128   3.692  13.867 -0.2492  0.2355  0.0928
 8592TIP3    H147191   5.197   3.716  13.804  0.0543 -1.6109 -0.3223
 8592TIP3    H247192   5.100   3.776  13.904  1.2997  1.1476 -0.6921
 8593TIP3   OH247193   2.279   5.869  12.165  0.0453 -0.1740  0.0050
 8593TIP3    H147194   2.273   5.964  12.158 -1.3654 -0.1484  1.0011
 8593TIP3    H247195   2.287   5.839  12.075 -0.8090  0.8386 -0.4339
 8594TIP3   OH247196   5.323   1.032  13.396 -0.3439 -0.4270  0.8912
 8594TIP3    H147197   5.298   0.973  13.325  0.7530  0.3359 -0.1594
 8594TIP3    H247198   5.375   1.100  13.354  0.4902 -0.0533  2.4514
 8595TIP3   OH247199   6.370   6.719   4.446  0.1328  0.1227 -0.7098
 8595TIP3    H147200   6.373   6.800   4.497  0.7467  0.2226 -0.8862
 8595TIP3    H247201   6.375   6.749   4.355  0.3891 -0.1150 -0.7735
 8596TIP3   OH247202   5.791   2.094   1.969 -0.0086  0.1782  0.0547
 8596TIP3    H147203   5.876   2.114   1.928 -0.9268 -0.5443 -2.3817
 8596TIP3    H247204   5.781   2.161   2.037  2.4456  0.3379  0.3553
 8597TIP3   OH247205   0.295   2.754   4.128  0.2140 -0.5413  0.3640
 8597TIP3    H147206   0.242   2.682   4.095 -0.6903  0.1067  0.3594
 8597TIP3    H247207   0.247   2.787   4.204  0.9556 -0.3622  0.7741
 8598TIP3   OH247208   5.388   1.797   4.072  0.4364 -0.1466 -0.0308
 8598TIP3    H147209   5.476   1.833   4.069  1.5492 -2.7182 -2.0721
 8598TIP3    H247210   5.400   1.703   4.088 -1.9258 -0.5644 -0.2552
 8599TIP3   OH247211   3.216   2.632   3.161  0.2221 -0.4533 -0.1975
 8599TIP3    H147212   3.137   2.685   3.148 -0.1974 -0.8660  0.6157
 8599TIP3    H247213   3.288   2.695   3.160 -0.1533 -0.0228 -0.5181
 8600TIP3   OH247214   3.176   1.228  13.698 -0.4088 -0.3656 -0.2467
 8600TIP3    H147215   3.118   1.152  13.693 -0.2639 -0.4870 -0.1105
 8600TIP3    H247216   3.120   1.303  13.675 -1.3722 -0.1085  2.4930
 8601TIP3   OH247217   0.764   5.308  15.681  0.6039  0.0465  0.1345
 8601TIP3    H147218   0.771   5.222  15.639 -0.3211 -0.2726  0.6008
 8601TIP3    H247219   0.753   5.289  15.774 -2.1114  0.5213 -0.0104
 8602TIP3   OH247220   3.381   3.629  10.637  0.4806 -0.2737 -0.0598
 8602TIP3    H147221   3.432   3.582  10.571 -1.4719  0.1955 -2.0262
 8602TIP3    H247222   3.314   3.566  10.665  2.5931 -1.2737  3.3129
 8603TIP3   OH247223   0.082   5.458  11.489  0.1777 -0.0552  0.0032
 8603TIP3    H147224   0.066   5.460  11.394 -1.0517 -2.0591  0.1223
 8603TIP3    H247225   0.157   5.399  11.498 -1.1390 -1.7482  0.3822
 8604TIP3   OH247226   2.986   0.699  14.727 -0.5652 -0.0513 -0.4168
 8604TIP3    H147227   3.051   0.737  14.668  2.2678 -1.2521  1.7052
 8604TIP3    H247228   2.961   0.772  14.784  0.6551 -0.0367  0.1393
 8605TIP3   OH247229   0.915   1.891  15.132 -0.3394  0.2455  0.2461
 8605TIP3    H147230   0.934   1.798  15.144 -1.6793  0.0708  1.2620
 8605TIP3    H247231   0.981   1.921  15.070 -0.4036 -1.5749 -0.7820
 8606TIP3   OH247232   2.776   2.866   5.936 -0.3362  0.3714 -0.4314
 8606TIP3    H147233   2.844   2.837   5.874 -0.9944  0.1720 -1.0697
 8606TIP3    H247234   2.811   2.842   6.021  0.1143 -0.3133 -0.7968
 8607TIP3   OH247235   1.813   4.058   3.068  0.2421  0.3061 -0.0569
 8607TIP3    H147236   1.781   4.088   3.153  0.8104  1.4704 -0.2359
 8607TIP3    H247237   1.767   4.113   3.005  1.1334  0.6421 -0.4151
 8608TIP3   OH247238   3.308   4.014   4.545 -0.1807 -0.2222 -0.4380
 8608TIP3    H147239   3.365   4.083   4.579  0.1097 -0.8393  0.3463
 8608TIP3    H247240   3.244   3.999   4.615  0.3799 -1.4502 -0.1714
 8609TIP3   OH247241   0.592   2.669   5.175 -0.0133 -0.2222 -0.3550
 8609TIP3    H147242   0.532   2.743   5.173 -2.2494 -1.9191 -0.8032
 8609TIP3    H247243   0.535   2.592   5.179  2.1795 -1.9463  0.1649
 8610TIP3   OH247244   5.629   4.838  13.927 -0.2262  0.5570 -0.1970
 8610TIP3    H147245   5.557   4.897  13.950  0.0599  1.3826 -1.2969
 8610TIP3    H247246   5.586   4.761  13.889 -0.5435  1.1722 -1.1320
 8611TIP3   OH247247   5.115   3.940   1.103  0.0363  0.1432 -0.4373
 8611TIP3    H147248   5.055   4.014   1.095  1.2724  1.0205 -2.3084
 8611TIP3    H247249   5.117   3.901   1.015  1.7075 -0.2462 -0.2512
 8612TIP3   OH247250   2.440   6.497   4.117  0.0202 -0.4012  0.3405
 8612TIP3    H147251   2.409   6.447   4.193 -1.7183 -1.3883 -0.9265
 8612TIP3    H247252   2.508   6.442   4.078 -0.2243 -0.6856  0.3008
 8613TIP3   OH247253   4.355   0.309  11.409  0.4273 -0.1637 -0.1215
 8613TIP3    H147254   4.338   0.263  11.327  0.5709 -0.1961 -0.1330
 8613TIP3    H247255   4.340   0.243  11.477  0.3251 -0.1414 -0.1231
 8614TIP3   OH247256   4.625   1.344   1.043 -0.2807  0.4085  0.0943
 8614TIP3    H147257   4.660   1.257   1.061 -0.7834  0.0871 -0.4399
 8614TIP3    H247258   4.664   1.400   1.110  0.4206 -0.1341  0.1519
 8615TIP3   OH247259   5.644   2.811  13.087  0.1294 -0.4449 -0.0977
 8615TIP3    H147260   5.620   2.777  13.173 -0.9600 -0.4540 -0.3790
 8615TIP3    H247261   5.735   2.786  13.075  0.4433 -0.0420  1.2416
 8616TIP3   OH247262   1.845   4.729   1.909 -0.0921  0.4947  0.3134
 8616TIP3    H147263   1.873   4.775   1.988 -1.3143 -0.3960  1.3166
 8616TIP3    H247264   1.871   4.638   1.924 -1.2952  0.1147  0.1979
 8617TIP3   OH247265   0.190   2.527  15.435  0.6050  0.0150  0.2657
 8617TIP3    H147266   0.105   2.569  15.424  2.0613  3.8356  1.7704
 8617TIP3    H247267   0.219   2.507  15.346 -1.5266 -0.7334 -0.3100
 8618TIP3   OH247268   2.204   1.453   5.792 -0.5934 -0.2474 -0.6508
 8618TIP3    H147269   2.294   1.432   5.816 -0.0741  0.0914 -2.2207
 8618TIP3    H247270   2.209   1.541   5.753 -1.4025 -0.7144 -1.8548
 8619TIP3   OH247271   6.616   1.883  10.606 -0.1500  0.1491 -0.0890
 8619TIP3    H147272   6.527   1.900  10.637  0.3402  0.3113  1.3342
 8619TIP3    H247273   6.605   1.827  10.529 -1.4696 -0.0088  0.1925
 8620TIP3   OH247274   5.553   2.510   5.413  0.0746  0.4091 -0.0363
 8620TIP3    H147275   5.501   2.458   5.352 -1.6613  1.1974  0.6906
 8620TIP3    H247276   5.566   2.453   5.489  0.0225  0.3147 -0.0990
 8621TIP3   OH247277   1.109   1.948   6.162 -0.4077  0.2774 -0.0744
 8621TIP3    H147278   1.141   2.034   6.187  1.1510 -0.0258 -0.9043
 8621TIP3    H247279   1.050   1.964   6.089 -0.7720  0.7063  0.3140
 8622TIP3   OH247280   3.752   0.883  16.532 -0.1033 -0.4798 -0.1481
 8622TIP3    H147281   3.823   0.919  16.586  1.2277 -1.3618 -1.2329
 8622TIP3    H247282   3.677   0.940  16.550  0.4448 -0.3617  2.1201
 8623TIP3   OH247283   6.259   5.577   5.358 -0.6869 -0.0235 -0.0320
 8623TIP3    H147284   6.340   5.622   5.382  0.1459 -2.1759  1.5406
 8623TIP3    H247285   6.239   5.608   5.270  1.0436  1.6546  0.1198
 8624TIP3   OH247286   4.878   4.724   0.947 -0.1346 -0.3535 -0.2033
 8624TIP3    H147287   4.916   4.776   0.876  0.6881  0.2017  0.6138
 8624TIP3    H247288   4.912   4.636   0.934  0.8379 -0.0268  0.0811
 8625TIP3   OH247289   1.316   5.461   2.443  0.3248  0.1670  0.0371
 8625TIP3    H147290   1.310   5.426   2.355  0.9403  2.5282 -1.0189
 8625TIP3    H247291   1.225   5.475   2.470  0.0384 -2.3455  0.6237
 8626TIP3   OH247292   5.916   3.599  16.547  0.8556 -0.2900 -0.8199
 8626TIP3    H147293   5.901   3.532  16.613  0.3487 -0.3938 -1.0341
 8626TIP3    H247294   5.879   3.562  16.466  1.8270 -0.3345 -1.2575
 8627TIP3   OH247295   5.370   0.831   3.752  0.0505  0.0374  0.3607
 8627TIP3    H147296   5.367   0.768   3.824  0.4937 -0.6509 -0.2104
 8627TIP3    H247297   5.292   0.885   3.764  0.0476 -0.1524  1.2775
 8628TIP3   OH247298   2.425   4.139   5.169 -0.7070 -0.4986 -0.4827
 8628TIP3    H147299   2.404   4.225   5.133 -0.5927 -0.3973 -0.3111
 8628TIP3    H247300   2.512   4.119   5.135  0.7731  0.9538  2.1007
 8629TIP3   OH247301   2.949   6.010   3.853 -0.5036 -0.2207 -0.0658
 8629TIP3    H147302   2.862   6.000   3.815 -2.0045  3.4488  1.8468
 8629TIP3    H247303   2.999   6.057   3.787 -1.3883  1.3445  0.3227
 8630TIP3   OH247304   1.672   2.079   5.845  0.4445 -0.2682  0.0860
 8630TIP3    H147305   1.697   2.083   5.752 -1.2424  0.4374 -0.3806
 8630TIP3    H247306   1.753   2.060   5.891  1.9775  2.4623 -1.2542
 8631TIP3   OH247307   5.985   0.322   4.228 -0.1368 -0.9004  0.4658
 8631TIP3    H147308   5.992   0.228   4.210 -2.1690 -1.1941  0.9699
 8631TIP3    H247309   5.891   0.337   4.239  0.1497  1.2212  0.3112
 8632TIP3   OH247310   4.703   0.525   0.929  0.6966  0.0241  0.4806
 8632TIP3    H147311   4.759   0.448   0.932 -0.5832 -1.1274 -2.2132
 8632TIP3    H247312   4.614   0.491   0.922 -0.2751  1.8128  2.6264
 8633TIP3   OH247313   6.660   2.304  16.366  0.2345  0.2498 -0.0716
 8633TIP3    H147314   6.724   2.268  16.304 -0.9244 -0.6279 -0.7935
 8633TIP3    H247315   6.586   2.331  16.311 -0.3312  0.5569  0.8200
 8634TIP3   OH247316   5.038   1.246  11.857 -0.3526  0.3657 -0.1998
 8634TIP3    H147317   5.021   1.304  11.932 -1.4707 -0.0228 -0.1278
 8634TIP3    H247318   5.098   1.179  11.891 -0.5420  0.4197  0.2442
 8635TIP3   OH247319   1.134   6.408  13.792  0.0291  0.3420 -0.1982
 8635TIP3    H147320   1.049   6.391  13.751  0.4754 -1.3358 -0.5023
 8635TIP3    H247321   1.180   6.463  13.729 -0.5702  0.6816 -0.3499
 8636TIP3   OH247322   4.249   6.266   5.302  0.0975 -0.6663  0.0641
 8636TIP3    H147323   4.214   6.347   5.339  1.4719 -0.1066  0.2250
 8636TIP3    H247324   4.244   6.202   5.373 -1.7776 -0.9942 -0.3191
 8637TIP3   OH247325   0.219   2.728  14.233  0.0311  0.8022 -0.4683
 8637TIP3    H147326   0.186   2.781  14.305 -0.0664  1.2619 -0.8393
 8637TIP3    H247327   0.141   2.696  14.188 -0.0185  3.2009 -2.2992
 8638TIP3   OH247328   4.739   3.913  12.249  0.9998  0.6373  0.2625
 8638TIP3    H147329   4.766   3.962  12.327  0.6387  1.0204  0.1531
 8638TIP3    H247330   4.778   3.826  12.260  2.1011  1.1099  0.2043
 8639TIP3   OH247331   6.473   1.268  15.671  0.4468 -0.1496  0.1955
 8639TIP3    H147332   6.407   1.302  15.732 -0.1510  0.2588 -0.6517
 8639TIP3    H247333   6.509   1.191  15.714 -0.4597 -0.2717  0.7603
 8640TIP3   OH247334   5.285   5.861  11.479  0.0102 -0.3353  0.3249
 8640TIP3    H147335   5.322   5.885  11.394  0.0027 -0.1116  0.3843
 8640TIP3    H247336   5.203   5.816  11.458 -1.1341  1.6959  0.2650
 8641TIP3   OH247337   2.665   6.152  16.416 -0.4951  0.5955  0.0475
 8641TIP3    H147338   2.714   6.092  16.360 -0.7742 -1.0580  1.4990
 8641TIP3    H247339   2.577   6.115  16.420 -0.8097  1.3739  0.5818
 8642TIP3   OH247340   3.183   3.525  15.557  0.0915  0.0239  0.2979
 8642TIP3    H147341   3.199   3.452  15.498  1.4012  1.4041 -1.1201
 8642TIP3    H247342   3.253   3.518  15.623  0.3450  0.1287  0.0400
 8643TIP3   OH247343   1.435   6.722  15.782  0.5216  0.2112  0.2732
 8643TIP3    H147344   1.422   6.726  15.876  3.0855 -1.5596  0.8009
 8643TIP3    H247345   1.411   6.633  15.757 -2.2865  1.2605 -1.2447
 8644TIP3   OH247346   2.246   1.006   4.604  0.0035  0.2628  0.0482
 8644TIP3    H147347   2.216   1.012   4.513  0.7005 -0.1770 -0.2300
 8644TIP3    H247348   2.168   1.016   4.657 -0.4788  0.1017 -0.6217
 8645TIP3   OH247349   0.039   1.450  14.380 -0.0335 -0.2015  0.3030
 8645TIP3    H147350   0.079   1.507  14.446 -1.3211  0.7267  0.3102
 8645TIP3    H247351   0.108   1.437  14.315  0.0500  2.1103 -0.1563
 8646TIP3   OH247352   3.079   3.770   1.190 -0.4278 -0.8550  0.0165
 8646TIP3    H147353   3.039   3.796   1.273 -1.8207 -1.3771 -0.4468
 8646TIP3    H247354   3.004   3.754   1.132  0.4131 -3.0043 -0.5708
 8647TIP3   OH247355   1.484   1.568   0.617  0.1528 -0.1502 -0.2144
 8647TIP3    H147356   1.548   1.500   0.599 -0.5412 -0.4128 -1.8423
 8647TIP3    H247357   1.463   1.557   0.710  1.6825 -0.7045  0.0933
 8648TIP3   OH247358   5.262   5.223  11.568  0.3984 -0.5731 -0.5278
 8648TIP3    H147359   5.305   5.163  11.507 -0.3291 -0.9523 -0.6853
 8648TIP3    H247360   5.322   5.230  11.641  0.5604 -1.3994 -0.5654
 8649TIP3   OH247361   5.512   5.161  16.262 -0.5690  0.0940 -0.6592
 8649TIP3    H147362   5.536   5.143  16.353 -1.1933  2.1285 -0.0332
 8649TIP3    H247363   5.429   5.209  16.268 -1.0233 -0.4128 -2.3550
 8650TIP3   OH247364   6.394   3.663   4.243  0.0904 -0.1961 -0.1607
 8650TIP3    H147365   6.339   3.695   4.172  0.7186 -0.8242 -0.9536
 8650TIP3    H247366   6.414   3.573   4.219 -0.1543 -0.6168  1.1143
 8651TIP3   OH247367   5.195   2.720  11.489 -0.6107 -0.6664  0.0724
 8651TIP3    H147368   5.203   2.712  11.584 -2.3665  0.1903  0.3196
 8651TIP3    H247369   5.105   2.695  11.469 -0.5109 -0.0763 -1.2754
 8652TIP3   OH247370   2.514   0.203   4.618  0.5782 -0.0855 -0.2412
 8652TIP3    H147371   2.425   0.174   4.639  1.2896 -2.7929 -0.5693
 8652TIP3    H247372   2.524   0.182   4.525  1.5632  0.1408 -0.1941
 8653TIP3   OH247373   2.539   5.981   0.664  0.2459  0.0815 -0.0040
 8653TIP3    H147374   2.525   6.069   0.699 -1.7072  0.3397 -1.3025
 8653TIP3    H247375   2.529   5.990   0.570  1.9822 -1.2208 -0.3626
 8654TIP3   OH247376   1.770   5.119   1.575  0.1814 -0.0975  0.3876
 8654TIP3    H147377   1.826   5.123   1.652  0.1501  0.0925  0.4022
 8654TIP3    H247378   1.695   5.174   1.597  0.2619  0.1112  0.1524
 8655TIP3   OH247379   5.388   1.705   6.512  0.1005  0.1147  0.3719
 8655TIP3    H147380   5.417   1.734   6.598  0.8258  2.0750 -0.4680
 8655TIP3    H247381   5.464   1.661   6.474 -0.1187 -0.4626  0.5805
 8656TIP3   OH247382   4.053   2.526  13.725  0.2596  0.6568 -0.1624
 8656TIP3    H147383   4.110   2.500  13.652 -0.0904  2.1791 -1.0196
 8656TIP3    H247384   3.993   2.453  13.735 -1.5182  1.4794 -3.3102
 8657TIP3   OH247385   4.318   1.441   3.944 -0.3076 -0.0001 -0.0561
 8657TIP3    H147386   4.393   1.383   3.929  2.3495  2.9720  0.8040
 8657TIP3    H247387   4.306   1.440   4.039  0.5019  1.6580  0.0826
 8658TIP3   OH247388   3.346   0.129   3.632 -0.4396  0.0618  0.2097
 8658TIP3    H147389   3.435   0.134   3.668  0.5371 -1.6892 -1.7274
 8658TIP3    H247390   3.340   0.203   3.573 -0.1766  0.0547  0.1718
 8659TIP3   OH247391   6.610   2.374  15.586 -0.2551 -0.3989 -0.4784
 8659TIP3    H147392   6.611   2.317  15.509  0.0160  0.9377 -1.4893
 8659TIP3    H247393   6.671   2.444  15.565  0.7618 -0.6107  1.4536
 8660TIP3   OH247394   1.004   4.282  17.111  0.4128  0.1594  0.3446
 8660TIP3    H147395   1.076   4.335  17.145  0.0177  0.3439  0.9086
 8660TIP3    H247396   0.942   4.345  17.074  0.1671  0.0616  0.5834
 8661TIP3   OH247397   5.429   0.156  15.036  0.4213  0.2283 -0.1380
 8661TIP3    H147398   5.347   0.200  15.012  0.2138 -0.3734 -0.5329
 8661TIP3    H247399   5.485   0.168  14.960  0.3607 -0.1998 -0.2507
 8662TIP3   OH247400   5.020   2.382  15.529 -0.2381  0.4964  0.1799
 8662TIP3    H147401   4.945   2.401  15.473 -0.1919 -0.8022 -0.3418
 8662TIP3    H247402   5.061   2.468  15.543 -1.8159  1.2341  0.5132
 8663TIP3   OH247403   5.660   0.407  15.797 -0.1831  0.0800  0.3296
 8663TIP3    H147404   5.624   0.456  15.723  0.6657  0.3125  0.0604
 8663TIP3    H247405   5.710   0.472  15.847 -0.6156 -0.1096  1.0300
 8664TIP3   OH247406   3.621   5.704   1.542 -0.1286 -0.0165  0.0457
 8664TIP3    H147407   3.549   5.641   1.555 -1.9882  2.1441  0.7979
 8664TIP3    H247408   3.582   5.789   1.562  2.2257  1.4395 -1.1698
 8665TIP3   OH247409   5.022   1.902   4.734  0.4843 -0.0501  0.0827
 8665TIP3    H147410   5.083   1.880   4.805  1.4054 -0.5114 -0.8159
 8665TIP3    H247411   5.071   1.882   4.654 -1.2128 -1.4403 -0.6841
 8666TIP3   OH247412   5.831   5.439  15.228  0.3010 -0.0773 -0.2179
 8666TIP3    H147413   5.775   5.478  15.295  0.0044 -0.1337 -0.4308
 8666TIP3    H247414   5.803   5.348  15.222  0.5776 -0.1666 -0.1571
 8667TIP3   OH247415   4.019   4.497   4.411  0.6234 -0.2430 -0.0919
 8667TIP3    H147416   4.055   4.442   4.481 -1.0250 -0.5154  0.5858
 8667TIP3    H247417   4.038   4.449   4.330  4.9785  1.3205 -0.2744
 8668TIP3   OH247418   4.195   0.045  10.948 -0.0458 -0.3176 -0.2036
 8668TIP3    H147419   4.258   0.007  11.010 -1.1025  1.4291  2.1083
 8668TIP3    H247420   4.139  -0.028  10.923 -0.9463 -0.7819  2.7383
 8669TIP3   OH247421   6.504   5.045  16.629 -0.2009  0.3348 -0.3524
 8669TIP3    H147422   6.445   5.042  16.554 -1.0854 -1.6897  0.3504
 8669TIP3    H247423   6.461   5.104  16.691 -2.0301 -1.6973  0.4722
 8670TIP3   OH247424   4.357   6.171  16.073  0.1939  0.5282  0.1214
 8670TIP3    H147425   4.295   6.186  16.001  0.9170  1.1069 -0.3941
 8670TIP3    H247426   4.325   6.227  16.144 -0.1859  0.4023  0.0555
 8671TIP3   OH247427   2.017   4.276   3.916 -0.1022 -0.0211 -0.2729
 8671TIP3    H147428   2.084   4.321   3.967 -0.8180 -0.3283  0.9995
 8671TIP3    H247429   1.991   4.340   3.849  1.7604 -0.0764 -1.1037
 8672TIP3   OH247430   1.861   5.736  11.506  0.2411  0.6873  0.4839
 8672TIP3    H147431   1.774   5.711  11.536  0.4685 -0.0163  0.5835
 8672TIP3    H247432   1.845   5.793  11.432 -0.3196 -0.9683 -0.7373
 8673TIP3   OH247433   5.039   1.101  11.594 -0.1864  0.2341 -0.0293
 8673TIP3    H147434   5.039   1.150  11.676  2.9908 -0.6425  0.6242
 8673TIP3    H247435   4.995   1.019  11.614  1.8903 -0.6285  1.3595
 8674TIP3   OH247436   6.257   1.195   3.582  0.3178  0.3882 -0.1566
 8674TIP3    H147437   6.253   1.216   3.488  0.2068  0.3526 -0.1598
 8674TIP3    H247438   6.195   1.255   3.623  1.0953  1.0938  0.0201
 8675TIP3   OH247439   4.773   5.391  13.556 -0.7976  0.3308  0.3542
 8675TIP3    H147440   4.808   5.396  13.645  1.8578  1.6188 -0.6749
 8675TIP3    H247441   4.771   5.297  13.536 -0.7473  0.0701  1.5087
 8676TIP3   OH247442   4.597   5.728  12.280  0.1147 -0.1345 -0.2413
 8676TIP3    H147443   4.647   5.797  12.323  0.3587 -0.2049 -0.4108
 8676TIP3    H247444   4.521   5.713  12.337 -0.6637  1.2188 -0.8719
 8677TIP3   OH247445   3.224   6.601  16.404  0.2937  0.2378 -0.0278
 8677TIP3    H147446   3.150   6.652  16.438 -1.8000 -1.5788 -1.5515
 8677TIP3    H247447   3.287   6.598  16.476 -0.6520  2.6977  0.9938
 8678TIP3   OH247448   2.398   4.716   2.585 -0.6881  0.1504 -0.2684
 8678TIP3    H147449   2.332   4.769   2.629 -0.3102 -0.0168  0.5218
 8678TIP3    H247450   2.478   4.731   2.636 -0.1019  0.3878 -1.2339
 8679TIP3   OH247451   6.778   4.943  12.735  0.6997  0.6146 -0.5081
 8679TIP3    H147452   6.831   4.864  12.743 -0.4597 -0.4698 -2.6221
 8679TIP3    H247453   6.687   4.912  12.738  0.1958  2.0411 -0.1009
 8680TIP3   OH247454   1.021   5.915   4.624  0.1329  0.2391 -0.2645
 8680TIP3    H147455   1.059   5.831   4.600 -0.5932 -0.4364  0.8742
 8680TIP3    H247456   1.013   5.911   4.720 -1.3162  0.9875 -0.3365
 8681TIP3   OH247457   5.056   1.873  13.988  0.3150 -0.8262  0.2038
 8681TIP3    H147458   5.105   1.791  13.984 -0.0903 -1.0509 -0.3234
 8681TIP3    H247459   5.109   1.936  13.939  0.7713 -0.6885  0.8605
 8682TIP3   OH247460   3.632   4.742   4.538  0.1853 -0.1770 -0.6136
 8682TIP3    H147461   3.549   4.788   4.549  0.6530  0.1306  2.6995
 8682TIP3    H247462   3.695   4.793   4.589  2.0865 -1.3111 -1.6713
 8683TIP3   OH247463   6.453   6.134  14.049  0.4768 -0.5243  0.0659
 8683TIP3    H147464   6.372   6.084  14.043 -0.6194  1.1719 -0.1500
 8683TIP3    H247465   6.511   6.080  14.102 -1.0971 -1.4315  0.9395
 8684TIP3   OH247466   0.778   6.370  12.903 -0.0584 -0.3872  0.3074
 8684TIP3    H147467   0.712   6.315  12.946  1.2657 -0.9875  1.6669
 8684TIP3    H247468   0.814   6.423  12.974  1.1234 -0.2989 -0.3365
 8685TIP3   OH247469   5.845   6.175   4.997 -0.0872 -0.0869  0.3790
 8685TIP3    H147470   5.784   6.101   5.002  0.4177 -0.4148  3.0978
 8685TIP3    H247471   5.788   6.252   5.001 -0.5460 -0.2865 -1.4301
 8686TIP3   OH247472   4.201   5.247   3.131  0.7264  0.0056 -0.6554
 8686TIP3    H147473   4.276   5.274   3.077  0.3692 -0.1294 -1.2351
 8686TIP3    H247474   4.237   5.183   3.192  1.1562  0.2168 -0.6860
 8687TIP3   OH247475   4.988   3.390   4.151 -0.4047 -0.3568  0.0789
 8687TIP3    H147476   4.956   3.360   4.236 -1.6687 -0.7876 -0.5250
 8687TIP3    H247477   4.909   3.407   4.100  0.3226  0.7093 -0.7446
 8688TIP3   OH247478   5.977   2.125   3.125 -0.2805 -0.3790  0.3588
 8688TIP3    H147479   5.972   2.219   3.139 -0.0909 -0.4985  1.3293
 8688TIP3    H247480   6.066   2.109   3.095  0.1635 -0.4087  1.6476
 8689TIP3   OH247481   3.659   3.582  12.135  0.0984  0.0826 -0.0154
 8689TIP3    H147482   3.568   3.598  12.158  0.3021  0.9222  0.2240
 8689TIP3    H247483   3.670   3.488  12.147 -0.5491  0.0765  0.6261
 8690TIP3   OH247484   5.877   6.523   4.461 -0.1613 -0.4122  0.1778
 8690TIP3    H147485   5.890   6.616   4.441  1.7057 -0.8580 -0.9255
 8690TIP3    H247486   5.845   6.522   4.551 -3.3616  1.4205 -0.8080
 8691TIP3   OH247487   1.643   2.245   4.954  0.2554 -0.2742 -0.2388
 8691TIP3    H147488   1.586   2.319   4.933 -1.7606 -1.0325  2.1709
 8691TIP3    H247489   1.712   2.282   5.009 -2.1193 -0.3797  3.1132
 8692TIP3   OH247490   2.549   6.614   1.265  0.2312  0.1799  0.0181
 8692TIP3    H147491   2.644   6.604   1.263  0.0972 -1.3108 -0.4372
 8692TIP3    H247492   2.530   6.671   1.191  0.6688 -0.8439 -0.9161
 8693TIP3   OH247493   0.351   2.882   1.870 -0.2746 -0.2906  0.0105
 8693TIP3    H147494   0.408   2.901   1.944  1.5541 -1.0210 -1.1310
 8693TIP3    H247495   0.273   2.843   1.909  0.9279 -1.2986  1.5302
 8694TIP3   OH247496   2.312   2.687  11.232  0.6079 -0.1150 -0.0095
 8694TIP3    H147497   2.218   2.691  11.248  0.3859 -2.0497 -0.6225
 8694TIP3    H247498   2.335   2.777  11.205 -0.9733  0.4711  0.4807
 8695TIP3   OH247499   3.472   0.193   4.749 -0.5428 -0.3812 -0.1661
 8695TIP3    H147500   3.416   0.243   4.689  0.1455  0.2902 -0.2582
 8695TIP3    H247501   3.501   0.257   4.814  2.1931 -0.0314 -1.5550
 8696TIP3   OH247502   5.024   1.294   3.169  0.0042  0.2906  0.4122
 8696TIP3    H147503   5.056   1.247   3.247  0.0704  0.5228  0.5261
 8696TIP3    H247504   5.095   1.285   3.106 -0.4708 -0.7861  0.0085
 8697TIP3   OH247505   4.844   0.080   3.408 -0.0397 -0.0082  0.6246
 8697TIP3    H147506   4.925   0.126   3.427 -0.7643  1.6516 -0.1468
 8697TIP3    H247507   4.790   0.092   3.486 -0.2484  0.5173  0.4032
 8698TIP3   OH247508   4.557   0.643   1.147 -0.2373  0.2495  0.1786
 8698TIP3    H147509   4.601   0.597   1.076 -1.1439  1.7960 -1.4458
 8698TIP3    H247510   4.464   0.624   1.135 -0.2829 -1.1196  2.2107
 8699TIP3   OH247511   3.876   1.868  15.731 -0.3177  0.1026  0.1127
 8699TIP3    H147512   3.854   1.937  15.668  0.7534 -0.9440 -1.4899
 8699TIP3    H247513   3.946   1.907  15.784 -1.5038  1.1361  0.9959
 8700TIP3   OH247514   6.052   4.342   4.744 -0.4164 -0.3910  0.4207
 8700TIP3    H147515   6.085   4.254   4.732  0.6539  0.1575 -0.9255
 8700TIP3    H247516   6.027   4.371   4.656  1.6166  1.5093  0.3722
 8701TIP3   OH247517   6.236   0.560  11.385 -0.1934  0.2267 -0.0710
 8701TIP3    H147518   6.181   0.491  11.423 -1.5485  0.6019 -1.2901
 8701TIP3    H247519   6.323   0.545  11.424  0.5494 -4.3454 -2.8299
 8702TIP3   OH247520   1.587   6.717  12.545 -0.0725  0.1617 -0.1733
 8702TIP3    H147521   1.620   6.659  12.613 -3.6455  1.0227  2.6287
 8702TIP3    H247522   1.638   6.797  12.555  2.4335 -1.1225 -1.6696
 8703TIP3   OH247523   4.483   5.009   1.020 -0.3183 -0.4640  0.6882
 8703TIP3    H147524   4.561   4.953   1.021 -0.7752 -1.1561 -0.5012
 8703TIP3    H247525   4.516   5.096   1.044  1.2611 -0.2753 -1.7188
 8704TIP3   OH247526   6.596   4.198  14.566  0.3741 -0.2881 -0.1830
 8704TIP3    H147527   6.503   4.211  14.551  0.4646  0.8086  0.1343
 8704TIP3    H247528   6.622   4.270  14.624  1.1984 -1.1769  0.5893
 8705TIP3   OH247529   2.499   1.458  15.038 -0.5971  0.1188 -0.4136
 8705TIP3    H147530   2.565   1.418  15.095 -1.4234  1.6376  1.7465
 8705TIP3    H247531   2.513   1.553  15.048 -2.2706  0.4497 -0.9073
 8706TIP3   OH247532   5.652   1.731  14.335  0.4524  0.7118  0.8568
 8706TIP3    H147533   5.596   1.664  14.297  1.3104 -0.0383  0.8778
 8706TIP3    H247534   5.593   1.784  14.389 -0.5588  1.0466 -0.5129
 8707TIP3   OH247535   5.993   5.717  10.768 -0.2089  0.3117  0.4398
 8707TIP3    H147536   6.010   5.742  10.678 -1.2368  2.1935  0.7106
 8707TIP3    H247537   6.020   5.626  10.774  2.4994  0.9255 -1.0198
 8708TIP3   OH247538   6.124   5.569  14.285  0.5305 -0.1682 -0.4085
 8708TIP3    H147539   6.156   5.588  14.197  1.1209 -0.0816 -0.1773
 8708TIP3    H247540   6.151   5.479  14.301  1.3825  0.1679  0.0989
 8709TIP3   OH247541   2.620   4.021   5.002  0.4180  0.1005  0.2575
 8709TIP3    H147542   2.712   4.019   5.027  0.7734 -1.1757 -0.9815
 8709TIP3    H247543   2.590   3.931   5.013 -1.1237  0.7802  2.0692
 8710TIP3   OH247544   1.643   3.123   5.796 -0.0885 -0.4605  0.0981
 8710TIP3    H147545   1.738   3.128   5.807 -0.1238  2.1499 -0.3272
 8710TIP3    H247546   1.623   3.184   5.725 -2.1671 -0.3533  0.7051
 8711TIP3   OH247547   0.494   1.516   4.027  0.1367 -0.2509  0.4553
 8711TIP3    H147548   0.399   1.516   4.011  0.4011 -0.2777 -1.3325
 8711TIP3    H247549   0.505   1.465   4.107 -1.5696  2.0943  2.3328
 8712TIP3   OH247550   2.646   3.098  11.549 -0.0508  0.5545 -0.0701
 8712TIP3    H147551   2.690   3.168  11.502 -0.8941  0.1806 -1.4773
 8712TIP3    H247552   2.634   3.029  11.483 -1.0372 -0.0929  0.7592
 8713TIP3   OH247553   5.438   3.052  17.035  0.1275 -0.6368  0.3780
 8713TIP3    H147554   5.399   3.098  17.110 -2.4680 -1.4258 -0.3928
 8713TIP3    H247555   5.467   2.969  17.072  0.1797 -0.4454  0.7815
 8714TIP3   OH247556   0.303   4.326  12.817 -0.0620  0.1017 -0.4979
 8714TIP3    H147557   0.259   4.241  12.823  0.2977 -0.0233  0.6813
 8714TIP3    H247558   0.388   4.312  12.858  0.1115  0.9666 -0.5354
 8715TIP3   OH247559   4.577   1.397   2.375 -0.1240 -0.3896  0.0811
 8715TIP3    H147560   4.487   1.369   2.357 -0.5443  1.3357 -0.7870
 8715TIP3    H247561   4.631   1.321   2.355 -1.3704 -1.3739  0.3634
 8716TIP3   OH247562   5.973   4.418   4.512  0.1476  0.0939 -0.2909
 8716TIP3    H147563   5.890   4.460   4.490  0.4458  0.0952 -1.4521
 8716TIP3    H247564   6.033   4.445   4.443  0.6634 -1.2647 -0.4099
 8717TIP3   OH247565   6.353   5.406  11.516  0.3752 -0.0185 -0.3256
 8717TIP3    H147566   6.446   5.397  11.494  0.5494 -1.7652  0.9588
 8717TIP3    H247567   6.309   5.340  11.463 -0.0478  0.3603 -0.4458
 8718TIP3   OH247568   4.183   1.599   3.734  0.4649  0.5738 -0.1004
 8718TIP3    H147569   4.224   1.678   3.770  0.7163  0.6553 -0.5556
 8718TIP3    H247570   4.205   1.530   3.797  1.0305  0.6821 -0.1764
 8719TIP3   OH247571   1.470   6.376  14.471 -0.0904  0.4451  0.0086
 8719TIP3    H147572   1.443   6.284  14.468  0.2451  0.3275  0.4897
 8719TIP3    H247573   1.448   6.404  14.560  2.4687 -0.0015  0.8576
 8720TIP3   OH247574   3.761   3.593   1.782 -0.3657  0.5236  0.4748
 8720TIP3    H147575   3.784   3.502   1.762 -0.6590  0.3910  0.7228
 8720TIP3    H247576   3.669   3.589   1.809 -0.7033  1.0537 -0.5668
 8721TIP3   OH247577   6.510   0.697  12.739  0.1234 -0.4370 -0.0892
 8721TIP3    H147578   6.548   0.634  12.678 -0.6793 -0.4423 -0.5902
 8721TIP3    H247579   6.586   0.743  12.776  0.5833  0.6301 -2.2029
 8722TIP3   OH247580   0.518   4.643  12.140 -0.3895  0.4756 -0.1535
 8722TIP3    H147581   0.586   4.593  12.095 -0.8819  0.5199 -0.9422
 8722TIP3    H247582   0.436   4.601  12.116 -0.5733 -0.7229  2.2277
 8723TIP3   OH247583   2.717   4.824  15.919  0.3087 -0.6339 -0.3826
 8723TIP3    H147584   2.777   4.749  15.918  0.3865 -0.5716 -0.3628
 8723TIP3    H247585   2.698   4.842  15.827 -0.9322 -1.6615 -0.3579
 8724TIP3   OH247586   0.869   1.065  13.331  0.2863  0.0984 -0.0670
 8724TIP3    H147587   0.845   1.006  13.402  0.0855  1.1270  0.7450
 8724TIP3    H247588   0.786   1.085  13.288  0.3225 -0.0274 -0.1952
 8725TIP3   OH247589   4.617   3.240   4.659 -0.6075 -0.5292  0.2684
 8725TIP3    H147590   4.552   3.285   4.603 -1.1723 -1.2276  0.3510
 8725TIP3    H247591   4.622   3.152   4.623  0.1128 -0.5546  0.4297
 8726TIP3   OH247592   4.963   0.092   1.280 -0.6861 -0.4190 -0.5283
 8726TIP3    H147593   5.038   0.034   1.287 -1.3330 -1.4526 -1.7602
 8726TIP3    H247594   4.920   0.067   1.198 -0.0336  2.9239 -2.0766
 8727TIP3   OH247595   0.139   0.376   4.861 -0.2324 -0.4899 -0.2017
 8727TIP3    H147596   0.073   0.336   4.918 -0.8639 -0.4702 -0.8860
 8727TIP3    H247597   0.162   0.307   4.799 -0.8887 -0.0000 -1.0212
 8728TIP3   OH247598   0.511   3.634   5.030 -0.2184  0.4620  0.3007
 8728TIP3    H147599   0.525   3.726   5.053  0.7571  0.2095  0.7904
 8728TIP3    H247600   0.579   3.616   4.965 -0.4839  0.1148  0.1180
 8729TIP3   OH247601   4.102   1.074   5.475 -0.0448 -0.2154 -0.1754
 8729TIP3    H147602   4.057   1.079   5.391  1.1357  1.7549 -0.7699
 8729TIP3    H247603   4.195   1.076   5.453  0.2891  0.3536  1.1559
 8730TIP3   OH247604   2.530   6.322   1.068  0.2709  0.2911  0.0679
 8730TIP3    H147605   2.539   6.280   1.153 -3.2378 -1.3676 -0.1943
 8730TIP3    H247606   2.487   6.405   1.086  0.5701  0.4631 -0.0040
 8731TIP3   OH247607   3.234   2.007   5.193 -0.0131 -0.2228 -0.2070
 8731TIP3    H147608   3.254   2.009   5.286 -0.4711 -1.6630 -0.0562
 8731TIP3    H247609   3.297   2.066   5.153 -0.6228  1.4168  1.1448
 8732TIP3   OH247610   4.154   6.158   4.252  0.2736  0.1114  0.3943
 8732TIP3    H147611   4.164   6.107   4.172  0.7971 -1.2950  1.3115
 8732TIP3    H247612   4.111   6.098   4.313 -0.2486  1.1989  1.1246
 8733TIP3   OH247613   5.453   4.263   2.223 -0.3527 -0.3638 -0.2894
 8733TIP3    H147614   5.510   4.229   2.154 -3.4579 -2.8217 -1.8736
 8733TIP3    H247615   5.447   4.192   2.286 -1.4023 -0.0196  0.0049
 8734TIP3   OH247616   1.314   0.878  12.213 -0.9039 -0.0323  0.0229
 8734TIP3    H147617   1.353   0.936  12.279 -2.7665  1.0054  0.3039
 8734TIP3    H247618   1.388   0.834  12.172  0.3417 -1.5104  3.4742
 8735TIP3   OH247619   2.108   6.705   2.520  0.0873  0.2580  0.6591
 8735TIP3    H147620   2.084   6.774   2.582  0.2915 -0.5669  1.6827
 8735TIP3    H247621   2.170   6.650   2.568 -0.5893 -1.0353  0.1197
 8736TIP3   OH247622   6.617   1.192   4.355 -0.0419  0.7462 -0.2500
 8736TIP3    H147623   6.583   1.229   4.437  1.0847  2.9799 -0.7000
 8736TIP3    H247624   6.612   1.265   4.293  1.0587 -0.2876 -1.5999
 8737TIP3   OH247625   1.319   3.177   4.353  0.1925 -0.1602 -1.1456
 8737TIP3    H147626   1.370   3.253   4.327  1.1682 -0.9492 -1.6158
 8737TIP3    H247627   1.270   3.153   4.274 -2.4057  1.6666 -0.2281
 8738TIP3   OH247628   4.150   5.128  16.531 -0.4550  0.4564  1.0366
 8738TIP3    H147629   4.063   5.166  16.519  0.1362  1.6388  0.2756
 8738TIP3    H247630   4.168   5.139  16.625 -1.1971  0.0182  1.2379
 8739TIP3   OH247631   3.980   5.273   0.066 -0.0064 -0.0006 -0.0696
 8739TIP3    H147632   4.019   5.187   0.084  1.0939  0.8503  1.8845
 8739TIP3    H247633   4.042   5.316   0.007 -0.6074 -0.5499 -1.1310
 8740TIP3   OH247634   4.073   2.821   1.462  0.3705 -0.6091 -0.1484
 8740TIP3    H147635   4.109   2.763   1.395 -1.8020 -1.6911 -0.4724
 8740TIP3    H247636   4.113   2.791   1.543  1.3808 -0.7062 -0.6584
 8741TIP3   OH247637   5.610   3.563   0.438  0.1661  0.2976  0.1944
 8741TIP3    H147638   5.638   3.652   0.458  0.1924  0.2499  0.3737
 8741TIP3    H247639   5.687   3.509   0.454  0.4828  0.3692 -0.9863
 8742TIP3   OH247640   4.278   1.524   3.019 -0.3812  0.3817  0.0037
 8742TIP3    H147641   4.310   1.529   2.929  1.0396  1.4579  0.5306
 8742TIP3    H247642   4.277   1.615   3.049 -0.3001 -0.0184  1.2549
 8743TIP3   OH247643   6.316   0.815   5.841 -0.0142  0.4676  0.4133
 8743TIP3    H147644   6.253   0.767   5.788  1.4255 -0.0583 -0.9138
 8743TIP3    H247645   6.286   0.906   5.838 -0.9120  0.1752  0.1482
 8744TIP3   OH247646   1.647   0.325   6.015  0.4284 -0.0454  0.1557
 8744TIP3    H147647   1.704   0.263   6.060 -0.1490 -2.4002 -2.1199
 8744TIP3    H247648   1.560   0.285   6.020  0.0715  0.4366 -1.5266
 8745TIP3   OH247649   5.101   3.832   3.205  0.5162  0.4259  0.2874
 8745TIP3    H147650   5.059   3.866   3.126  1.3348 -0.1878 -0.4268
 8745TIP3    H247651   5.097   3.905   3.267 -4.4944 -0.5427  1.4715
 8746TIP3   OH247652   2.646   0.709   0.997  0.0986 -0.3472  0.3771
 8746TIP3    H147653   2.577   0.650   1.027 -1.1642  0.0650 -1.5310
 8746TIP3    H247654   2.716   0.698   1.061 -0.9883 -2.1810  1.3476
 8747TIP3   OH247655   2.695   0.845  14.828  0.5518  0.1922 -0.2226
 8747TIP3    H147656   2.638   0.769  14.816  1.9487 -1.0236  0.4500
 8747TIP3    H247657   2.739   0.855  14.743  0.4733  0.1500 -0.2680
 8748TIP3   OH247658   5.237   5.728  14.011  0.4228  0.1388 -0.1241
 8748TIP3    H147659   5.314   5.730  13.954 -0.9893  1.3202 -2.1358
 8748TIP3    H247660   5.271   5.745  14.098  2.4994  0.0573 -0.8647
 8749TIP3   OH247661   3.146   4.031  15.832  0.1939  0.3082  0.2741
 8749TIP3    H147662   3.140   4.011  15.739 -0.6785  0.2338  0.3419
 8749TIP3    H247663   3.239   4.018  15.853  0.2520 -0.4277 -0.4076
 8750TIP3   OH247664   1.346   5.940  12.475  0.2056  0.4577  0.3682
 8750TIP3    H147665   1.409   5.971  12.541  0.3221  1.2655 -0.1043
 8750TIP3    H247666   1.261   5.948  12.519  0.3663  0.0804  0.7501
 8751TIP3   OH247667   2.064   4.681   5.352  0.3286 -0.0026 -0.3215
 8751TIP3    H147668   2.073   4.686   5.257  1.1032  0.5959 -0.2279
 8751TIP3    H247669   2.107   4.760   5.385  2.4896 -1.4950  0.6668
 8752TIP3   OH247670   4.709   3.823   2.649  0.1634 -0.2414 -0.1184
 8752TIP3    H147671   4.672   3.765   2.583 -0.3940 -0.5220  0.4338
 8752TIP3    H247672   4.634   3.869   2.686  0.6974  2.0114 -1.6119
 8753TIP3   OH247673   2.435   3.759   0.141 -0.1818 -0.7757 -0.5108
 8753TIP3    H147674   2.421   3.674   0.100 -0.2302 -1.7599  1.4544
 8753TIP3    H247675   2.379   3.758   0.218  0.2964  0.7959 -0.1063
 8754TIP3   OH247676   0.527   0.082  13.571 -0.1388  0.4915  0.2751
 8754TIP3    H147677   0.435   0.107  13.558 -0.7056 -0.1367  2.5390
 8754TIP3    H247678   0.559   0.061  13.483 -2.2584  0.3992 -0.5473
 8755TIP3   OH247679   4.960   3.047  13.254  0.5157 -0.8008 -0.4670
 8755TIP3    H147680   4.940   3.140  13.264 -0.8795 -0.8793 -2.0584
 8755TIP3    H247681   5.051   3.039  13.282  0.1711  0.7242  1.2737
 8756TIP3   OH247682   0.991   3.202  11.612  0.3170  0.0579  0.5665
 8756TIP3    H147683   1.040   3.245  11.543 -0.8590  0.2770 -0.1660
 8756TIP3    H247684   0.950   3.127  11.568  0.5265 -0.5055  1.3109
 8757TIP3   OH247685   5.280   6.545  14.185  0.4076 -0.1978 -0.1653
 8757TIP3    H147686   5.245   6.475  14.130 -1.4035 -0.4133  1.1677
 8757TIP3    H247687   5.213   6.613  14.183  1.7079  1.1240 -0.6585
 8758TIP3   OH247688   5.780   4.683  10.731  0.1070 -0.4775  0.0444
 8758TIP3    H147689   5.838   4.652  10.800 -0.3359 -1.2960  0.0609
 8758TIP3    H247690   5.776   4.778  10.744 -0.4206 -0.6676  1.5141
 8759TIP3   OH247691   1.136   3.382  16.772  0.6382  0.5231 -0.5687
 8759TIP3    H147692   1.168   3.297  16.803 -0.9550  0.9239  2.5351
 8759TIP3    H247693   1.078   3.361  16.699  1.5996 -0.8844 -0.9580
 8760TIP3   OH247694   2.162   2.052   4.430 -0.2270  0.2981  0.7861
 8760TIP3    H147695   2.123   1.987   4.489 -0.1959  1.2315  1.8541
 8760TIP3    H247696   2.089   2.080   4.374  0.0094 -1.4994 -0.5047
 8761TIP3   OH247697   1.157   5.114   1.874 -0.3353  0.6259  1.2580
 8761TIP3    H147698   1.244   5.086   1.846 -1.4501  0.0424 -2.0527
 8761TIP3    H247699   1.123   5.040   1.926 -1.0460 -2.0177 -2.5533
 8762TIP3   OH247700   5.601   3.448   2.445  0.4609 -0.3395 -0.4384
 8762TIP3    H147701   5.515   3.416   2.418  1.2268 -1.7874 -1.2675
 8762TIP3    H247702   5.600   3.440   2.541  0.0630 -1.4231 -0.5195
 8763TIP3   OH247703   3.231   1.275   3.332 -0.2562 -0.1579  0.2422
 8763TIP3    H147704   3.287   1.344   3.366  0.0033 -1.8095  3.5852
 8763TIP3    H247705   3.283   1.195   3.340 -1.9300 -1.2968  0.4678
 8764TIP3   OH247706   3.502   6.536   3.458  0.2058  0.5819  0.8091
 8764TIP3    H147707   3.505   6.467   3.392  2.3336 -0.1922  1.6207
 8764TIP3    H247708   3.475   6.614   3.409  0.7523 -0.1679 -0.7868
 8765TIP3   OH247709   5.885   6.331   6.700 -0.0674 -0.6009  0.0971
 8765TIP3    H147710   5.800   6.337   6.744 -0.5578 -0.6289 -0.8216
 8765TIP3    H247711   5.933   6.409   6.730 -0.9446  0.1651 -0.4577
 8766TIP3   OH247712   5.018   0.245   0.325  0.9403 -0.1337 -0.2865
 8766TIP3    H147713   5.042   0.155   0.348  0.0563 -0.2322  0.3381
 8766TIP3    H247714   5.015   0.246   0.230  0.7937 -0.8166 -0.2935
 8767TIP3   OH247715   2.169   5.153  10.749 -0.4846  0.3742  0.2894
 8767TIP3    H147716   2.230   5.225  10.765  0.7615 -0.8787  1.3716
 8767TIP3    H247717   2.217   5.094  10.690 -0.8104 -0.4298  0.8196
 8768TIP3   OH247718   0.315   1.862   4.612  0.1576  0.1067  0.0307
 8768TIP3    H147719   0.306   1.957   4.615  0.0796  0.0984  0.0660
 8768TIP3    H247720   0.363   1.844   4.531 -1.6724  0.0390 -1.0841
 8769TIP3   OH247721   0.689   4.731   0.285  0.1595 -0.4702  0.0219
 8769TIP3    H147722   0.613   4.683   0.318  0.2606  0.1417  1.2334
 8769TIP3    H247723   0.653   4.806   0.240 -0.0444 -2.2226 -2.9691
 8770TIP3   OH247724   3.620   0.370  14.634 -0.1545  0.4051 -0.0740
 8770TIP3    H147725   3.524   0.374  14.635 -0.4483 -2.8480  2.6400
 8770TIP3    H247726   3.647   0.427  14.705 -0.1810  0.5067 -0.1463
 8771TIP3   OH247727   3.260   3.525  16.054 -0.0449  0.0780  0.1975
 8771TIP3    H147728   3.249   3.482  16.138 -2.8731  0.5909  0.1951
 8771TIP3    H247729   3.326   3.592  16.069 -0.3175 -0.0078  1.9350
 8772TIP3   OH247730   5.490   0.323  15.274 -0.0024  0.2802  0.0732
 8772TIP3    H147731   5.464   0.266  15.202  0.2933  0.5955 -0.2855
 8772TIP3    H247732   5.409   0.366  15.301 -0.0008  0.6692 -0.5224
 8773TIP3   OH247733   5.330   5.602  11.625 -0.1694  0.1155  0.0047
 8773TIP3    H147734   5.297   5.615  11.536 -1.2883 -0.3677  0.3394
 8773TIP3    H247735   5.349   5.509  11.631 -1.2225 -0.0803  0.6262
 8774TIP3   OH247736   0.977   6.715   0.954  0.3241  0.1620  0.0879
 8774TIP3    H147737   0.947   6.795   0.996  0.8195  0.5492 -0.2943
 8774TIP3    H247738   1.053   6.741   0.902  0.3545 -0.5082 -0.2193
 8775TIP3   OH247739   0.616   1.899  14.859 -0.5320 -0.7517  0.0533
 8775TIP3    H147740   0.687   1.944  14.815  0.8721 -2.7468  0.1646
 8775TIP3    H247741   0.642   1.897  14.951 -1.2989 -0.5217  0.2880
 8776TIP3   OH247742   5.523   4.587   1.592  0.0512  0.5930 -0.1107
 8776TIP3    H147743   5.496   4.624   1.508  0.2215  0.4304 -0.2385
 8776TIP3    H247744   5.442   4.552   1.630 -0.1349  1.2123  0.0722
 8777TIP3   OH247745   4.937   4.443  11.976 -0.2863  0.3575  0.0570
 8777TIP3    H147746   5.022   4.472  11.943 -0.2845  0.6176  0.2841
 8777TIP3    H247747   4.921   4.498  12.053  0.0543 -0.7443  0.9290
 8778TIP3   OH247748   5.967   3.099  11.242 -0.3085  0.3280 -0.1376
 8778TIP3    H147749   6.026   3.044  11.295 -1.5261  1.1446  2.1985
 8778TIP3    H247750   5.899   3.039  11.213  2.3773 -1.1124 -4.5409
 8779TIP3   OH247751   0.192   0.656  15.930  0.0445  0.3264  0.1501
 8779TIP3    H147752   0.269   0.687  15.977 -0.4482 -0.3244  1.4409
 8779TIP3    H247753   0.119   0.704  15.969 -0.3665 -0.1706  0.0143
 8780TIP3   OH247754   4.752   1.095   1.073 -0.6655 -0.1469 -0.1832
 8780TIP3    H147755   4.713   1.008   1.081 -0.2990 -0.2045  1.1919
 8780TIP3    H247756   4.846   1.080   1.084 -0.5638  0.3818 -0.3094
 8781TIP3   OH247757   6.358   6.235  14.798 -0.2832  0.6544 -0.1791
 8781TIP3    H147758   6.364   6.144  14.825 -1.2685  0.5173 -0.3929
 8781TIP3    H247759   6.334   6.231  14.705  2.0588  1.1188 -0.8812
 8782TIP3   OH247760   3.410   3.116   5.430 -0.0628 -0.2095 -0.2404
 8782TIP3    H147761   3.460   3.195   5.409  0.4387 -0.7372 -1.1161
 8782TIP3    H247762   3.463   3.044   5.396 -1.5486 -0.7776 -1.5592
 8783TIP3   OH247763   5.413   3.306  12.719 -0.0972 -0.1171  0.2361
 8783TIP3    H147764   5.423   3.365  12.794 -0.7863 -0.0694  0.3002
 8783TIP3    H247765   5.461   3.349  12.649  1.7889 -0.8684  1.0075
 8784TIP3   OH247766   3.282   4.528  14.312  0.0810 -0.4635  0.4178
 8784TIP3    H147767   3.289   4.546  14.405  3.9210  0.8367  0.0731
 8784TIP3    H247768   3.241   4.606  14.275 -0.1711 -0.3903  0.8443
 8785TIP3   OH247769   6.534   3.988   1.784 -0.2695  0.5112 -0.2318
 8785TIP3    H147770   6.544   3.928   1.710  1.5200  1.3580 -0.7420
 8785TIP3    H247771   6.565   4.072   1.751  3.0492  0.4298  2.0706
 8786TIP3   OH247772   5.705   0.291  15.430 -0.0761  0.1671  0.0050
 8786TIP3    H147773   5.788   0.281  15.382 -0.4157  1.5163 -0.9315
 8786TIP3    H247774   5.638   0.277  15.364 -0.6308 -1.5022  0.8883
 8787TIP3   OH247775   1.124   2.113   3.461  0.4410 -0.2582  0.4930
 8787TIP3    H147776   1.153   2.027   3.431 -0.9607 -0.3458 -0.7094
 8787TIP3    H247777   1.167   2.175   3.402 -1.3999 -0.3725 -1.0792
 8788TIP3   OH247778   6.278   2.002   1.891  0.5626  0.4864 -0.2421
 8788TIP3    H147779   6.349   1.974   1.832  0.3626 -5.2561  1.5544
 8788TIP3    H247780   6.323   2.029   1.971  0.8070 -0.2320 -0.1274
 8789TIP3   OH247781   0.513   5.629  15.712 -0.4950  0.0930  0.0051
 8789TIP3    H147782   0.512   5.534  15.722  2.4883 -0.1634 -1.1820
 8789TIP3    H247783   0.445   5.647  15.647 -1.4227 -1.1256  0.5839
 8790TIP3   OH247784   0.849   1.216  17.066  0.9482 -0.4245  0.0263
 8790TIP3    H147785   0.849   1.287  17.129 -1.1966 -1.1563  0.9217
 8790TIP3    H247786   0.814   1.255  16.986 -2.4115 -0.8540  1.1368
 8791TIP3   OH247787   6.764   6.325  16.775  0.2145 -0.2633  0.3819
 8791TIP3    H147788   6.740   6.243  16.818  1.0760 -0.7606 -0.0552
 8791TIP3    H247789   6.695   6.340  16.711  1.0587 -1.7025 -0.9174
 8792TIP3   OH247790   2.866   4.446   2.191 -0.3057  0.4979 -0.4887
 8792TIP3    H147791   2.801   4.509   2.223 -1.2080  0.2762 -1.8055
 8792TIP3    H247792   2.873   4.382   2.261 -1.8549  0.2950 -0.4812
 8793TIP3   OH247793   1.186   1.898   3.264  0.0755 -0.2475 -0.0536
 8793TIP3    H147794   1.185   1.816   3.313 -1.8183  0.6238  1.4912
 8793TIP3    H247795   1.225   1.875   3.179  1.9492 -2.1630  1.2276
 8794TIP3   OH247796   3.829   2.929   5.091 -0.0868  0.4563 -0.1371
 8794TIP3    H147797   3.776   2.987   5.035 -1.3053  0.5185  1.0401
 8794TIP3    H247798   3.821   2.843   5.050 -0.2661  0.6544 -0.5255
 8795TIP3   OH247799   4.780   6.324  13.595  0.5927 -0.5505  0.0595
 8795TIP3    H147800   4.799   6.317  13.501 -0.0840  0.2950 -0.1589
 8795TIP3    H247801   4.844   6.387  13.628 -0.7550  1.1158 -0.3687
 8796TIP3   OH247802   2.716   1.853  16.230  0.6509 -0.4286  0.1258
 8796TIP3    H147803   2.750   1.867  16.318  1.6068  0.1118 -0.3141
 8796TIP3    H247804   2.755   1.770  16.202 -0.6839 -1.2711  0.6826
 8797TIP3   OH247805   0.335   4.989   0.315  0.1902  0.0523  0.0111
 8797TIP3    H147806   0.290   4.982   0.231 -0.1388 -0.5065  0.2293
 8797TIP3    H247807   0.323   5.080   0.341 -0.0999  0.1144 -0.3301
 8798TIP3   OH247808   6.078   0.027  15.314  0.0395 -0.0844 -0.0477
 8798TIP3    H147809   6.043   0.105  15.272 -1.8310 -1.2391 -0.7768
 8798TIP3    H247810   6.042   0.030  15.403  0.8280  0.3938  0.2636
 8799TIP3   OH247811   4.631   5.836  16.922  0.1754 -0.0050  0.1471
 8799TIP3    H147812   4.574   5.821  16.998  0.2190  0.5652  0.2990
 8799TIP3    H247813   4.693   5.763  16.923  0.7963  0.5188  1.2310
 8800TIP3   OH247814   0.262   3.639  13.777 -0.3741 -0.2880 -0.5147
 8800TIP3    H147815   0.311   3.650  13.696  1.9588 -0.1364  0.8413
 8800TIP3    H247816   0.178   3.604  13.749 -0.2409  1.1994 -3.1183
 8801TIP3   OH247817   1.383   5.345   6.192  0.2043  0.0683  0.1356
 8801TIP3    H147818   1.316   5.278   6.206 -0.3349 -0.1658 -2.9062
 8801TIP3    H247819   1.439   5.309   6.123  1.7000  1.5195  0.5365
 8802TIP3   OH247820   5.303   2.051  13.921 -0.0308  0.1591 -0.3074
 8802TIP3    H147821   5.398   2.041  13.916 -0.1237 -0.7932 -0.3600
 8802TIP3    H247822   5.290   2.131  13.972  0.7957  0.9641 -1.3277
 8803TIP3   OH247823   3.961   5.626   1.306 -0.0803 -0.1211  0.2731
 8803TIP3    H147824   3.935   5.692   1.370 -1.2189 -0.2076 -0.0769
 8803TIP3    H247825   4.040   5.662   1.265 -0.1029  0.5437  0.7997
 8804TIP3   OH247826   5.203   1.996  16.749 -0.1223 -0.7547  0.1562
 8804TIP3    H147827   5.202   1.971  16.656  1.2153 -0.4106  0.0272
 8804TIP3    H247828   5.182   1.915  16.795 -2.5216 -0.5629 -0.4662
 8805TIP3   OH247829   2.404   3.638  12.442 -0.0086 -0.2610  0.0731
 8805TIP3    H147830   2.460   3.714  12.455  0.1109 -0.2824 -0.2908
 8805TIP3    H247831   2.315   3.669  12.459  0.0246 -0.0016 -0.2166
 8806TIP3   OH247832   1.023   1.240   5.681 -0.2914 -0.0127  0.0983
 8806TIP3    H147833   1.116   1.219   5.673 -0.3763 -0.3024 -0.1494
 8806TIP3    H247834   1.016   1.287   5.764  0.2310  0.8740 -0.3368
 8807TIP3   OH247835   1.512   6.506   4.374 -0.8118 -0.3836  0.0237
 8807TIP3    H147836   1.457   6.444   4.325  1.0993 -0.6152 -1.9884
 8807TIP3    H247837   1.529   6.576   4.312  0.0357  0.3590  1.0604
 8808TIP3   OH247838   6.694   1.228  12.436  0.0042 -0.6346 -0.3179
 8808TIP3    H147839   6.682   1.283  12.359 -3.4501 -1.6283 -0.6456
 8808TIP3    H247840   6.631   1.261  12.500  1.7815 -0.7432  1.6192
 8809TIP3   OH247841   4.368   4.823   4.952  0.2046 -0.2185 -0.2809
 8809TIP3    H147842   4.378   4.730   4.971 -1.9974  0.1172  3.3148
 8809TIP3    H247843   4.458   4.854   4.941  1.1302 -2.3737  0.5743
 8810TIP3   OH247844   0.867   0.207   2.477  0.0273  0.3758 -0.3506
 8810TIP3    H147845   0.802   0.162   2.423 -1.1164  2.1585 -0.5529
 8810TIP3    H247846   0.838   0.192   2.567  0.6859 -0.7589 -0.3093
 8811TIP3   OH247847   6.113   2.044  14.970  0.3626  0.3239 -0.4867
 8811TIP3    H147848   6.036   2.100  14.957  1.1156  1.7235  0.7214
 8811TIP3    H247849   6.078   1.962  15.003 -0.5797  1.8554  2.8449
 8812TIP3   OH247850   6.018   4.917  16.677 -0.1903 -0.3037  0.0346
 8812TIP3    H147851   6.075   4.986  16.710  0.5370 -1.5835  1.5497
 8812TIP3    H247852   5.939   4.964  16.648  1.8618  1.6376 -3.0751
 8813TIP3   OH247853   6.660   2.961   6.220 -0.3782 -0.5837 -0.0605
 8813TIP3    H147854   6.699   2.915   6.145 -0.5404 -0.5585 -0.1597
 8813TIP3    H247855   6.735   2.981   6.277 -0.0357  0.6419 -0.8842
 8814TIP3   OH247856   2.509   6.155   6.070 -0.3072 -0.2420 -0.1882
 8814TIP3    H147857   2.475   6.242   6.048 -1.3392  0.1121  2.4411
 8814TIP3    H247858   2.432   6.107   6.102  0.5325 -1.6080 -0.1327
 8815TIP3   OH247859   6.772   6.312  15.415  0.4999 -0.0398  0.3508
 8815TIP3    H147860   6.790   6.289  15.506 -1.3999  1.9586  1.3153
 8815TIP3    H247861   6.678   6.301  15.406  0.6008  0.2568 -1.2484
 8816TIP3   OH247862   2.506   3.920  13.847 -0.0008 -0.1926  0.0375
 8816TIP3    H147863   2.443   3.961  13.788 -1.2761 -0.5703  1.0907
 8816TIP3    H247864   2.526   3.836  13.807 -1.9149 -1.0448  0.7881
 8817TIP3   OH247865   2.321   0.105   1.594  0.5669 -0.0826 -0.0246
 8817TIP3    H147866   2.234   0.144   1.589  1.3490  1.8588  0.4193
 8817TIP3    H247867   2.305   0.011   1.603 -1.4363  0.1097 -1.0445
 8818TIP3   OH247868   1.037   2.769   2.106 -1.0267 -0.4759 -0.2748
 8818TIP3    H147869   0.950   2.759   2.145 -1.2326 -0.3152 -0.6873
 8818TIP3    H247870   1.069   2.679   2.096  0.2772 -0.5290  2.9570
 8819TIP3   OH247871   5.498   2.507  13.546 -0.1831 -0.0407 -0.1108
 8819TIP3    H147872   5.512   2.588  13.594 -0.0777  1.6501 -2.7799
 8819TIP3    H247873   5.427   2.463  13.593 -0.5716  1.8225  1.1441
 8820TIP3   OH247874   0.859   4.711   3.842  0.0453 -0.3015  0.1233
 8820TIP3    H147875   0.794   4.661   3.793 -0.4665  1.1082 -0.6825
 8820TIP3    H247876   0.910   4.645   3.889 -0.1384 -1.6219 -1.4576
 8821TIP3   OH247877   5.019   3.190   0.995 -0.6075  0.2536 -0.2888
 8821TIP3    H147878   5.055   3.265   1.043 -0.1525 -0.2216  0.1218
 8821TIP3    H247879   5.086   3.122   1.002 -1.7168 -0.7812  0.8152
 8822TIP3   OH247880   1.188   5.478   2.189  0.2569  0.2314 -0.6018
 8822TIP3    H147881   1.155   5.447   2.104 -0.3495 -0.2839 -0.1978
 8822TIP3    H247882   1.121   5.449   2.251  1.1821 -0.2950  0.1807
 8823TIP3   OH247883   2.169   5.813  15.616  0.2157 -0.1326 -0.2443
 8823TIP3    H147884   2.214   5.784  15.695 -1.1427 -1.0593  0.2250
 8823TIP3    H247885   2.238   5.824  15.552  1.0700 -2.4500  0.1603
 8824TIP3   OH247886   3.504   5.374   1.478  0.4506  0.5366 -0.3112
 8824TIP3    H147887   3.460   5.449   1.519  0.0311  0.2578 -0.2424
 8824TIP3    H247888   3.539   5.323   1.551  0.7441  0.6681 -0.3585
 8825TIP3   OH247889   1.670   0.423  12.490  0.4007 -0.0165  0.5390
 8825TIP3    H147890   1.743   0.398  12.545  0.5948 -1.1611 -0.2026
 8825TIP3    H247891   1.634   0.501  12.531  2.0318  0.5692  0.9106
 8826TIP3   OH247892   4.164   0.821   0.329  0.4763 -0.2417 -0.6268
 8826TIP3    H147893   4.175   0.889   0.396  1.8906 -2.1512  1.2351
 8826TIP3    H247894   4.082   0.843   0.286 -0.3184  1.3212  1.4947
 8827TIP3   OH247895   0.398   2.297  14.041 -0.0277 -0.2772  0.2451
 8827TIP3    H147896   0.386   2.370  14.101 -0.7846  0.5329 -0.8524
 8827TIP3    H247897   0.312   2.253  14.039 -0.8254  1.2125 -2.1102
 8828TIP3   OH247898   1.874   5.187   1.308 -0.4360 -0.0063 -0.1921
 8828TIP3    H147899   1.854   5.151   1.394 -0.2459  0.9224  0.2514
 8828TIP3    H247900   1.965   5.164   1.292 -0.2017  0.5986  0.2573
 8829TIP3   OH247901   0.875   2.131   3.589 -0.2550 -0.1270 -0.0972
 8829TIP3    H147902   0.889   2.036   3.588 -0.2695 -0.1566 -2.0291
 8829TIP3    H247903   0.951   2.167   3.544 -1.5117  0.5209 -1.8302
 8830TIP3   OH247904   0.660   3.185   0.953 -0.6143  0.3766 -0.4894
 8830TIP3    H147905   0.671   3.248   0.882  2.0741 -0.0531 -0.5758
 8830TIP3    H247906   0.570   3.153   0.943 -1.3655  2.6174 -1.7166
 8831TIP3   OH247907   2.068   0.082   0.986 -0.0650 -0.4788  0.2494
 8831TIP3    H147908   2.002   0.012   0.984 -0.8006  0.1291  1.6003
 8831TIP3    H247909   2.152   0.037   0.982 -0.5383 -1.4007  0.5412
 8832TIP3   OH247910   4.034   6.567  15.824  0.7666  0.0368  0.0267
 8832TIP3    H147911   4.057   6.556  15.731 -0.3958 -0.4355 -0.2264
 8832TIP3    H247912   3.941   6.546  15.828  0.9479 -0.6111  1.4277
 8833TIP3   OH247913   0.340   5.718   5.833 -0.0994 -0.0818 -0.2616
 8833TIP3    H147914   0.351   5.779   5.906  1.4187 -1.0174  0.3392
 8833TIP3    H247915   0.424   5.673   5.827 -0.9207 -1.5590 -1.1909
 8834TIP3   OH247916   1.475   1.329  12.164 -0.2338 -0.2428  0.4948
 8834TIP3    H147917   1.531   1.255  12.143 -0.2149 -0.6871  1.9971
 8834TIP3    H247918   1.389   1.305  12.130  0.2195 -0.0051 -0.9025
 8835TIP3   OH247919   4.531   4.978  13.125 -0.3382  0.1358 -0.5708
 8835TIP3    H147920   4.554   5.066  13.096 -1.0301  1.0769  1.5647
 8835TIP3    H247921   4.449   4.988  13.173  0.9108 -1.1365  2.0966
 8836TIP3   OH247922   1.796   5.899  11.301  0.6009  0.1668 -0.3029
 8836TIP3    H147923   1.812   5.993  11.298  0.5889  0.1598 -0.6171
 8836TIP3    H247924   1.767   5.877  11.212  0.6690 -0.1423 -0.2478
 8837TIP3   OH247925   5.312   4.895   2.097  0.7993  0.3230 -0.0554
 8837TIP3    H147926   5.226   4.861   2.075  0.9709  0.3430 -0.8103
 8837TIP3    H247927   5.313   4.983   2.059  0.5572  0.9767  1.3906
 8838TIP3   OH247928   2.157   5.885   2.231 -0.2748 -0.0963 -0.1520
 8838TIP3    H147929   2.211   5.808   2.209 -0.4438 -0.5317  0.8998
 8838TIP3    H247930   2.092   5.889   2.160 -2.1852 -2.7813  1.2777
 8839TIP3   OH247931   1.587   0.681  11.523 -0.2296  0.0205 -0.4398
 8839TIP3    H147932   1.522   0.632  11.573 -0.0598 -0.8059 -1.0079
 8839TIP3    H247933   1.564   0.666  11.431  2.4565 -2.8021 -0.7967
 8840TIP3   OH247934   6.334   3.491  14.776  0.5354  0.5597  0.0203
 8840TIP3    H147935   6.241   3.515  14.787  0.5584  0.2216  1.1154
 8840TIP3    H247936   6.352   3.432  14.849  0.7342 -2.1295 -2.0417
 8841TIP3   OH247937   2.153   4.274   0.276  0.2552 -0.2601 -0.0672
 8841TIP3    H147938   2.208   4.284   0.198  0.6460  1.7008  0.4041
 8841TIP3    H247939   2.098   4.352   0.277 -0.3055 -0.6382  1.2169
 8842TIP3   OH247940   3.989   5.008  15.452 -0.6738  0.4656 -0.3166
 8842TIP3    H147941   4.056   4.942  15.470 -0.7367  0.4462 -0.1518
 8842TIP3    H247942   3.921   4.961  15.404 -0.0403  0.7474 -1.5270
 8843TIP3   OH247943   0.635   6.022  17.107  0.2605  0.2636  0.2860
 8843TIP3    H147944   0.662   6.059  17.023 -0.0680  1.6685  0.7676
 8843TIP3    H247945   0.540   6.037  17.110 -0.1475 -1.8767 -0.0746
 8844TIP3   OH247946   5.601   0.467   4.854  0.2296 -0.2710  0.2662
 8844TIP3    H147947   5.669   0.530   4.832  0.3745 -0.6382 -0.3779
 8844TIP3    H247948   5.634   0.384   4.820 -0.8202 -0.3417 -0.6292
 8845TIP3   OH247949   3.922   6.076  13.558 -0.7326  0.1351  0.3325
 8845TIP3    H147950   3.971   5.996  13.542 -1.0683 -0.0260  0.1000
 8845TIP3    H247951   3.990   6.143  13.573 -0.4614 -0.3664  1.4313
 8846TIP3   OH247952   1.339   1.985   6.387 -0.0672 -0.6288  0.5859
 8846TIP3    H147953   1.327   2.049   6.317 -1.2948 -1.4374  0.0253
 8846TIP3    H247954   1.363   2.037   6.463 -0.6502  0.4708  0.0440
 8847TIP3   OH247955   1.534   6.466   1.695 -0.7571 -0.2814 -0.2226
 8847TIP3    H147956   1.515   6.455   1.788 -0.8856  0.1446 -0.1985
 8847TIP3    H247957   1.529   6.560   1.680  1.2399 -0.1346 -0.2267
 8848TIP3   OH247958   2.813   2.746  13.470 -0.2530 -0.7414  0.6106
 8848TIP3    H147959   2.793   2.771  13.380  2.6646 -0.8406 -0.1816
 8848TIP3    H247960   2.871   2.670  13.460  1.8511  0.5097  2.4197
 8849TIP3   OH247961   3.534   0.666   4.916 -0.4021  0.4307  0.7658
 8849TIP3    H147962   3.450   0.636   4.881  0.5810  0.4246 -1.8730
 8849TIP3    H247963   3.600   0.616   4.866  1.1937  0.3906  2.7745
 8850TIP3   OH247964   5.723   4.981   4.018  0.2183 -0.0692 -0.0970
 8850TIP3    H147965   5.662   4.923   3.972 -1.7396 -0.1430  2.3894
 8850TIP3    H247966   5.730   5.058   3.962 -0.7935 -0.7857 -1.2577
 8851TIP3   OH247967   2.741   3.867   3.594  0.2041 -0.1754 -0.4307
 8851TIP3    H147968   2.725   3.892   3.503  0.0110 -1.9583 -0.9168
 8851TIP3    H247969   2.732   3.949   3.643  1.5795  1.0860 -2.1392
 8852TIP3   OH247970   1.719   6.072   2.290 -1.3449 -0.2065 -0.4988
 8852TIP3    H147971   1.670   5.998   2.256 -1.1732 -1.4108  1.7201
 8852TIP3    H247972   1.712   6.065   2.385  1.7633  0.4715 -0.0961
 8853TIP3   OH247973   2.267   6.344   1.579 -0.3200  0.4997 -0.1576
 8853TIP3    H147974   2.183   6.299   1.584 -0.4264  0.5864 -1.0130
 8853TIP3    H247975   2.331   6.278   1.607 -0.5845  0.1648 -0.3407
 8854TIP3   OH247976   3.944   3.583  12.048  0.4892 -0.2455 -0.2948
 8854TIP3    H147977   3.850   3.596  12.058  0.4716 -0.5995  0.0114
 8854TIP3    H247978   3.957   3.563  11.955  0.4315  1.2251 -0.6446
 8855TIP3   OH247979   3.746   3.203   4.593 -0.1985 -0.4211  0.1836
 8855TIP3    H147980   3.712   3.229   4.508 -0.1153 -2.4855 -0.5273
 8855TIP3    H247981   3.669   3.175   4.642 -0.1000 -0.3807  0.3608
 8856TIP3   OH247982   1.955   3.966  16.182 -0.0039 -0.2496  0.0798
 8856TIP3    H147983   1.922   3.987  16.095 -1.9832 -3.9259 -0.2574
 8856TIP3    H247984   1.979   4.051  16.220  0.3415  1.5536 -3.7237
 8857TIP3   OH247985   4.051   2.945   3.457 -0.4218  0.5711 -0.4003
 8857TIP3    H147986   3.999   2.880   3.409 -3.3926 -0.4387  3.6857
 8857TIP3    H247987   4.003   3.027   3.444 -0.1324  0.7086 -0.6251
 8858TIP3   OH247988   6.174   1.735  16.714 -0.3144 -0.5159 -0.5540
 8858TIP3    H147989   6.238   1.727  16.643  0.8289  0.1771  0.3549
 8858TIP3    H247990   6.200   1.668  16.777 -0.6022 -0.3547 -0.2626
 8859TIP3   OH247991   5.908   2.284  17.075 -0.3028  0.3372 -0.4680
 8859TIP3    H147992   5.997   2.293  17.110  0.2616  0.6979 -1.9490
 8859TIP3    H247993   5.910   2.200  17.028 -0.8888  0.1298 -0.1308
 8860TIP3   OH247994   4.191   5.123   5.368  0.3297  0.0871 -0.2400
 8860TIP3    H147995   4.246   5.075   5.306  0.0955  0.1074 -0.4681
 8860TIP3    H247996   4.143   5.185   5.313  0.4264  0.3916  0.0170
 8861TIP3   OH247997   5.411   1.506   4.154  0.1926  0.8173 -0.6802
 8861TIP3    H147998   5.408   1.423   4.201 -0.5191 -0.6125 -3.0680
 8861TIP3    H247999   5.338   1.556   4.190  0.3246  0.2377  0.4577
 8862TIP3   OH248000   1.193   4.666  12.110  0.7067 -0.1067 -0.2766
 8862TIP3    H148001   1.103   4.673  12.076  0.9877  1.2283 -0.8059
 8862TIP3    H248002   1.228   4.754  12.102  1.7597 -0.4067  0.8412
 8863TIP3   OH248003   6.308   4.379  13.903  0.4751 -0.0912 -0.2620
 8863TIP3    H148004   6.361   4.384  13.983 -0.2338  3.8782  0.1414
 8863TIP3    H248005   6.229   4.429  13.923 -0.3662 -0.1321 -3.0415
 8864TIP3   OH248006   0.911   4.671  16.404  0.2454 -0.1225  0.0616
 8864TIP3    H148007   0.851   4.744  16.415 -0.0841 -0.6153  1.9794
 8864TIP3    H248008   0.929   4.641  16.493  2.5489 -0.6459 -0.5006
 8865TIP3   OH248009   4.743   1.744   3.568 -0.3512 -0.2767  0.4099
 8865TIP3    H148010   4.663   1.729   3.618 -1.2812  0.5517 -0.7650
 8865TIP3    H248011   4.780   1.824   3.605  0.2098 -0.9251  1.2746
 8866TIP3   OH248012   5.005   5.706  15.950  0.1357  0.1553  0.2671
 8866TIP3    H148013   5.044   5.669  15.871  0.1027  0.1261  0.2642
 8866TIP3    H248014   5.055   5.786  15.966  0.1787  0.1321  0.2487
 8867TIP3   OH248015   0.160   0.691  13.757  0.2790  0.3344  0.7591
 8867TIP3    H148016   0.117   0.606  13.763 -1.5950  0.9110 -2.3055
 8867TIP3    H248017   0.248   0.676  13.791 -0.5798 -2.3031  2.1068
 8868TIP3   OH248018   6.587   1.887  15.927 -0.1204 -0.2213 -0.0992
 8868TIP3    H148019   6.672   1.889  15.882 -0.6262  0.8107 -1.0712
 8868TIP3    H248020   6.544   1.809  15.893 -0.5369  0.5992 -1.5667
 8869TIP3   OH248021   3.243   2.110   4.576  0.0675  0.0557  0.2540
 8869TIP3    H148022   3.268   2.111   4.668  0.1900  1.9417  0.2235
 8869TIP3    H248023   3.255   2.200   4.546  0.4143 -0.5944 -1.7164
 8870TIP3   OH248024   6.445   5.352   1.672 -0.1435  0.3341 -0.0111
 8870TIP3    H148025   6.464   5.380   1.761 -2.5027 -0.8840  0.9516
 8870TIP3    H248026   6.350   5.361   1.664 -0.3743 -2.4737 -1.3331
 8871TIP3   OH248027   5.552   0.210  15.992  0.1031  0.2238 -0.5005
 8871TIP3    H148028   5.586   0.226  16.081 -1.5341  0.3041  0.1323
 8871TIP3    H248029   5.592   0.279  15.939  0.5033  0.6405  0.3282
 8872TIP3   OH248030   1.471   1.062   5.777  0.1767 -0.5836 -0.4009
 8872TIP3    H148031   1.507   0.980   5.745  0.1054  0.0655 -2.2628
 8872TIP3    H248032   1.542   1.100   5.829  0.8900 -0.9947 -1.0458
 8873TIP3   OH248033   6.031   6.394  10.431  0.0606 -0.1029 -0.0090
 8873TIP3    H148034   5.967   6.389  10.361 -2.9126  0.8202  2.4327
 8873TIP3    H248035   6.036   6.487  10.452 -1.3152 -0.5405  2.7306
 8874TIP3   OH248036   4.423   4.608  13.593 -0.4217 -0.1449 -0.4842
 8874TIP3    H148037   4.472   4.634  13.671 -1.0578 -0.1428 -0.0805
 8874TIP3    H248038   4.398   4.691  13.552 -0.4090 -0.1421 -0.4862
 8875TIP3   OH248039   1.812   6.309   1.679  0.0371 -0.2918  0.0883
 8875TIP3    H148040   1.847   6.365   1.610 -0.8955 -1.2032 -1.1714
 8875TIP3    H248041   1.725   6.283   1.648 -0.5691 -0.4377  1.7862
 8876TIP3   OH248042   0.551   6.681   2.128  0.2658 -0.5564 -0.1417
 8876TIP3    H148043   0.458   6.674   2.104  0.2722  0.3444 -0.4660
 8876TIP3    H248044   0.568   6.604   2.182 -1.0760  0.1064  1.2786
 8877TIP3   OH248045   5.138   4.007   2.003 -0.2069 -0.2599  0.2675
 8877TIP3    H148046   5.068   4.039   1.946  1.4745 -0.0805 -1.8034
 8877TIP3    H248047   5.118   3.914   2.015 -0.4873 -0.3481 -0.7850
 8878TIP3   OH248048   6.761   2.612  15.461 -0.3101 -0.0606  0.1613
 8878TIP3    H148049   6.729   2.673  15.528 -1.0389 -1.7374  1.4201
 8878TIP3    H248050   6.685   2.599  15.404 -0.7381 -1.1274  0.9426
 8879TIP3   OH248051   2.648   4.062  10.389 -0.2905 -0.0355  0.0063
 8879TIP3    H148052   2.687   3.990  10.341 -0.6183 -0.5878  0.5548
 8879TIP3    H248053   2.555   4.040  10.395 -0.8477  1.5332 -1.7846
 8880TIP3   OH248054   4.098   6.226  15.909  0.3075  0.0778  0.1612
 8880TIP3    H148055   4.086   6.131  15.904 -1.1147  0.2411 -0.0078
 8880TIP3    H248056   4.022   6.256  15.959  0.7721  1.1323  0.2499
 8881TIP3   OH248057   2.170   4.357  15.398  0.3547  0.0653  0.1332
 8881TIP3    H148058   2.238   4.357  15.466 -0.5195 -1.4526  1.0682
 8881TIP3    H248059   2.121   4.276  15.414 -0.5928  0.2591 -1.6116
 8882TIP3   OH248060   5.473   4.633  14.953  0.4377 -0.3845 -0.2939
 8882TIP3    H148061   5.490   4.588  14.870  1.7749  1.9845 -1.4076
 8882TIP3    H248062   5.403   4.695  14.933  2.5211  2.0987 -0.5310
 8883TIP3   OH248063   5.075   1.776  10.987 -0.3415  0.0508 -0.3604
 8883TIP3    H148064   5.095   1.701  10.930  0.7882  0.6892 -0.8222
 8883TIP3    H248065   4.981   1.791  10.973 -0.2327 -0.2398 -1.5334
 8884TIP3   OH248066   3.823   6.387   0.432  0.1539  0.2454 -0.4971
 8884TIP3    H148067   3.866   6.368   0.516 -1.3574  2.1712  0.8008
 8884TIP3    H248068   3.892   6.424   0.377  0.7123  0.9616  0.6560
 8885TIP3   OH248069   6.115   4.824   4.397  0.8026  0.5261  0.0502
 8885TIP3    H148070   6.193   4.861   4.356 -0.3305  0.8336 -1.9976
 8885TIP3    H248071   6.130   4.730   4.398  1.2564  0.5945 -0.1972
 8886TIP3   OH248072   5.497   3.835  12.967  0.0132  0.2354  0.1173
 8886TIP3    H148073   5.420   3.859  12.916  0.1037  0.8842  0.2664
 8886TIP3    H248074   5.572   3.859  12.912  0.1158  1.4033  0.7255
 8887TIP3   OH248075   4.664   2.687   6.109 -0.3145  0.3454 -0.0120
 8887TIP3    H148076   4.647   2.690   6.015  2.9847 -0.5443 -0.7640
 8887TIP3    H248077   4.629   2.602   6.137  1.2546 -0.7151 -1.1123
 8888TIP3   OH248078   2.893   5.379   4.533 -0.4788 -0.5663  0.4036
 8888TIP3    H148079   2.982   5.414   4.532 -0.2740 -0.9101  2.4040
 8888TIP3    H248080   2.840   5.448   4.574 -0.7603 -1.1167  0.9858
 8889TIP3   OH248081   4.492   4.605   0.108 -0.4016 -0.2880 -0.0421
 8889TIP3    H148082   4.426   4.629   0.173 -0.8133  0.0875 -0.5927
 8889TIP3    H248083   4.550   4.544   0.154 -1.5997 -1.2823  0.2134
 8890TIP3   OH248084   1.822   6.041  11.727  0.4125  0.6842 -0.0572
 8890TIP3    H148085   1.748   6.046  11.788 -0.2112 -0.0871 -0.7309
 8890TIP3    H248086   1.868   6.124  11.739 -1.3904  1.8419 -0.6362
 8891TIP3   OH248087   3.621   4.357  11.400  0.6456  0.1042 -0.7718
 8891TIP3    H148088   3.550   4.305  11.438  0.6286  0.8172  0.2184
 8891TIP3    H248089   3.688   4.293  11.377  0.9838 -0.3259  1.2066
 8892TIP3   OH248090   1.991   3.670  14.449 -0.2380  0.2887  0.0093
 8892TIP3    H148091   1.944   3.619  14.515 -1.3424  2.4343  0.9659
 8892TIP3    H248092   1.938   3.662  14.370  0.2357 -0.9796 -0.2026
 8893TIP3   OH248093   4.968   6.506  15.466  0.1956  0.6202  0.3799
 8893TIP3    H148094   5.001   6.592  15.440 -0.5608  0.3805 -1.5691
 8893TIP3    H248095   4.945   6.464  15.383  1.8109 -2.0139  1.1453
 8894TIP3   OH248096   6.802   0.321  16.736  0.1139  0.0869 -0.7765
 8894TIP3    H148097   6.769   0.399  16.692  2.1407  1.5368  0.1403
 8894TIP3    H248098   6.870   0.287  16.677  2.9955  2.1561  1.0733
 8895TIP3   OH248099   0.319   2.728   2.200 -0.1122  0.2399 -0.0825
 8895TIP3    H148100   0.399   2.771   2.172 -0.6846  1.4217  0.0182
 8895TIP3    H248101   0.296   2.772   2.282 -0.2147 -0.9239  0.5269
 8896TIP3   OH248102   5.278   4.800   5.157  0.0192 -0.4818  0.7412
 8896TIP3    H148103   5.278   4.724   5.216 -1.5554 -1.7962 -0.8430
 8896TIP3    H248104   5.262   4.763   5.071  1.9137  1.4230 -0.5386
 8897TIP3   OH248105   3.068   1.903   4.311  0.0371  0.2333 -0.0890
 8897TIP3    H148106   3.051   1.988   4.352 -0.8689  0.4731 -0.9134
 8897TIP3    H248107   2.994   1.849   4.337  1.1786 -0.6981  1.3809
 8898TIP3   OH248108   3.078   4.923   3.324  0.3506  0.1868  0.3707
 8898TIP3    H148109   3.012   4.963   3.267 -0.7954  1.5249  2.4923
 8898TIP3    H248110   3.093   4.988   3.393  2.5531 -0.8569  0.9636
 8899TIP3   OH248111   6.272   5.761  13.512  0.1906 -0.4833  0.0990
 8899TIP3    H148112   6.191   5.799  13.548 -1.2733 -2.0747 -1.3184
 8899TIP3    H248113   6.308   5.831  13.457 -0.6372  0.0033  0.1493
 8900TIP3   OH248114   4.974   5.927   2.826 -0.0885  0.0263  0.7722
 8900TIP3    H148115   4.896   5.900   2.778  0.4303 -0.2134  0.0548
 8900TIP3    H248116   5.029   5.970   2.761 -0.0225  1.0385  1.4702
 8901TIP3   OH248117   5.195   2.442   2.499 -0.1780  0.4632  0.3663
 8901TIP3    H148118   5.151   2.362   2.528  0.7524  0.6151  2.3546
 8901TIP3    H248119   5.263   2.412   2.439  0.6237 -0.3563  1.6345
 8902TIP3   OH248120   5.129   5.058   1.762  0.2173 -0.6229 -0.0732
 8902TIP3    H148121   5.075   5.126   1.801 -0.1829  0.6432 -2.6313
 8902TIP3    H248122   5.216   5.097   1.755  0.1458 -0.5957 -0.9264
 8903TIP3   OH248123   1.062   2.098  14.138  0.1746 -0.8418 -0.4012
 8903TIP3    H148124   1.141   2.127  14.092  0.5095 -1.8294 -0.4720
 8903TIP3    H248125   1.078   2.120  14.230 -0.7581  1.7249 -0.7561
 8904TIP3   OH248126   5.873   0.775  13.103  0.0466 -0.0835 -0.0269
 8904TIP3    H148127   5.915   0.764  13.018  1.4891 -1.6318  0.8441
 8904TIP3    H248128   5.890   0.694  13.150 -0.9109  0.6389  1.6846
 8905TIP3   OH248129   6.721   3.254   0.584 -0.4519 -0.3524 -0.4688
 8905TIP3    H148130   6.676   3.319   0.530  3.0543  0.6187 -2.5564
 8905TIP3    H248131   6.709   3.171   0.538 -2.2642 -0.6675  0.4869
 8906TIP3   OH248132   4.889   0.233  14.512 -0.0646  0.3475 -0.6562
 8906TIP3    H148133   4.886   0.157  14.454  1.4675  1.0364 -1.7229
 8906TIP3    H248134   4.865   0.200  14.598  0.8768 -1.4072 -1.0374
 8907TIP3   OH248135   2.327   0.238  16.819  0.1266  0.0085 -0.4390
 8907TIP3    H148136   2.243   0.200  16.846 -0.1108  1.5919  1.2622
 8907TIP3    H248137   2.331   0.223  16.725 -1.3850 -1.3993 -0.3143
 8908TIP3   OH248138   3.713   5.065   3.386 -0.4406 -0.7078 -0.6688
 8908TIP3    H148139   3.738   5.149   3.347 -1.7565 -1.0164 -2.3032
 8908TIP3    H248140   3.792   5.012   3.382 -0.2980 -0.4303 -2.1722
 8909TIP3   OH248141   5.155   0.275   5.874  0.6871 -0.3657  0.0414
 8909TIP3    H148142   5.250   0.261   5.869  0.7500 -0.5727  1.3970
 8909TIP3    H248143   5.133   0.253   5.965 -0.4136  1.1432  0.1792
 8910TIP3   OH248144   3.186   5.557  15.450  0.2749 -0.1345  0.2085
 8910TIP3    H148145   3.100   5.599  15.440 -0.1402 -0.5331  1.8166
 8910TIP3    H248146   3.201   5.556  15.545  1.6901 -0.8261 -0.0017
 8911TIP3   OH248147   5.427   2.031   3.159 -0.1836  0.5323 -0.5714
 8911TIP3    H148148   5.477   1.952   3.140 -4.1916 -2.0887 -1.4170
 8911TIP3    H248149   5.443   2.048   3.252 -0.5934 -2.4820  0.1465
 8912TIP3   OH248150   4.473   6.672   2.935  0.0542 -0.1512 -0.3149
 8912TIP3    H148151   4.392   6.631   2.904  0.7684 -1.5781 -0.3798
 8912TIP3    H248152   4.474   6.654   3.029  1.1175 -1.6922 -0.5874
 8913TIP3   OH248153   0.622   4.752  14.804 -0.5294  0.1513  1.0232
 8913TIP3    H148154   0.668   4.833  14.783  0.0100 -0.3234  0.3457
 8913TIP3    H248155   0.595   4.764  14.895  0.1207  0.8221  1.1451
 8914TIP3   OH248156   6.152   1.039   0.828  0.3094  0.3125 -0.6157
 8914TIP3    H148157   6.239   1.075   0.807  0.0876  0.6888 -0.9026
 8914TIP3    H248158   6.162   0.945   0.819  0.7204  0.3448 -0.5357
 8915TIP3   OH248159   0.523   6.649  16.205 -0.3238 -0.2771  0.2022
 8915TIP3    H148160   0.481   6.563  16.214 -0.1079 -0.4473 -0.3420
 8915TIP3    H248161   0.554   6.670  16.292 -1.1559 -0.3476  0.5300
 8916TIP3   OH248162   2.236   5.096   1.589 -0.5219 -0.1480 -0.1405
 8916TIP3    H148163   2.199   5.022   1.638  2.7569 -0.2434  2.5664
 8916TIP3    H248164   2.306   5.057   1.537 -0.7070  0.6768 -1.0168
 8917TIP3   OH248165   0.600   2.627  13.906 -0.0992  0.6922 -0.0472
 8917TIP3    H148166   0.516   2.660  13.938 -0.1019 -0.2041  0.9133
 8917TIP3    H248167   0.599   2.646  13.812 -0.3938  2.7467  0.3230
 8918TIP3   OH248168   0.616   3.071   4.148 -0.1201 -0.1056  0.6199
 8918TIP3    H148169   0.650   3.019   4.220  0.6508 -1.3620 -0.6032
 8918TIP3    H248170   0.688   3.128   4.123 -0.1099 -0.2361  0.3434
 8919TIP3   OH248171   6.426   2.031   4.782  0.1750  0.0687  0.5409
 8919TIP3    H148172   6.445   1.940   4.758  2.7486  0.5664  0.4649
 8919TIP3    H248173   6.410   2.027   4.877  1.7645 -0.2942  0.8160
 8920TIP3   OH248174   1.897   6.086   5.588  0.1384  0.1690  0.4654
 8920TIP3    H148175   1.839   6.013   5.610  1.4856 -0.6350  1.4451
 8920TIP3    H248176   1.857   6.162   5.630 -0.0555 -0.4269  1.3784
 8921TIP3   OH248177   3.650   6.581  10.798  0.2570  0.4740 -0.4305
 8921TIP3    H148178   3.656   6.593  10.703 -3.7457 -0.4133 -0.9995
 8921TIP3    H248179   3.563   6.544  10.811  0.2619  1.4850  3.7109
 8922TIP3   OH248180   5.761   5.022  16.607 -0.4115  0.0371  0.6596
 8922TIP3    H148181   5.800   4.991  16.525 -0.8831 -1.4707  0.9861
 8922TIP3    H248182   5.669   5.036  16.587 -0.2476  1.0749  0.5723
 8923TIP3   OH248183   2.897   5.719   5.552  0.4045  0.1267 -0.0451
 8923TIP3    H148184   2.810   5.679   5.564  0.5303 -1.3739 -2.9698
 8923TIP3    H248185   2.953   5.674   5.615 -0.1420 -2.1152 -1.0553
 8924TIP3   OH248186   3.094   0.543   0.531 -0.0688 -0.6993 -0.0743
 8924TIP3    H148187   3.170   0.601   0.524 -0.6520  0.2276  0.8522
 8924TIP3    H248188   3.019   0.600   0.515 -0.5978 -1.4763 -0.3965
 8925TIP3   OH248189   1.485   4.654  13.065  0.1779 -0.0910  0.4114
 8925TIP3    H148190   1.437   4.652  13.147 -0.0789  1.1257  0.3079
 8925TIP3    H248191   1.436   4.597  13.007 -1.7513  1.8308  0.0171
 8926TIP3   OH248192   3.999   2.850   5.553 -0.0451 -0.2228 -0.3590
 8926TIP3    H148193   3.997   2.825   5.645  0.4935  0.1039 -0.2568
 8926TIP3    H248194   4.085   2.889   5.540 -0.1136 -0.2721 -1.0031
 8927TIP3   OH248195   5.302   0.642   2.302 -0.2238 -0.4287 -0.4080
 8927TIP3    H148196   5.363   0.594   2.357  0.2017  0.1887 -0.3367
 8927TIP3    H248197   5.306   0.598   2.217  1.0036  0.1633 -0.6679
 8928TIP3   OH248198   3.469   0.938  12.060  0.3551  0.0584  0.6012
 8928TIP3    H148199   3.404   0.917  12.127 -0.5442  1.0462  0.0702
 8928TIP3    H248200   3.426   1.003  12.004  0.1509 -2.3671 -2.3354
 8929TIP3   OH248201   4.460   3.451   4.962  0.0387  0.1900  0.0012
 8929TIP3    H148202   4.503   3.536   4.972  1.7921 -0.8711  2.7964
 8929TIP3    H248203   4.530   3.387   4.972 -1.5483 -1.6038  0.3175
 8930TIP3   OH248204   2.609   0.994   0.542  0.0393 -0.7912  0.2713
 8930TIP3    H148205   2.684   0.953   0.499  0.1088 -1.4240  0.9804
 8930TIP3    H248206   2.550   0.922   0.563 -0.3923 -0.3903  0.4671
 8931TIP3   OH248207   4.505   4.858   5.920 -0.0242 -0.3790  0.2574
 8931TIP3    H148208   4.496   4.919   5.994 -1.2274 -0.8291  0.5091
 8931TIP3    H248209   4.579   4.892   5.870 -0.4738  1.1148  0.5555
 8932TIP3   OH248210   5.306   3.944  15.436  0.0480  0.2156 -0.1682
 8932TIP3    H148211   5.313   3.869  15.495  1.3086  0.5532  0.1634
 8932TIP3    H248212   5.391   3.989  15.445  1.0893 -0.7654 -3.6554
 8933TIP3   OH248213   3.817   2.276  12.904 -0.1491 -0.6729 -0.2198
 8933TIP3    H148214   3.873   2.215  12.857 -0.3351 -0.0640 -1.2728
 8933TIP3    H248215   3.736   2.228  12.919  0.8328 -1.7985  1.9199
 8934TIP3   OH248216   5.624   5.827  13.399  0.2605 -0.4095 -0.6278
 8934TIP3    H148217   5.644   5.850  13.489 -1.9356  1.0847 -0.4508
 8934TIP3    H248218   5.658   5.900  13.347  1.3876 -1.1923 -1.0372
 8935TIP3   OH248219   0.823   3.994  11.371 -0.6146  0.6255  0.6602
 8935TIP3    H148220   0.848   3.981  11.462 -1.0669  3.4073  1.2976
 8935TIP3    H248221   0.893   3.954  11.320  0.4417  0.3705  2.2513
 8936TIP3   OH248222   2.165   5.383   5.788  0.1572  0.1564 -0.0229
 8936TIP3    H148223   2.183   5.291   5.770 -1.4175 -0.0444 -0.7850
 8936TIP3    H248224   2.168   5.390   5.883  2.0312 -0.2677 -0.0120
 8937TIP3   OH248225   3.996   0.043   3.876 -0.5294  0.2096 -0.4174
 8937TIP3    H148226   4.004   0.086   3.791 -0.2079  0.5128 -0.2401
 8937TIP3    H248227   4.047  -0.037   3.867  2.1059  1.6650  0.3980
 8938TIP3   OH248228   1.506   2.781  14.678 -0.3914  0.3496 -0.1844
 8938TIP3    H148229   1.586   2.733  14.699 -1.6048 -2.2151 -1.0716
 8938TIP3    H248230   1.518   2.809  14.587 -0.1812  0.6860 -0.0552
 8939TIP3   OH248231   3.823   5.413   2.739  0.5313 -0.1471 -0.2060
 8939TIP3    H148232   3.834   5.327   2.697 -0.3183 -0.4865  0.2367
 8939TIP3    H248233   3.907   5.429   2.783  0.2815 -1.3423  0.7552
 8940TIP3   OH248234   4.467   3.992  16.537 -0.9915 -0.1230  0.5140
 8940TIP3    H148235   4.562   3.984  16.529 -0.9874 -1.0225  1.3147
 8940TIP3    H248236   4.452   4.087  16.546 -0.3245  0.1691 -1.1770
 8941TIP3   OH248237   6.425   3.382  13.922  0.1059 -0.0754  0.3263
 8941TIP3    H148238   6.438   3.302  13.972  2.9427  0.6115  0.8529
 8941TIP3    H248239   6.444   3.453  13.984  1.0251  0.8724 -0.9836
 8942TIP3   OH248240   1.889   4.899   1.234 -0.4525  0.9066 -0.6566
 8942TIP3    H148241   1.845   4.815   1.221 -1.3378  1.2717 -0.1730
 8942TIP3    H248242   1.970   4.892   1.185 -1.1255  0.2505 -1.7234
 8943TIP3   OH248243   1.341   2.052  14.728  0.4302 -1.2945  0.2005
 8943TIP3    H148244   1.333   2.135  14.681  2.5799 -1.1446 -0.0000
 8943TIP3    H248245   1.427   2.019  14.703  0.2840 -2.7937  1.5494
 8944TIP3   OH248246   2.810   2.059  14.731 -0.2881  0.2022  0.3415
 8944TIP3    H148247   2.845   1.974  14.756 -1.6152 -0.0618  1.5072
 8944TIP3    H248248   2.831   2.116  14.806 -1.1524  0.3581  0.4799
 8945TIP3   OH248249   0.011   2.656   0.625 -0.1561 -0.2909 -0.1483
 8945TIP3    H148250  -0.048   2.587   0.655  0.0196  0.1864  1.3983
 8945TIP3    H248251  -0.012   2.670   0.533 -1.3654 -1.1866 -0.0005
 8946TIP3   OH248252   5.437   1.991  14.959  0.4503 -0.3343  0.3976
 8946TIP3    H148253   5.477   1.906  14.939  2.2293  0.0234  2.1649
 8946TIP3    H248254   5.500   2.055  14.926 -0.4954  0.3253 -0.1746
 8947TIP3   OH248255   1.608   3.437   0.035 -0.2268  0.0017 -0.1838
 8947TIP3    H148256   1.673   3.475   0.094 -0.1496 -0.8986  0.3286
 8947TIP3    H248257   1.599   3.346   0.065 -1.8132  0.1451 -0.1744
 8948TIP3   OH248258   0.001   5.737   3.703  0.4101  0.2530  0.2502
 8948TIP3    H148259   0.071   5.672   3.702  0.7084  0.4995  1.9802
 8948TIP3    H248260  -0.077   5.688   3.676  0.8880 -0.4844  0.1643
 8949TIP3   OH248261   1.756   3.377   6.230 -0.1475 -0.3815  0.2217
 8949TIP3    H148262   1.725   3.443   6.167 -2.3576 -1.1272  0.4305
 8949TIP3    H248263   1.806   3.427   6.294 -0.6626  0.9092 -0.3426
 8950TIP3   OH248264   5.676   5.004   4.493  0.3557 -0.6733 -0.4100
 8950TIP3    H148265   5.723   4.942   4.437  1.8638  0.4885 -0.4705
 8950TIP3    H248266   5.632   5.063   4.431  0.0462 -0.8325 -0.3467
 8951TIP3   OH248267   2.894   5.244   0.366  0.1544  0.6354 -0.3297
 8951TIP3    H148268   2.878   5.294   0.286  0.7596  1.1973 -0.1061
 8951TIP3    H248269   2.852   5.159   0.350  0.9173  0.4634 -1.5417
 8952TIP3   OH248270   2.418   6.682   2.034  0.1019 -0.8722  0.1879
 8952TIP3    H148271   2.410   6.588   2.016 -0.8848 -0.6195 -0.8256
 8952TIP3    H248272   2.380   6.693   2.122 -0.1010 -1.3741  0.1636
 8953TIP3   OH248273   0.224   4.453   2.096 -0.2510 -0.8327  0.6822
 8953TIP3    H148274   0.203   4.533   2.049  0.4906 -0.3368  1.1756
 8953TIP3    H248275   0.140   4.406   2.102 -1.3041  1.1161  2.6970
 8954TIP3   OH248276   1.474   0.129  13.223 -0.1603 -0.2018 -0.0035
 8954TIP3    H148277   1.482   0.221  13.250  0.7191  0.3332 -1.9209
 8954TIP3    H248278   1.550   0.113  13.167  0.0886 -2.3420  0.8390
 8955TIP3   OH248279   1.967   4.453  12.685 -0.3753  0.6707  0.5443
 8955TIP3    H148280   1.905   4.434  12.615 -1.1257 -0.3762  1.4404
 8955TIP3    H248281   1.990   4.545  12.673  0.7485  0.1116 -1.9846
 8956TIP3   OH248282   4.036   1.690   2.922 -0.3961  0.4653 -0.0883
 8956TIP3    H148283   4.004   1.639   2.996  0.3517  0.7243  0.4224
 8956TIP3    H248284   4.108   1.639   2.887  0.7146  1.3968  0.7583
 8957TIP3   OH248285   0.441   3.907   4.187 -0.4758  0.0969  0.3996
 8957TIP3    H148286   0.456   3.923   4.094  0.9955  2.0352  0.9124
 8957TIP3    H248287   0.496   3.832   4.208  2.1950  1.9313  0.4332
 8958TIP3   OH248288   5.567   2.303  12.239 -0.6115 -0.4718 -0.0102
 8958TIP3    H148289   5.641   2.306  12.300  0.3723  0.4593 -1.2120
 8958TIP3    H248290   5.576   2.218  12.196 -0.1275 -0.2876 -0.2816
 8959TIP3   OH248291   5.554   3.669   3.297 -0.3620 -0.5580  0.4288
 8959TIP3    H148292   5.645   3.658   3.271  0.0647  1.2354  1.0333
 8959TIP3    H248293   5.539   3.763   3.293 -2.1283 -0.8020  0.5575
 8960TIP3   OH248294   2.174   0.246  10.658  0.3807  0.7455  0.0793
 8960TIP3    H148295   2.185   0.341  10.669 -3.0233  1.6401 -2.4008
 8960TIP3    H248296   2.111   0.222  10.727 -0.7991  0.9287 -0.8910
 8961TIP3   OH248297   4.131   5.391  10.855  0.2920 -0.2616  0.2174
 8961TIP3    H148298   4.082   5.362  10.777  1.0965  0.6350 -0.6523
 8961TIP3    H248299   4.063   5.413  10.919 -0.5438  1.8611 -1.2863
 8962TIP3   OH248300   4.126   4.452   2.979 -0.2094 -0.3498 -0.2264
 8962TIP3    H148301   4.102   4.362   2.957  2.3155 -1.0721 -0.3514
 8962TIP3    H248302   4.162   4.446   3.068 -0.1443  0.5774 -0.1817
 8963TIP3   OH248303   1.464   5.530  11.435  0.3869  0.3622 -0.5016
 8963TIP3    H148304   1.499   5.543  11.523  0.7195 -0.3623 -0.5195
 8963TIP3    H248305   1.441   5.437  11.432  1.0496  0.2153 -1.4238
 8964TIP3   OH248306   3.507   3.430   3.512 -0.7507 -0.2255 -0.7410
 8964TIP3    H148307   3.476   3.476   3.590  0.3902 -1.1453  0.3219
 8964TIP3    H248308   3.453   3.463   3.440 -2.1418  0.3357  0.5094
 8965TIP3   OH248309   4.161   2.412  16.892 -0.3566 -0.9775 -0.2189
 8965TIP3    H148310   4.167   2.370  16.807  0.3979  0.4069 -0.8911
 8965TIP3    H248311   4.103   2.487  16.877 -0.2391 -0.7348  0.4956
 8966TIP3   OH248312   3.811   5.139   0.784 -0.1048  0.1208  0.9405
 8966TIP3    H148313   3.763   5.185   0.852 -0.4701  0.4363  0.4721
 8966TIP3    H248314   3.751   5.071   0.753 -0.7155  1.2242 -0.4249
 8967TIP3   OH248315   6.744   0.509   0.651 -0.1192 -0.2380  0.4202
 8967TIP3    H148316   6.672   0.571   0.638 -0.6221 -0.5574  1.5719
 8967TIP3    H248317   6.733   0.478   0.740 -0.1637 -2.3489 -0.2655
 8968TIP3   OH248318   3.876   1.211   2.764 -0.2573 -0.3934 -0.3732
 8968TIP3    H148319   3.797   1.193   2.713 -0.6843 -0.6516  0.3699
 8968TIP3    H248320   3.912   1.124   2.783 -1.3791 -0.4483  1.7425
 8969TIP3   OH248321   2.199   1.473   5.302 -0.4048  0.2780  0.1202
 8969TIP3    H148322   2.191   1.387   5.342 -0.1229  0.7288  1.1838
 8969TIP3    H248323   2.293   1.487   5.292 -0.3856  0.9442  1.0778
 8970TIP3   OH248324   0.462   3.414   3.488  0.2351  0.0279  1.1207
 8970TIP3    H148325   0.525   3.360   3.441  0.7274 -0.1947  2.0271
 8970TIP3    H248326   0.471   3.501   3.449 -1.6622 -0.7937 -1.4553
 8971TIP3   OH248327   6.137   4.184   0.413  0.3910 -0.0445 -0.0755
 8971TIP3    H148328   6.054   4.211   0.453 -0.4787 -0.9105 -1.2057
 8971TIP3    H248329   6.169   4.262   0.368 -0.7091 -0.1169 -1.0487
 8972TIP3   OH248330   4.202   1.372   3.547  0.0877  0.4194 -0.3182
 8972TIP3    H148331   4.295   1.365   3.567 -0.4478 -0.9728  2.1437
 8972TIP3    H248332   4.169   1.436   3.611 -0.7668  0.3136 -0.6395
 8973TIP3   OH248333   5.741   2.072   3.014  0.6855 -0.1527 -0.1846
 8973TIP3    H148334   5.821   2.104   3.054  2.3470 -0.9319 -2.6815
 8973TIP3    H248335   5.744   1.977   3.026 -1.4326 -0.0279  2.2725
 8974TIP3   OH248336   6.731   0.778  12.870  0.6718  0.5177  0.5669
 8974TIP3    H148337   6.810   0.727  12.853  0.7082  0.9373 -0.6747
 8974TIP3    H248338   6.739   0.805  12.961  1.6758  0.0722  0.6302
 8975TIP3   OH248339   2.490   5.071   6.236  0.3804  0.1015  0.0211
 8975TIP3    H148340   2.535   5.018   6.302  1.3434 -0.2502 -0.9072
 8975TIP3    H248341   2.414   5.018   6.211  1.6193 -1.1590 -1.2935
 8976TIP3   OH248342   2.295   3.528   1.728 -0.2690 -0.4346 -0.2879
 8976TIP3    H148343   2.318   3.547   1.819  0.0501  0.6301 -0.5781
 8976TIP3    H248344   2.213   3.575   1.714  0.0032 -0.0943 -0.7309
 8977TIP3   OH248345   5.286   3.077   3.360  0.1786  0.1601 -0.0000
 8977TIP3    H148346   5.224   3.040   3.424  1.0994  2.4899  2.3898
 8977TIP3    H248347   5.237   3.077   3.278 -1.9507 -0.7219  1.1751
 8978TIP3   OH248348   3.125   5.508   4.432  0.1566  0.3365 -0.2092
 8978TIP3    H148349   3.178   5.509   4.352  0.3307  0.8318 -0.0914
 8978TIP3    H248350   3.086   5.595   4.435  1.3944  0.8875  1.0610
 8979TIP3   OH248351   0.445   1.809  11.029  0.4484  1.1668 -0.8808
 8979TIP3    H148352   0.436   1.716  11.048 -0.7814  1.3896 -0.3074
 8979TIP3    H248353   0.445   1.852  11.115  0.3175  1.7519 -1.1630
 8980TIP3   OH248354   4.713   0.827   1.799 -0.0525 -0.4882 -0.4195
 8980TIP3    H148355   4.736   0.912   1.762  0.1294 -0.4710 -0.2686
 8980TIP3    H248356   4.774   0.765   1.757 -0.1532 -0.5362 -0.4946
 8981TIP3   OH248357   3.807   3.902   0.260 -0.8520  0.3952  0.8031
 8981TIP3    H148358   3.856   3.969   0.211  0.0875 -0.9277 -0.1190
 8981TIP3    H248359   3.874   3.854   0.309 -1.0822 -1.7355 -0.8274
 8982TIP3   OH248360   1.185   0.079  13.652 -0.0939  0.1550 -0.1007
 8982TIP3    H148361   1.154   0.091  13.562  1.1566 -0.8197 -0.6949
 8982TIP3    H248362   1.208   0.168  13.681 -1.1891  0.5737 -0.4674
 8983TIP3   OH248363   1.034   3.621   0.904 -0.2935  0.1974  0.4156
 8983TIP3    H148364   0.953   3.620   0.853 -0.1058  3.5318 -0.1585
 8983TIP3    H248365   1.012   3.669   0.984  1.3246  2.4102 -0.3587
 8984TIP3   OH248366   2.662   3.966   0.998 -0.4287  1.0990  0.4091
 8984TIP3    H148367   2.620   3.987   0.915  0.0882  0.2698 -0.0749
 8984TIP3    H248368   2.590   3.957   1.060 -0.7510  2.8464  0.3322
 8985TIP3   OH248369   5.896   4.322   0.506 -0.4439 -0.0792 -0.1468
 8985TIP3    H148370   5.941   4.395   0.549 -0.3095  1.0512 -2.0963
 8985TIP3    H248371   5.807   4.354   0.492  0.1189  0.5862 -2.7953
 8986TIP3   OH248372   6.369   3.839   2.286  0.8072  0.1789 -0.8073
 8986TIP3    H148373   6.277   3.842   2.315  1.4800  0.7386  1.4937
 8986TIP3    H248374   6.366   3.867   2.195 -1.1488  2.0903 -0.2556
 8987TIP3   OH248375   3.692   0.260   1.326 -0.6650  0.2180 -0.0020
 8987TIP3    H148376   3.733   0.243   1.241 -1.0430  0.4369 -0.2336
 8987TIP3    H248377   3.679   0.355   1.327 -0.1727  0.2839  0.5285
 8988TIP3   OH248378   1.181   0.383  15.708 -0.1659 -0.0854  0.1831
 8988TIP3    H148379   1.223   0.299  15.727 -0.8314 -0.4801 -0.0374
 8988TIP3    H248380   1.157   0.378  15.616 -0.4993  0.2171  0.2495
 8989TIP3   OH248381   3.142   5.045  15.241 -0.6444 -0.1549 -0.2529
 8989TIP3    H148382   3.165   5.133  15.271  1.9196 -0.4297 -1.1394
 8989TIP3    H248383   3.104   5.003  15.318 -0.8311  1.3498  0.5225
 8990TIP3   OH248384   0.618   6.386   5.875 -0.4936 -0.5330 -0.1963
 8990TIP3    H148385   0.707   6.350   5.874 -0.5923 -0.8898  1.0141
 8990TIP3    H248386   0.596   6.391   5.969 -1.0565  1.3009 -0.3874
 8991TIP3   OH248387   5.710   1.736  15.492 -0.0053 -0.5264 -0.1918
 8991TIP3    H148388   5.763   1.772  15.420  0.1734 -1.6778 -0.6581
 8991TIP3    H248389   5.652   1.808  15.517  1.5004  0.6629  0.0867
 8992TIP3   OH248390   1.999   4.874   4.844  0.3277 -0.4526  0.3135
 8992TIP3    H148391   1.940   4.947   4.865 -0.0805 -0.7077  0.0610
 8992TIP3    H248392   2.026   4.890   4.753 -2.5585 -2.4704 -1.0324
 8993TIP3   OH248393   6.659   2.756  11.872  0.0521 -0.3586 -0.0923
 8993TIP3    H148394   6.707   2.739  11.953  1.5450  1.3817 -0.5637
 8993TIP3    H248395   6.572   2.784  11.901  0.9414  1.4475  0.9986
 8994TIP3   OH248396   6.724   2.113   0.115  0.3969 -0.2437  0.2732
 8994TIP3    H148397   6.759   2.090   0.029  0.1418  0.1366  0.0661
 8994TIP3    H248398   6.801   2.114   0.173  0.8438  1.1940 -0.3023
 8995TIP3   OH248399   5.547   0.795   0.453 -0.0105 -0.2012  0.2592
 8995TIP3    H148400   5.496   0.841   0.520 -1.4482 -0.6009 -0.5082
 8995TIP3    H248401   5.566   0.710   0.493 -2.9226 -1.3924 -0.5823
 8996TIP3   OH248402   3.289   5.444   1.883  0.4617  0.3348  0.4308
 8996TIP3    H148403   3.309   5.351   1.896  0.1636  0.1028 -0.6310
 8996TIP3    H248404   3.194   5.450   1.892  0.5771  0.7330  1.5276
 8997TIP3   OH248405   6.661   1.577  13.344 -0.1514 -0.3851 -0.0800
 8997TIP3    H148406   6.704   1.587  13.429 -0.6010  0.1354  0.0881
 8997TIP3    H248407   6.730   1.594  13.280 -0.0651  0.2904  0.1871
 8998TIP3   OH248408   1.644   3.916  12.219 -0.1160  0.0646 -0.1021
 8998TIP3    H148409   1.587   3.961  12.281  0.0843  0.2194 -0.0272
 8998TIP3    H248410   1.715   3.882  12.273  0.0916  0.2525 -0.2527
 8999TIP3   OH248411   0.797   5.807  14.094  0.0225  0.1055  0.0959
 8999TIP3    H148412   0.779   5.864  14.019 -1.8581 -2.0548 -1.2031
 8999TIP3    H248413   0.721   5.817  14.151  0.2550 -0.1890  0.4679
 9000TIP3   OH248414   2.070   1.240  16.362  0.3052 -0.2826 -0.3839
 9000TIP3    H148415   1.996   1.239  16.422  0.7117 -2.9346  0.2144
 9000TIP3    H248416   2.129   1.306  16.398 -1.0263  0.7402  0.0259
 9001TIP3   OH248417   5.354   5.835  16.994 -0.1057 -0.5126  0.6053
 9001TIP3    H148418   5.295   5.760  16.985 -1.5566  0.3158  2.7037
 9001TIP3    H248419   5.438   5.795  17.018 -0.0784 -1.6166 -1.1487
 9002TIP3   OH248420   6.154   1.894   1.616 -0.2038  0.2462 -0.3599
 9002TIP3    H148421   6.171   1.988   1.622 -0.1972  0.1847  0.7772
 9002TIP3    H248422   6.238   1.857   1.587  0.3196  0.4153  0.8878
 9003TIP3   OH248423   0.217   1.590  11.533  0.3079 -0.0416  0.7583
 9003TIP3    H148424   0.122   1.578  11.542  0.3351 -0.2335  0.7826
 9003TIP3    H248425   0.245   1.523  11.472 -0.0046  1.8029 -1.5460
 9004TIP3   OH248426   2.099   0.168  14.559 -0.1748 -0.3991 -0.3331
 9004TIP3    H148427   2.097   0.244  14.500  0.1259 -1.1292 -1.3069
 9004TIP3    H248428   2.141   0.201  14.639 -0.7458  0.6540 -0.4455
 9005TIP3   OH248429   5.780   5.976   5.335 -0.4369 -0.1627 -0.4163
 9005TIP3    H148430   5.712   6.041   5.355 -0.3690 -0.4122  0.6724
 9005TIP3    H248431   5.834   5.972   5.414  0.3400 -0.6035 -0.9497
 9006TIP3   OH248432   4.100   0.350   3.813  0.4502  0.2352  0.5016
 9006TIP3    H148433   4.045   0.274   3.794  0.4392  0.6106 -1.1013
 9006TIP3    H248434   4.186   0.325   3.779  0.4042  0.9765 -0.1837
 9007TIP3   OH248435   0.231   0.508   1.506  0.0294  0.1620 -0.6126
 9007TIP3    H148436   0.280   0.426   1.518 -1.8387 -0.9986 -0.4432
 9007TIP3    H248437   0.153   0.497   1.561  0.9638  3.2318  1.6098
 9008TIP3   OH248438   6.326   1.769   3.264  0.0661  0.3159  0.0574
 9008TIP3    H148439   6.266   1.695   3.254  0.8625 -0.4310  0.6038
 9008TIP3    H248440   6.402   1.745   3.211  0.3701  0.7038  0.3136
 9009TIP3   OH248441   3.006   2.679  14.578  0.1458 -0.2599  0.3756
 9009TIP3    H148442   3.097   2.649  14.576 -0.1732 -1.5194  2.0346
 9009TIP3    H248443   2.974   2.667  14.488  1.9113  1.3398 -0.5330
 9010TIP3   OH248444   3.239   0.434  15.788  1.1252 -0.2620  0.5615
 9010TIP3    H148445   3.161   0.474  15.750 -1.6508 -4.9437  0.4788
 9010TIP3    H248446   3.232   0.454  15.882 -1.5068 -2.1714  0.8955
 9011TIP3   OH248447   4.370   5.918  11.741 -0.0822 -0.4813 -0.1405
 9011TIP3    H148448   4.356   5.843  11.800 -0.2334 -0.8692 -0.6610
 9011TIP3    H248449   4.343   5.994  11.792 -0.6813 -0.8633  0.1252
 9012TIP3   OH248450   6.269   4.712   2.646  0.4668  0.0514 -0.0807
 9012TIP3    H148451   6.310   4.633   2.683  1.3178  0.6954  0.3931
 9012TIP3    H248452   6.201   4.678   2.588 -0.3313 -1.0314  1.3899
 9013TIP3   OH248453   4.071   0.333  14.595 -0.9690  0.1595  0.3958
 9013TIP3    H148454   4.068   0.418  14.639 -0.1315  0.9860 -1.0355
 9013TIP3    H248455   4.060   0.355  14.502  1.7367 -0.9962 -0.2907
 9014TIP3   OH248456   1.366   4.308  11.297 -0.0222 -0.2345 -0.0693
 9014TIP3    H148457   1.303   4.371  11.261 -0.1228 -0.9652 -1.2281
 9014TIP3    H248458   1.439   4.310  11.235  2.4183  2.5609  2.5917
 9015TIP3   OH248459   1.285   3.011   1.285 -0.1153  0.1260  0.5045
 9015TIP3    H148460   1.343   3.049   1.351  0.2179  1.1273 -0.3432
 9015TIP3    H248461   1.318   2.921   1.273  1.6493  0.8423 -0.3706
 9016TIP3   OH248462   1.405   4.702  16.554  0.2568 -0.0007 -0.2377
 9016TIP3    H148463   1.454   4.749  16.621  0.2447 -1.5092  0.8749
 9016TIP3    H248464   1.460   4.708  16.476  2.1934 -1.5055  0.9313
 9017TIP3   OH248465   2.882   1.631   1.213 -0.1191  0.4381  0.2708
 9017TIP3    H148466   2.879   1.540   1.184 -1.0654  0.0835  1.4125
 9017TIP3    H248467   2.806   1.672   1.173  0.3327  0.7539 -0.2810
 9018TIP3   OH248468   5.952   5.201  15.471 -0.2508  0.5246  0.2620
 9018TIP3    H148469   5.991   5.114  15.457 -0.8943  0.3341 -0.3927
 9018TIP3    H248470   5.890   5.212  15.399  1.0498  2.2657 -0.6556
 9019TIP3   OH248471   3.870   0.791  12.018 -0.2093 -0.1348 -0.7233
 9019TIP3    H148472   3.784   0.763  12.048 -0.2355  1.4529  0.8743
 9019TIP3    H248473   3.905   0.843  12.091  2.1585 -0.8408 -1.2647
 9020TIP3   OH248474   2.447   0.011  15.992 -0.0030 -0.7245  0.3870
 9020TIP3    H148475   2.525   0.020  15.938  0.9608 -1.9666  1.5294
 9020TIP3    H248476   2.476   0.030  16.081 -1.4655  0.8287  0.5756
 9021TIP3   OH248477   3.353   5.818   5.758  0.0450 -0.1280 -0.5751
 9021TIP3    H148478   3.408   5.810   5.836 -0.6777 -0.2866 -0.0629
 9021TIP3    H248479   3.264   5.823   5.793 -0.1290  2.8793 -1.2065
 9022TIP3   OH248480   5.484   2.752   5.608  0.2750  0.2081 -0.1494
 9022TIP3    H148481   5.482   2.659   5.589 -1.9087  0.7075 -3.0592
 9022TIP3    H248482   5.516   2.793   5.527 -1.5582  2.1011 -0.0078
 9023TIP3   OH248483   4.937   3.083  10.547 -0.6623 -0.4793 -0.3158
 9023TIP3    H148484   5.008   3.035  10.506 -0.8261 -1.2277  0.2584
 9023TIP3    H248485   4.872   3.017  10.568 -0.3410 -0.2434  1.6502
 9024TIP3   OH248486   4.976   1.938  16.431 -0.6944  0.7330 -0.4621
 9024TIP3    H148487   4.990   1.859  16.482 -1.1717  0.2268 -1.0933
 9024TIP3    H248488   4.881   1.953  16.434 -0.7555  0.5746 -1.3554
 9025TIP3   OH248489   3.522   1.182   5.591 -0.6259 -0.6869 -1.1543
 9025TIP3    H148490   3.429   1.171   5.573 -0.2625 -2.6750 -2.0723
 9025TIP3    H248491   3.566   1.139   5.518  1.0557  0.9368 -1.1818
 9026TIP3   OH248492   6.408   0.079   3.640  0.6653  0.3016  0.3621
 9026TIP3    H148493   6.464   0.157   3.631 -0.0309  0.9930  1.7629
 9026TIP3    H248494   6.455   0.022   3.700  1.0077 -0.2069 -0.3854
 9027TIP3   OH248495   3.959   5.578  14.854 -0.4626 -0.1885  0.5764
 9027TIP3    H148496   4.048   5.607  14.874  0.3096 -0.0112 -2.5836
 9027TIP3    H248497   3.971   5.501  14.798 -2.2202  0.3857 -0.6845
 9028TIP3   OH248498   0.750   0.220  11.334 -0.3775  0.1048  0.0197
 9028TIP3    H148499   0.758   0.124  11.331  0.8855  0.1902  0.2955
 9028TIP3    H248500   0.719   0.238  11.423  0.1740 -0.0065  0.2405
 9029TIP3   OH248501   6.470   0.226   4.488 -0.0364 -0.4081 -0.0200
 9029TIP3    H148502   6.475   0.320   4.510 -1.5077  0.0505 -1.4002
 9029TIP3    H248503   6.390   0.196   4.532  0.4544 -1.0442  0.4530
 9030TIP3   OH248504   3.061   2.997  12.461 -0.0514  0.0094  0.2210
 9030TIP3    H148505   3.061   3.083  12.503  1.7175  0.5813 -0.8355
 9030TIP3    H248506   3.003   3.007  12.386  0.3540  0.3890 -0.0504
 9031TIP3   OH248507   5.489   1.286   2.281 -0.2979 -0.2571  0.2991
 9031TIP3    H148508   5.531   1.274   2.196 -1.9764 -0.1869 -0.5807
 9031TIP3    H248509   5.491   1.381   2.295 -3.0527  0.1712 -1.3768
 9032TIP3   OH248510   6.560   5.104   1.710  0.5219  0.3626  0.2225
 9032TIP3    H148511   6.546   5.061   1.626  0.0720  1.8135 -0.4699
 9032TIP3    H248512   6.503   5.181   1.708 -0.5888 -0.3002  2.4308
 9033TIP3   OH248513   2.756   5.331   2.555  0.2589  0.0214  0.1347
 9033TIP3    H148514   2.730   5.348   2.646  1.6158  2.5866  0.1420
 9033TIP3    H248515   2.771   5.237   2.552  0.6882 -0.0862  2.7470
 9034TIP3   OH248516   5.718   3.036   4.561  0.3541 -0.2642 -0.0148
 9034TIP3    H148517   5.642   3.072   4.607  3.0952  3.2499  2.4125
 9034TIP3    H248518   5.707   3.066   4.471 -1.3685 -0.3646  0.1199
 9035TIP3   OH248519   2.290   2.695   1.197 -0.0488 -0.2244 -0.0116
 9035TIP3    H148520   2.226   2.627   1.217  1.2546 -1.0651  1.4480
 9035TIP3    H248521   2.244   2.753   1.135 -1.0436 -2.6115 -1.6345
 9036TIP3   OH248522   2.781   0.798  12.330  0.6460 -0.9110  0.0973
 9036TIP3    H148523   2.814   0.846  12.406  1.1897 -0.6407 -0.3062
 9036TIP3    H248524   2.724   0.861  12.285  0.3790 -1.0490  0.2355
 9037TIP3   OH248525   0.468   6.144  16.736  0.6052  0.4292 -0.3127
 9037TIP3    H148526   0.412   6.218  16.712  0.9867  0.6412 -0.5565
 9037TIP3    H248527   0.517   6.175  16.812 -1.6943 -0.7539  1.8277
 9038TIP3   OH248528   3.073   6.455   1.470  0.0798 -0.0195 -0.2349
 9038TIP3    H148529   3.005   6.498   1.521  0.4917 -0.0685  0.3654
 9038TIP3    H248530   3.029   6.380   1.429 -0.2512  0.0099  0.0623
 9039TIP3   OH248531   2.903   6.029   4.768 -0.3391  0.2164 -0.0333
 9039TIP3    H148532   2.819   6.000   4.802  0.0575 -0.6445  0.2250
 9039TIP3    H248533   2.898   6.125   4.772 -0.6044  0.1680  1.7289
 9040TIP3   OH248534   4.651   0.356  10.856  0.0046  0.0177 -0.0353
 9040TIP3    H148535   4.613   0.412  10.788  0.6042 -1.1288 -1.3822
 9040TIP3    H248536   4.577   0.309  10.893 -0.3614  0.8443  0.3071
 9041TIP3   OH248537   1.221   0.994   6.027 -0.1187  0.1034 -0.1370
 9041TIP3    H148538   1.250   1.047   6.102 -0.0044  1.3598 -1.0248
 9041TIP3    H248539   1.273   0.914   6.033 -0.5922 -0.1178  1.4882
 9042TIP3   OH248540   2.191   5.678   2.675 -0.4047 -0.0523 -0.1410
 9042TIP3    H148541   2.170   5.588   2.649  0.3044 -0.4350  0.5859
 9042TIP3    H248542   2.162   5.684   2.766  1.7368 -0.3101  0.6012
 9043TIP3   OH248543   1.736   1.284   6.057  0.4297 -0.1647 -0.2171
 9043TIP3    H148544   1.775   1.349   6.114  0.1405  0.7209 -1.0058
 9043TIP3    H248545   1.722   1.208   6.113  0.0701  0.7107  0.9082
 9044TIP3   OH248546   2.853   4.959   4.621 -0.2270 -0.9262  0.1888
 9044TIP3    H148547   2.766   4.995   4.602 -0.6969 -2.2011 -0.2209
 9044TIP3    H248548   2.851   4.940   4.715 -0.3702 -0.8723  0.1975
 9045TIP3   OH248549   4.451   6.300  11.431  0.0053  0.2598  0.0135
 9045TIP3    H148550   4.469   6.219  11.478 -0.2305  0.1142 -0.1466
 9045TIP3    H248551   4.472   6.369  11.494 -0.8800  0.0588  0.5344
 9046TIP3   OH248552   2.386   6.392  16.412 -0.5218 -0.2325 -0.2220
 9046TIP3    H148553   2.328   6.373  16.338 -0.2228 -0.7017 -0.3410
 9046TIP3    H248554   2.418   6.307  16.440  1.6515  0.0933 -1.4232
 9047TIP3   OH248555   5.240   2.408  13.599 -0.3067  0.1522  0.2450
 9047TIP3    H148556   5.180   2.437  13.531 -1.5498  1.5152  1.8145
 9047TIP3    H248557   5.192   2.338  13.645  0.9709 -1.5636 -0.8860
 9048TIP3   OH248558   3.091   1.681  11.979  0.7243  0.0366  0.1653
 9048TIP3    H148559   3.127   1.640  11.900 -1.3824  0.1365 -0.9189
 9048TIP3    H248560   3.111   1.620  12.049  1.2598 -0.8383 -0.7224
 9049TIP3   OH248561   6.369   5.021   4.404  0.6811 -0.4163  0.3885
 9049TIP3    H148562   6.290   5.048   4.450  0.7449 -2.6202  1.9589
 9049TIP3    H248563   6.442   5.054   4.457  0.7779 -0.8428  0.5271
 9050TIP3   OH248564   3.021   1.779  12.481 -0.6450  0.2878  0.3130
 9050TIP3    H148565   3.015   1.826  12.398 -0.5254  1.7270  1.0991
 9050TIP3    H248566   2.950   1.715  12.477 -0.5784  0.2592 -0.9270
 9051TIP3   OH248567   2.845   0.771  15.694  0.1824 -0.3274  0.4840
 9051TIP3    H148568   2.854   0.865  15.704  0.6359 -0.3516  0.3111
 9051TIP3    H248569   2.833   0.757  15.600 -0.6979 -0.3770  0.6020
 9052TIP3   OH248570   5.673   5.663  11.401 -0.4718 -0.0987 -0.5702
 9052TIP3    H148571   5.667   5.568  11.410 -1.1494  0.0151  0.3662
 9052TIP3    H248572   5.633   5.682  11.316 -0.0376 -0.6708 -0.9088
 9053TIP3   OH248573   4.283   1.394   4.526  0.3452  0.3006 -0.1194
 9053TIP3    H148574   4.317   1.305   4.517  0.1875  0.3603 -1.6099
 9053TIP3    H248575   4.238   1.410   4.443 -1.1848  1.1192  0.8322
 9054TIP3   OH248576   0.720   3.277   5.339  0.4817  0.3749  0.3409
 9054TIP3    H148577   0.765   3.326   5.270 -0.3348 -1.9520 -2.0063
 9054TIP3    H248578   0.705   3.342   5.408 -0.4239  3.4364 -2.4589
 9055TIP3   OH248579   4.084   2.903  11.540 -0.0980 -0.0725  0.6441
 9055TIP3    H148580   4.018   2.882  11.607 -0.5269  0.9416  0.5671
 9055TIP3    H248581   4.118   2.818  11.512 -0.1876 -0.5406  1.8740
 9056TIP3   OH248582   5.341   2.770   5.275 -0.3885  0.4126  0.2535
 9056TIP3    H148583   5.373   2.723   5.198 -0.3152  0.6231  0.1537
 9056TIP3    H248584   5.420   2.790   5.325 -0.6095 -2.0842  1.7797
 9057TIP3   OH248585   4.702   1.908  12.631 -0.6813 -0.0509 -0.2649
 9057TIP3    H148586   4.635   1.860  12.678  1.0145 -1.3631  0.9502
 9057TIP3    H248587   4.737   1.846  12.567  1.1978 -0.3810  0.9862
 9058TIP3   OH248588   6.449   2.551  14.055  0.2660 -0.0202  0.0643
 9058TIP3    H148589   6.439   2.561  14.149  0.0566 -1.2207  0.1866
 9058TIP3    H248590   6.360   2.542  14.022  0.2751  1.2811 -0.3795
 9059TIP3   OH248591   1.284   3.973   4.496 -0.4653  0.1932 -0.2978
 9059TIP3    H148592   1.350   4.035   4.465  0.5113 -1.0053 -0.7118
 9059TIP3    H248593   1.320   3.940   4.578  0.3034 -1.6765 -1.3250
 9060TIP3   OH248594   0.465   4.624  14.482  0.3280 -0.2636  0.2668
 9060TIP3    H148595   0.382   4.589  14.513  0.7808 -1.2523  0.4186
 9060TIP3    H248596   0.457   4.622  14.386  0.0699 -0.0929  0.2855
 9061TIP3   OH248597   6.465   5.276  16.793 -0.1287  0.5628  0.5110
 9061TIP3    H148598   6.551   5.288  16.834  0.0777  0.1824  0.2004
 9061TIP3    H248599   6.468   5.332  16.716 -0.2004  0.6248  0.5532
 9062TIP3   OH248600   6.763   6.603   0.288  0.7323 -0.9126 -0.1911
 9062TIP3    H148601   6.754   6.509   0.268 -0.5429 -0.9078  0.2600
 9062TIP3    H248602   6.852   6.625   0.261  1.5503 -2.5753  0.9569
 9063TIP3   OH248603   4.180   0.523   4.211 -0.1060  0.4498  0.1045
 9063TIP3    H148604   4.117   0.521   4.139 -0.1362  1.1977  0.1045
 9063TIP3    H248605   4.139   0.471   4.280  0.4051 -1.2097 -0.7855
 9064TIP3   OH248606   5.547   0.920   4.974 -0.1619 -0.5221  0.0450
 9064TIP3    H148607   5.521   0.829   4.959 -1.2625 -0.1460 -0.4423
 9064TIP3    H248608   5.537   0.961   4.888 -1.3729  0.4478  0.6232
 9065TIP3   OH248609   0.436   2.216   0.484 -0.1940 -0.1574 -0.2425
 9065TIP3    H148610   0.437   2.305   0.449 -2.1208  0.0258  0.0994
 9065TIP3    H248611   0.465   2.161   0.411 -0.8534  0.5575 -1.0533
 9066TIP3   OH248612   2.635   3.965   3.370 -0.4130 -0.0650  0.1647
 9066TIP3    H148613   2.594   3.938   3.288 -0.7230  0.7313  0.0496
 9066TIP3    H248614   2.696   4.035   3.345  0.1258 -0.4021  0.5009
 9067TIP3   OH248615   5.875   2.713   3.440 -1.0471 -0.6566  0.4199
 9067TIP3    H148616   5.947   2.751   3.390 -1.4041 -0.9574 -0.3321
 9067TIP3    H248617   5.917   2.665   3.511 -0.5568  0.3392  0.8238
 9068TIP3   OH248618   2.537   5.664   0.421  0.1107  0.1876 -0.4223
 9068TIP3    H148619   2.556   5.647   0.329  0.0484 -1.5753 -0.1295
 9068TIP3    H248620   2.578   5.593   0.469  0.4564  1.2697  0.9778
 9069TIP3   OH248621   6.797   5.154  12.890 -0.2236 -0.1673 -0.1070
 9069TIP3    H148622   6.792   5.076  12.835  0.9691  0.0380 -0.5374
 9069TIP3    H248623   6.864   5.208  12.848  0.3937  0.2012  1.2992
 9070TIP3   OH248624   1.468   0.768   2.076  0.2977  0.3717  0.1398
 9070TIP3    H148625   1.502   0.679   2.083  2.0909  1.0561  0.7157
 9070TIP3    H248626   1.451   0.780   1.983  2.5881  0.2748 -0.3473
 9071TIP3   OH248627   3.292   5.122  10.438  0.2108  0.0532  0.2381
 9071TIP3    H148628   3.375   5.092  10.477 -0.5889 -2.4936  0.1407
 9071TIP3    H248629   3.233   5.048  10.449 -2.1604  1.8854  0.4963
 9072TIP3   OH248630   1.730   1.226   5.789  0.4200 -0.9193  0.3161
 9072TIP3    H148631   1.709   1.253   5.879  2.7429  2.3027  0.0655
 9072TIP3    H248632   1.783   1.147   5.800  0.7352 -0.5416  1.8136
 9073TIP3   OH248633   5.717   4.313   5.059 -0.4852  0.2049 -0.3244
 9073TIP3    H148634   5.736   4.308   5.153 -1.9589  1.3529  0.0758
 9073TIP3    H248635   5.767   4.241   5.021  1.9920  1.1110  0.9970
 9074TIP3   OH248636   5.200   0.754  14.492  0.3736 -0.1647 -0.4154
 9074TIP3    H148637   5.217   0.788  14.580  1.0363 -2.2153  0.3040
 9074TIP3    H248638   5.108   0.776  14.476 -0.1681 -0.9390  1.3714
 9075TIP3   OH248639   1.237   0.517  13.934  0.2217  0.1131 -0.1932
 9075TIP3    H148640   1.237   0.610  13.956  1.0271 -0.2675  1.5950
 9075TIP3    H248641   1.316   0.483  13.976 -1.0925 -1.7334  0.9234
 9076TIP3   OH248642   3.562   0.001   2.392 -0.0145 -0.8590 -0.1100
 9076TIP3    H148643   3.612   0.077   2.424 -0.8712  0.5307 -1.8470
 9076TIP3    H248644   3.525   0.031   2.309 -4.4379 -1.4828  1.3916
 9077TIP3   OH248645   3.306   1.950  16.994  0.4892  0.2459 -0.0556
 9077TIP3    H148646   3.356   2.015  17.043  1.2942  1.5207 -2.4086
 9077TIP3    H248647   3.366   1.876  16.985  1.4309  1.1299 -1.4689
 9078TIP3   OH248648   5.265   6.638   4.441 -0.5407 -0.3759 -0.1714
 9078TIP3    H148649   5.237   6.729   4.434  0.0924 -0.1803 -0.2568
 9078TIP3    H248650   5.185   6.587   4.427 -0.9928  0.1708  0.3488
 9079TIP3   OH248651   6.709   0.805   5.329  0.0811  0.1083 -0.0218
 9079TIP3    H148652   6.738   0.889   5.363  0.7369 -0.2660  0.3795
 9079TIP3    H248653   6.675   0.759   5.406 -0.7048  0.1797 -0.3218
 9080TIP3   OH248654   6.560   1.992  15.590 -0.3585 -0.0748  0.1478
 9080TIP3    H148655   6.581   1.960  15.502 -0.4654 -1.0971  0.4837
 9080TIP3    H248656   6.466   2.009  15.586 -0.0201  1.8565 -0.5312
 9081TIP3   OH248657   5.978   6.011   2.619 -0.3021  0.1039  0.5866
 9081TIP3    H148658   6.024   6.073   2.563  1.7223 -0.9699  0.9838
 9081TIP3    H248659   5.995   5.925   2.580 -0.0557 -0.5281  2.0169
 9082TIP3   OH248660   4.690   0.644  12.694  0.0298  0.4145 -0.0854
 9082TIP3    H148661   4.617   0.583  12.687  0.3505  0.2107 -2.2997
 9082TIP3    H248662   4.662   0.708  12.759 -1.3862 -0.6130  0.3615
 9083TIP3   OH248663   3.216   6.723   5.739  0.0580 -0.8062  0.8810
 9083TIP3    H148664   3.232   6.775   5.818  0.3395 -0.2135  0.4424
 9083TIP3    H248665   3.295   6.734   5.687 -0.7060 -0.0169 -0.1343
 9084TIP3   OH248666   2.990   2.490  11.820 -0.2792 -0.0666  0.5045
 9084TIP3    H148667   2.999   2.415  11.760  0.0510  1.5815 -1.6443
 9084TIP3    H248668   3.078   2.502  11.856  0.4885  1.1522 -1.6097
 9085TIP3   OH248669   1.819   1.999  15.866 -0.1352  0.3064  0.0111
 9085TIP3    H148670   1.727   2.000  15.893  0.0658 -1.2538  0.8672
 9085TIP3    H248671   1.816   2.007  15.770 -1.1240  0.8871  0.0800
 9086TIP3   OH248672   5.879   0.940  12.136 -0.2315 -0.5765  0.4009
 9086TIP3    H148673   5.819   0.881  12.183 -0.3119  0.0709  1.1359
 9086TIP3    H248674   5.965   0.901  12.149 -0.3453 -0.8161  0.4409
 9087TIP3   OH248675   3.878   0.650   4.354  0.3718  0.0938 -0.5474
 9087TIP3    H148676   3.965   0.611   4.356  0.4457  0.2657 -0.1603
 9087TIP3    H248677   3.892   0.742   4.377  0.1717  0.2970 -1.2125
 9088TIP3   OH248678   0.923   0.183   3.573  0.0423 -0.7737  0.1167
 9088TIP3    H148679   0.957   0.201   3.661 -1.6307 -3.1770  1.3752
 9088TIP3    H248680   0.946   0.092   3.556 -0.4130 -0.6084 -1.5978
 9089TIP3   OH248681   5.471   0.588  13.053  0.5943  0.4120  0.0508
 9089TIP3    H148682   5.562   0.576  13.026 -0.0583  0.7724 -2.5326
 9089TIP3    H248683   5.438   0.499  13.068  0.8655  0.1557 -0.8428
 9090TIP3   OH248684   5.223   2.979   5.100 -0.3346 -0.4545  0.5210
 9090TIP3    H148685   5.227   2.941   5.188  0.2687  0.0936  0.7376
 9090TIP3    H248686   5.311   2.968   5.065 -0.1090  0.8413  0.6391
 9091TIP3   OH248687   6.216   0.464   3.203 -0.1209 -0.5828  0.1821
 9091TIP3    H148688   6.222   0.444   3.109 -0.9470  1.7939 -0.4436
 9091TIP3    H248689   6.191   0.557   3.206  2.2735  0.1118  2.7678
 9092TIP3   OH248690   2.869   1.782  14.149  0.0369 -0.2775 -0.3001
 9092TIP3    H148691   2.804   1.817  14.209 -0.9308 -0.3529 -1.2652
 9092TIP3    H248692   2.905   1.705  14.194  0.9553  0.9311  1.1083
 9093TIP3   OH248693   0.094   2.854  14.450  0.0283  0.0896  0.4283
 9093TIP3    H148694   0.163   2.867  14.516 -1.0523  1.2459  1.3959
 9093TIP3    H248695   0.012   2.870  14.498 -0.7939  1.1528 -1.2395
 9094TIP3   OH248696   3.309   6.270  12.418 -0.1537 -0.2819 -0.5365
 9094TIP3    H148697   3.386   6.297  12.368 -0.4013 -2.1101 -2.0029
 9094TIP3    H248698   3.340   6.266  12.509  0.9846  0.6873 -0.8576
 9095TIP3   OH248699   5.260   4.922  12.172  0.5179 -0.7385 -0.2835
 9095TIP3    H148700   5.289   4.842  12.128 -1.7407 -1.2537 -0.9551
 9095TIP3    H248701   5.278   4.992  12.109 -0.3739 -1.1479 -1.0097
 9096TIP3   OH248702   5.693   1.473  16.635  0.3653  0.3022  0.8211
 9096TIP3    H148703   5.609   1.516  16.647  0.0764  0.0386 -0.1299
 9096TIP3    H248704   5.673   1.380  16.635  0.6248  0.2412  0.4372
 9097TIP3   OH248705   2.772   2.303   2.374  0.0016 -0.3136 -0.7721
 9097TIP3    H148706   2.722   2.222   2.385 -1.4401  0.6870  0.4157
 9097TIP3    H248707   2.737   2.343   2.295 -2.4970  1.2657  1.0016
 9098TIP3   OH248708   4.349   3.174  11.614 -0.3336 -0.7426 -0.0192
 9098TIP3    H148709   4.356   3.196  11.707  3.2979  0.4964 -0.4268
 9098TIP3    H248710   4.439   3.172  11.583 -1.2242 -3.6136 -3.0327
 9099TIP3   OH248711   0.106   2.745   1.904  0.3712 -0.0527 -0.3399
 9099TIP3    H148712   0.044   2.758   1.832  0.0446 -0.0930 -0.0700
 9099TIP3    H248713   0.158   2.670   1.877  1.7937  1.3095 -1.5832
 9100TIP3   OH248714   4.390   2.459  15.941 -0.2119  0.3681  0.0346
 9100TIP3    H148715   4.397   2.379  15.993  1.0729  0.5022  0.1030
 9100TIP3    H248716   4.444   2.523  15.988  0.2047  0.7660 -0.9585
 9101TIP3   OH248717   0.575   1.045  13.578 -0.4376  0.0608  0.1362
 9101TIP3    H148718   0.527   1.010  13.653  2.7612 -0.4205  2.1430
 9101TIP3    H248719   0.608   0.967  13.533 -1.3987  0.3820 -1.1776
 9102TIP3   OH248720   3.558   4.157   5.165 -0.6781 -0.1365 -0.3054
 9102TIP3    H148721   3.563   4.224   5.234  1.9663 -1.8318  1.3302
 9102TIP3    H248722   3.475   4.113   5.180 -1.0630  0.8281  0.5007
 9103TIP3   OH248723   6.494   1.334  13.392  0.3492  0.3356  0.1980
 9103TIP3    H148724   6.424   1.374  13.443 -1.5250 -0.7925 -1.3550
 9103TIP3    H248725   6.555   1.406  13.375 -1.0781  1.6900  0.5117
 9104TIP3   OH248726   2.488   0.753  11.603 -0.1881  0.4407  0.1855
 9104TIP3    H148727   2.471   0.692  11.675  1.4181  0.7541  0.8869
 9104TIP3    H248728   2.402   0.770  11.565 -1.0532  0.0394  1.8577
 9105TIP3   OH248729   2.597   2.826   4.762  0.6197  0.2853  0.4724
 9105TIP3    H148730   2.657   2.762   4.724 -0.6541  0.0004 -1.1532
 9105TIP3    H248731   2.514   2.780   4.770  0.3334  0.9739  1.7469
 9106TIP3   OH248732   4.787   6.799   6.946  0.2676 -0.1819  0.0434
 9106TIP3    H148733   4.877   6.817   6.917  0.3184  2.2572  1.4291
 9106TIP3    H248734   4.734   6.865   6.903 -0.7978 -1.1489 -0.1859
 9107TIP3   OH248735   3.464   4.321   3.530 -0.7666 -0.0725 -0.0480
 9107TIP3    H148736   3.421   4.406   3.541 -0.4434  0.1311 -0.3454
 9107TIP3    H248737   3.453   4.278   3.615  0.0507  0.7167  0.4903
 9108TIP3   OH248738   6.381   3.553  15.187  0.4198  0.3843  0.1156
 9108TIP3    H148739   6.461   3.538  15.237  0.5942  0.9628  0.0235
 9108TIP3    H248740   6.387   3.493  15.113  0.9048  0.6068 -0.0336
 9109TIP3   OH248741   0.554   4.262   4.337  0.0457  0.3285 -0.4416
 9109TIP3    H148742   0.618   4.321   4.374 -0.5764 -0.3862  1.9407
 9109TIP3    H248743   0.606   4.192   4.297  0.7461  1.3938 -1.4414
 9110TIP3   OH248744   4.454   3.888  14.494 -0.2423 -0.7264  0.1281
 9110TIP3    H148745   4.502   3.810  14.523 -1.6046 -1.4127  0.6224
 9110TIP3    H248746   4.413   3.862  14.412 -0.8695 -0.6192  0.3976
 9111TIP3   OH248747   3.680   1.925   0.851 -0.7385 -0.2668  0.4892
 9111TIP3    H148748   3.663   1.891   0.939  0.4398  1.3749  1.4162
 9111TIP3    H248749   3.764   1.886   0.827 -0.9941 -0.6060  0.1302
 9112TIP3   OH248750   5.537   4.763  12.893 -0.3711  0.3958 -0.6160
 9112TIP3    H148751   5.534   4.822  12.968  1.0791  1.3397 -1.2448
 9112TIP3    H248752   5.520   4.676  12.929 -0.1837  0.8981  0.7100
 9113TIP3   OH248753   3.191   2.943  13.986 -0.0161 -0.3336  0.2455
 9113TIP3    H148754   3.188   3.032  13.951  0.9889 -0.6986 -0.8474
 9113TIP3    H248755   3.112   2.901  13.952 -2.7891  1.1962  4.0731
 9114TIP3   OH248756   6.751   5.536  13.412  0.0864  0.1427 -0.2717
 9114TIP3    H148757   6.663   5.509  13.385  0.2825  1.2985 -2.2910
 9114TIP3    H248758   6.787   5.459  13.455 -0.7010 -1.6072 -2.5140
 9115TIP3   OH248759   2.646   0.685   4.100  0.4269  0.6341  0.1179
 9115TIP3    H148760   2.594   0.614   4.137  1.4780 -0.5661 -0.6489
 9115TIP3    H248761   2.627   0.760   4.157 -0.4795 -0.3182  1.1229
 9116TIP3   OH248762   4.621   4.728  16.818 -0.6392  1.6449  0.5336
 9116TIP3    H148763   4.708   4.758  16.791 -0.0409 -0.1593  0.2527
 9116TIP3    H248764   4.639   4.673  16.895 -1.2615 -0.2101 -0.5769
 9117TIP3   OH248765   1.324   2.359   3.569  0.4881  0.2323 -0.6017
 9117TIP3    H148766   1.291   2.360   3.479 -0.5671  2.8357 -0.2777
 9117TIP3    H248767   1.245   2.358   3.623  1.1129 -1.8713  0.3565
 9118TIP3   OH248768   4.421   6.709   4.593  0.4383 -0.0225  0.1418
 9118TIP3    H148769   4.450   6.618   4.582  3.1301  0.6958  0.6817
 9118TIP3    H248770   4.435   6.749   4.507 -0.0303  0.0978  0.1146
 9119TIP3   OH248771   4.400   5.856   1.184  0.3150  0.1435  0.2887
 9119TIP3    H148772   4.343   5.788   1.219 -0.6823  0.5282 -0.5515
 9119TIP3    H248773   4.487   5.834   1.218  0.2085 -2.1261 -0.7817
 9120TIP3   OH248774   2.407   3.902  11.642  0.1616  0.1380  0.0450
 9120TIP3    H148775   2.367   3.854  11.570  1.3382  1.3424 -1.4723
 9120TIP3    H248776   2.458   3.837  11.690  2.0348 -0.1608 -2.1838
 9121TIP3   OH248777   4.776   3.128   3.945 -0.2587 -0.1634  0.3732
 9121TIP3    H148778   4.732   3.081   4.016  0.0679 -0.7540  0.1919
 9121TIP3    H248779   4.751   3.219   3.958 -0.5188 -0.3177  1.0171
 9122TIP3   OH248780   4.489   2.740   0.962  0.1335  0.1016 -0.2480
 9122TIP3    H148781   4.529   2.822   0.991 -0.0750  0.4076 -0.7897
 9122TIP3    H248782   4.551   2.704   0.898  0.5135 -0.4809  0.4396
 9123TIP3   OH248783   2.836   1.029  12.831 -0.5149 -0.0841 -0.6817
 9123TIP3    H148784   2.774   0.974  12.783  0.4999  0.4158 -2.6407
 9123TIP3    H248785   2.790   1.051  12.912 -1.5848 -2.4363 -0.5673
 9124TIP3   OH248786   3.496   5.764  11.036  0.2957 -0.2578 -0.3157
 9124TIP3    H148787   3.483   5.679  11.079 -1.6937  0.7835  1.3382
 9124TIP3    H248788   3.503   5.743  10.943  0.6386 -2.2800  0.1166
 9125TIP3   OH248789   6.147   2.476  16.670  0.5818 -0.5259  0.0817
 9125TIP3    H148790   6.241   2.473  16.652  0.1726 -1.2035 -2.2417
 9125TIP3    H248791   6.119   2.384  16.668  0.0696 -0.4779  2.2931
 9126TIP3   OH248792   5.820   4.769  13.641 -0.2475  0.0747  0.4564
 9126TIP3    H148793   5.738   4.738  13.602 -0.5615 -0.1066  1.2468
 9126TIP3    H248794   5.827   4.861  13.612 -0.8066  0.1381  0.5187
 9127TIP3   OH248795   0.985   0.356  14.092 -0.7172 -0.6034 -0.0385
 9127TIP3    H148796   0.959   0.377  14.002 -1.0466 -1.6655 -0.2086
 9127TIP3    H248797   1.062   0.410  14.109 -0.5068 -0.5763 -1.0502
 9128TIP3   OH248798   6.563   5.475  13.047 -0.3333 -0.6110  0.6005
 9128TIP3    H148799   6.650   5.485  13.008  0.1344  0.3957  1.8159
 9128TIP3    H248800   6.526   5.398  13.005  1.0831 -0.9617 -0.0553
 9129TIP3   OH248801   0.821   2.205   4.104  0.7711  0.3467 -0.4737
 9129TIP3    H148802   0.905   2.200   4.150  0.0699 -0.0378  0.7929
 9129TIP3    H248803   0.776   2.124   4.128 -0.0981  0.6969 -0.8845
 9130TIP3   OH248804   4.724   5.156  15.725 -0.5881 -0.1208 -0.3511
 9130TIP3    H148805   4.803   5.136  15.776 -0.6872 -0.3585 -0.2925
 9130TIP3    H248806   4.755   5.158  15.634 -0.0583  1.9794 -0.1766
 9131TIP3   OH248807   1.457   4.690  12.603  0.0659 -0.1944 -0.0367
 9131TIP3    H148808   1.550   4.708  12.588 -0.2401  1.5808  0.0474
 9131TIP3    H248809   1.412   4.729  12.528 -0.7459  0.6525  0.8558
 9132TIP3   OH248810   3.106   0.327  14.158  0.4430 -0.0007  0.1651
 9132TIP3    H148811   3.196   0.359  14.163  0.0245  1.1159  0.8523
 9132TIP3    H248812   3.093   0.280  14.240  1.1171 -2.2038 -0.9189
 9133TIP3   OH248813   6.709   2.302  14.314  0.6595 -0.2058  0.2130
 9133TIP3    H148814   6.710   2.352  14.396  1.9816  1.1560 -0.5856
 9133TIP3    H248815   6.781   2.239  14.323  1.5342  0.6933 -0.3115
 9134TIP3   OH248816   4.915   4.905  16.499  0.5778  0.3775 -0.7109
 9134TIP3    H148817   4.905   4.828  16.556 -0.5382  2.2250  1.7614
 9134TIP3    H248818   4.830   4.915  16.456  1.4984 -1.1792 -3.1212
 9135TIP3   OH248819   5.709   3.429   3.132 -0.1828 -1.2905 -0.5754
 9135TIP3    H148820   5.725   3.430   3.227 -0.1525 -1.0725 -0.5821
 9135TIP3    H248821   5.631   3.374   3.122 -0.2494 -1.2270 -0.4145
 9136TIP3   OH248822   4.950   1.688  14.902  0.3098  0.1139 -0.2140
 9136TIP3    H148823   5.001   1.768  14.917  0.3743  0.0139  0.1177
 9136TIP3    H248824   5.016   1.622  14.880  0.3917 -0.1588  0.7981
 9137TIP3   OH248825   6.337   1.288   5.407  0.1149 -0.0976  0.2831
 9137TIP3    H148826   6.263   1.285   5.468 -1.1598 -2.0569 -1.2174
 9137TIP3    H248827   6.347   1.380   5.386  0.5225  0.6520  3.2789
 9138TIP3   OH248828   5.620   6.433  15.671 -0.3287 -0.1272 -0.5744
 9138TIP3    H148829   5.691   6.465  15.615 -1.4415 -0.5239 -2.2922
 9138TIP3    H248830   5.582   6.512  15.709 -0.0669  0.2242 -1.0330
 9139TIP3   OH248831   3.190   4.614   2.279 -0.1112 -0.2088 -0.2042
 9139TIP3    H148832   3.284   4.626   2.266  0.2278 -0.3661  1.8497
 9139TIP3    H248833   3.150   4.669   2.211  1.4611  0.7953 -0.3769
 9140TIP3   OH248834   2.094   3.227  16.464  0.6264 -0.2752 -0.3428
 9140TIP3    H148835   2.105   3.316  16.429 -0.7663 -0.3291 -0.9622
 9140TIP3    H248836   2.160   3.175  16.417  0.9035  0.2669 -0.5705
 9141TIP3   OH248837   4.957   5.937  15.625  0.4507 -0.3583  0.0218
 9141TIP3    H148838   4.980   5.845  15.611  0.2368 -0.5975  1.1431
 9141TIP3    H248839   4.871   5.935  15.666  0.5670  0.3297  0.3197
 9142TIP3   OH248840   3.577   6.009   4.677 -0.1519  0.3130 -0.5246
 9142TIP3    H148841   3.589   6.080   4.740  0.1655  0.6184 -0.9252
 9142TIP3    H248842   3.620   5.934   4.717 -0.7793  0.2496  0.0535
 9143TIP3   OH248843   1.013   0.235  12.313 -0.5656  0.1098  0.1134
 9143TIP3    H148844   1.022   0.229  12.217  1.5661 -0.0399  0.2653
 9143TIP3    H248845   0.978   0.150  12.339  0.3176 -0.4461 -0.4344
 9144TIP3   OH248846   3.926   4.445  16.896  0.5331  0.3221 -0.2725
 9144TIP3    H148847   3.949   4.408  16.811  0.2115  0.9748 -0.6619
 9144TIP3    H248848   3.970   4.530  16.898 -2.4613  2.0723 -1.4744
 9145TIP3   OH248849   3.442   2.597   4.101 -0.3429 -0.5915  0.1372
 9145TIP3    H148850   3.497   2.608   4.023 -0.6035 -0.7770 -0.0698
 9145TIP3    H248851   3.356   2.630   4.076 -0.1261  0.4547  0.7148
 9146TIP3   OH248852   2.265   3.599   4.354 -0.3524  0.0633 -0.4995
 9146TIP3    H148853   2.345   3.600   4.301 -0.5238 -1.4009 -0.8263
 9146TIP3    H248854   2.297   3.590   4.444 -0.1458 -0.5873 -0.6332
 9147TIP3   OH248855   0.805   4.039   3.585 -0.0250 -0.2401  0.6702
 9147TIP3    H148856   0.859   4.118   3.579  0.4983 -0.3439  3.0988
 9147TIP3    H248857   0.868   3.969   3.601 -0.7337 -0.6544  1.6985
 9148TIP3   OH248858   5.191   2.115  15.967  0.1265  0.4908  0.2601
 9148TIP3    H148859   5.103   2.091  15.938 -0.7358 -0.5553  3.3317
 9148TIP3    H248860   5.190   2.210  15.973 -0.4792  0.5479 -0.6503
 9149TIP3   OH248861   4.633   0.455   6.688 -0.6066  0.1007 -0.3373
 9149TIP3    H148862   4.561   0.475   6.629  0.8634  0.1636 -2.1998
 9149TIP3    H248863   4.702   0.516   6.663  0.3618 -0.4354  0.9026
 9150TIP3   OH248864   4.062   4.376   6.289 -0.2417 -0.3427  0.2905
 9150TIP3    H148865   4.148   4.417   6.297  1.1397 -2.4416 -2.1050
 9150TIP3    H248866   4.010   4.437   6.238 -0.2140  0.9095  1.6851
 9151TIP3   OH248867   0.208   4.821   2.894 -0.8170 -0.0611 -0.2622
 9151TIP3    H148868   0.203   4.915   2.909  2.2319  0.1079  0.3711
 9151TIP3    H248869   0.294   4.796   2.928 -1.6498 -3.1437 -0.1506
 9152TIP3   OH248870   6.032   2.454   0.179 -0.1369 -0.3319 -0.4052
 9152TIP3    H148871   6.024   2.399   0.257 -1.0412 -0.6738 -0.7270
 9152TIP3    H248872   6.122   2.485   0.180 -0.1700 -0.2576  0.8249
 9153TIP3   OH248873   2.791   0.486  16.625 -0.4019  0.1126 -0.3064
 9153TIP3    H148874   2.725   0.540  16.667 -1.4823  0.1352 -1.9286
 9153TIP3    H248875   2.743   0.410  16.592  0.5797 -0.4092 -0.5709
 9154TIP3   OH248876   3.299   6.266  15.286 -0.4043 -0.0029 -0.0417
 9154TIP3    H148877   3.376   6.292  15.336 -0.2642  1.1332 -0.8178
 9154TIP3    H248878   3.307   6.171  15.277  1.3495  0.1692 -0.7989
 9155TIP3   OH248879   5.332   6.213   0.070 -0.3620  0.1248 -0.1318
 9155TIP3    H148880   5.364   6.165  -0.007  0.3446 -0.0186  0.2468
 9155TIP3    H248881   5.386   6.291   0.073  0.6806 -0.6103  1.1097
 9156TIP3   OH248882   2.377   1.910   4.177 -0.4174 -0.0675 -0.1996
 9156TIP3    H148883   2.282   1.902   4.170 -0.5011  1.1569 -0.6336
 9156TIP3    H248884   2.392   1.942   4.266 -0.4286 -0.0329 -0.2102
 9157TIP3   OH248885   5.665   4.118   3.121 -0.4878  0.1843 -0.1779
 9157TIP3    H148886   5.675   4.050   3.189 -2.2999  0.1116  0.0705
 9157TIP3    H248887   5.742   4.107   3.065 -0.1551 -1.3369  0.5097
 9158TIP3   OH248888   2.058   5.337  12.615 -0.5623 -0.1320 -0.0541
 9158TIP3    H148889   1.985   5.304  12.562  0.1823  0.0693 -1.2371
 9158TIP3    H248890   2.021   5.411  12.663 -1.3047 -0.4434 -0.1323
 9159TIP3   OH248891   4.825   3.152  16.598  0.2843 -0.4923 -0.4704
 9159TIP3    H148892   4.743   3.169  16.643  1.1427 -0.7535  1.2835
 9159TIP3    H248893   4.893   3.175  16.662  1.5776 -0.6116 -1.7391
 9160TIP3   OH248894   0.134   2.522  12.935  0.2132  0.3627 -0.3683
 9160TIP3    H148895   0.179   2.461  12.877 -0.4846 -0.9487  0.4325
 9160TIP3    H248896   0.059   2.553  12.884  1.6409  2.1875 -1.5293
 9161TIP3   OH248897   2.256   0.127  12.550 -0.3378 -0.7105 -0.0651
 9161TIP3    H148898   2.329   0.109  12.608 -0.8999 -1.0127  0.5691
 9161TIP3    H248899   2.264   0.062  12.480 -0.1936 -0.9620  0.1816
 9162TIP3   OH248900   3.412   1.002  12.739 -0.3574 -0.2938  0.0093
 9162TIP3    H148901   3.488   0.982  12.794 -0.0535 -0.0201 -0.3014
 9162TIP3    H248902   3.348   0.935  12.760 -0.0424 -0.5010  0.3110
 9163TIP3   OH248903   1.748   3.136  15.274 -1.0671 -0.3274  0.3913
 9163TIP3    H148904   1.703   3.139  15.359 -1.1530  0.2352  0.3311
 9163TIP3    H248905   1.722   3.052  15.236 -0.9503 -0.6242  0.9640
 9164TIP3   OH248906   3.546   3.216   2.133 -0.5040 -0.5663 -0.0359
 9164TIP3    H148907   3.639   3.207   2.155  0.1804 -1.5699 -2.8832
 9164TIP3    H248908   3.546   3.267   2.051 -2.5803  0.5551  0.5957
 9165TIP3   OH248909   4.268   4.590   4.586  0.0185 -0.4519 -0.1905
 9165TIP3    H148910   4.203   4.654   4.555 -0.9225 -1.1726  0.2628
 9165TIP3    H248911   4.220   4.534   4.646  0.8816 -1.4836 -0.4411
 9166TIP3   OH248912   6.128   0.149   3.338 -0.2138 -0.3642 -0.0566
 9166TIP3    H148913   6.143   0.120   3.248  0.5677 -0.9586  0.2600
 9166TIP3    H248914   6.110   0.243   3.330 -1.2558 -0.6250 -0.9367
 9167TIP3   OH248915   2.484   1.191  14.366  0.0480  0.2672  0.7749
 9167TIP3    H148916   2.400   1.223  14.400 -0.0994  1.0523 -0.2593
 9167TIP3    H248917   2.542   1.193  14.442 -1.0236 -0.9409  1.6675
 9168TIP3   OH248918   3.596   3.352   5.396 -0.0243  0.1495 -0.1901
 9168TIP3    H148919   3.599   3.445   5.375 -3.4850 -0.2139 -3.3349
 9168TIP3    H248920   3.645   3.311   5.325 -1.6409 -0.5463 -0.9482
 9169TIP3   OH248921   5.601   1.487  15.630  0.6657  0.0448  0.0835
 9169TIP3    H148922   5.625   1.541  15.554 -0.8070  0.4602 -0.1220
 9169TIP3    H248923   5.533   1.428  15.596 -0.0166  0.2416  1.0669
 9170TIP3   OH248924   2.278   4.896   3.422  0.0217 -0.3995 -0.2304
 9170TIP3    H148925   2.274   4.963   3.354  1.4773 -0.2604 -0.2137
 9170TIP3    H248926   2.308   4.942   3.500  1.1409 -1.0546 -0.2437
 9171TIP3   OH248927   3.737   2.420  13.233 -0.2070 -0.1637  0.0875
 9171TIP3    H148928   3.705   2.507  13.256 -0.7339 -0.6930  1.4920
 9171TIP3    H248929   3.659   2.373  13.205 -0.6418 -1.2104  2.7321
 9172TIP3   OH248930   1.959   6.683   4.980  0.1424  0.8808 -0.0557
 9172TIP3    H148931   1.872   6.671   5.017  0.4796 -1.0457  0.2119
 9172TIP3    H248932   1.944   6.699   4.887 -0.4797 -1.9243 -0.5219
 9173TIP3   OH248933   3.093   1.314  14.709  0.7416 -0.1607 -0.1321
 9173TIP3    H148934   3.057   1.280  14.628 -0.1727 -1.0514  0.6249
 9173TIP3    H248935   3.176   1.355  14.683 -0.1168  0.6946 -1.6843
 9174TIP3   OH248936   6.325   5.599  15.009  0.3887 -0.5631 -0.1818
 9174TIP3    H148937   6.282   5.615  14.925 -0.2755 -0.5557  0.1522
 9174TIP3    H248938   6.415   5.627  14.995  0.2321 -0.3583 -0.8297
 9175TIP3   OH248939   0.815   6.396   0.931  0.2480  0.4555  0.4163
 9175TIP3    H148940   0.888   6.402   0.869 -0.9833  2.8312 -0.9537
 9175TIP3    H248941   0.800   6.486   0.959 -2.1652  0.0420  0.6127
 9176TIP3   OH248942   4.534   5.899   0.213  0.1087  0.1124 -0.1852
 9176TIP3    H148943   4.484   5.818   0.223 -0.0077  0.3496  1.5446
 9176TIP3    H248944   4.624   5.876   0.236  0.1236  0.4172  0.0735
 9177TIP3   OH248945   1.157   5.751  13.913  0.3538  0.6862 -0.1026
 9177TIP3    H148946   1.068   5.725  13.891  0.9397  0.6547 -2.7083
 9177TIP3    H248947   1.148   5.840  13.948 -0.8244  0.0794  1.2212
 9178TIP3   OH248948   2.221   0.448   5.041  0.1462  0.1375 -0.3364
 9178TIP3    H148949   2.174   0.512   5.094 -0.6188 -0.9636  0.3671
 9178TIP3    H248950   2.307   0.488   5.026  0.2173  0.6901  1.3502
 9179TIP3   OH248951   1.657   6.490  12.089 -0.1846  0.8613 -0.1421
 9179TIP3    H148952   1.675   6.425  12.156 -0.0038  0.8643 -0.1873
 9179TIP3    H248953   1.737   6.542  12.084  0.7559 -0.6414 -2.0671
 9180TIP3   OH248954   1.063   2.410   3.690 -0.1496 -0.3024 -0.1445
 9180TIP3    H148955   0.998   2.363   3.742  1.2248 -1.6833  0.3862
 9180TIP3    H248956   1.067   2.497   3.730  0.3069 -1.0755  1.5827
 9181TIP3   OH248957   3.466   6.744   4.823 -0.3969  0.3598  0.2009
 9181TIP3    H148958   3.534   6.725   4.758 -1.0367  0.9824 -0.6832
 9181TIP3    H248959   3.425   6.825   4.791 -1.8613 -0.2579  0.4482
 9182TIP3   OH248960   5.901   4.070   2.953 -0.5925 -0.1777  0.2649
 9182TIP3    H148961   5.882   4.086   2.860 -1.1773 -0.3148  0.3598
 9182TIP3    H248962   5.946   3.986   2.953 -0.5750 -0.1701  0.1058
 9183TIP3   OH248963   5.748   3.895  11.380 -0.3338 -0.1451  0.4453
 9183TIP3    H148964   5.734   3.803  11.402  0.8889 -0.5674 -0.4774
 9183TIP3    H248965   5.680   3.942  11.429 -1.0223 -1.5375  0.8580
 9184TIP3   OH248966   5.742   0.225   4.840  0.0466  0.4592 -0.0992
 9184TIP3    H148967   5.674   0.174   4.797 -1.0552  1.8455 -0.0856
 9184TIP3    H248968   5.741   0.195   4.931  1.2653 -1.3328 -0.6294
 9185TIP3   OH248969   5.180   2.277   3.331 -0.5797  0.3832 -0.4546
 9185TIP3    H148970   5.188   2.356   3.277 -2.2158  0.1758 -1.0357
 9185TIP3    H248971   5.100   2.291   3.381 -0.3401 -0.4844  0.1803
 9186TIP3   OH248972   1.348   3.215  12.065 -0.6213  0.0842  0.3709
 9186TIP3    H148973   1.381   3.305  12.059 -1.5475  0.3555 -1.2032
 9186TIP3    H248974   1.254   3.223  12.053 -0.6990 -1.1162  0.0402
 9187TIP3   OH248975   0.787   1.339  16.568  0.0032  0.3176  0.0375
 9187TIP3    H148976   0.882   1.332  16.577  0.0931 -0.2057 -1.0995
 9187TIP3    H248977   0.774   1.386  16.485 -0.7312  0.8134  0.4195
 9188TIP3   OH248978   3.788   1.967   0.304 -0.6035 -0.2325  0.4303
 9188TIP3    H148979   3.874   2.000   0.278  0.2659 -1.1521  2.0201
 9188TIP3    H248980   3.805   1.913   0.381 -2.2215 -2.5791 -0.7125
 9189TIP3   OH248981   6.507   1.635   5.050 -0.2341  0.3042 -0.1567
 9189TIP3    H148982   6.530   1.706   4.991  0.0266  0.3904  0.0507
 9189TIP3    H248983   6.471   1.567   4.993  2.2174 -0.6031 -0.7457
 9190TIP3   OH248984   6.294   2.525   4.078 -0.1807 -0.3140 -0.2153
 9190TIP3    H148985   6.261   2.586   4.144 -0.8015  0.0640 -0.8544
 9190TIP3    H248986   6.237   2.449   4.086 -0.0984 -0.3676 -0.1443
 9191TIP3   OH248987   3.819   5.614   3.024 -0.4264 -0.3623  0.1993
 9191TIP3    H148988   3.727   5.641   3.020  0.0391  1.1768 -1.1957
 9191TIP3    H248989   3.864   5.673   2.964  1.8443  0.3939  2.4841
 9192TIP3   OH248990   0.558   5.339  11.773 -0.1888  0.5092 -0.1581
 9192TIP3    H148991   0.634   5.397  11.777 -0.4116  0.7460  1.0851
 9192TIP3    H248992   0.556   5.296  11.858 -0.2385 -1.0801 -0.9385
 9193TIP3   OH248993   6.464   3.071   1.557  0.3284  0.2171  0.1538
 9193TIP3    H148994   6.559   3.064   1.556  0.1938 -3.5048 -1.3469
 9193TIP3    H248995   6.438   3.064   1.465 -1.4400 -1.0817  0.6957
 9194TIP3   OH248996   3.119   6.404  13.520  0.6844  0.0037  0.3708
 9194TIP3    H148997   3.152   6.322  13.556  1.1140 -0.0655 -0.1611
 9194TIP3    H248998   3.101   6.459  13.596  1.1673 -0.2914  0.6982
 9195TIP3   OH248999   3.588   6.291  15.924  0.2078  1.0101 -0.2664
 9195TIP3    H149000   3.495   6.269  15.937  0.1478  0.6372 -1.3081
 9195TIP3    H249001   3.606   6.270  15.833  1.8690 -0.8900  0.4189
 9196TIP3   OH249002   0.867   0.521  11.539  0.4323 -0.0077 -0.0433
 9196TIP3    H149003   0.820   0.592  11.582  0.8229 -0.0257  0.4255
 9196TIP3    H249004   0.843   0.528  11.446  1.5342  1.5827 -0.2428
 9197TIP3   OH249005   3.148   1.852  11.582 -0.0052 -0.5188 -0.3372
 9197TIP3    H149006   3.232   1.883  11.614  0.1884 -1.2512 -0.1358
 9197TIP3    H249007   3.130   1.773  11.632 -1.0691 -0.0796  0.0051
 9198TIP3   OH249008   0.835   2.204   1.598  0.1552  0.2306  0.2289
 9198TIP3    H149009   0.812   2.293   1.623 -0.7806 -0.2708  1.2650
 9198TIP3    H249010   0.930   2.204   1.591  0.1393  1.4065 -0.2337
 9199TIP3   OH249011   0.953   3.891   5.735 -0.3892 -1.3322 -0.1392
 9199TIP3    H149012   0.915   3.828   5.796 -1.9315 -1.4449 -1.1512
 9199TIP3    H249013   1.005   3.838   5.674 -1.4725 -1.6274 -0.8327
 9200TIP3   OH249014   3.455   6.245   6.549  0.1441 -0.4510 -0.5400
 9200TIP3    H149015   3.418   6.196   6.622 -0.8062 -0.9034 -1.3040
 9200TIP3    H249016   3.505   6.180   6.499  3.2938  0.3930  1.2216
 9201TIP3   OH249017   1.366   5.955   5.550 -0.1266 -0.0625  0.1011
 9201TIP3    H149018   1.358   5.963   5.645 -1.8037  0.4007 -0.0586
 9201TIP3    H249019   1.277   5.962   5.517  0.3968 -0.4757 -1.5068
 9202TIP3   OH249020   6.257   6.448   4.815  0.2178 -0.0703  0.6491
 9202TIP3    H149021   6.290   6.367   4.774  0.3732 -0.1692  0.9670
 9202TIP3    H249022   6.182   6.473   4.761 -0.3624 -0.8949  1.0419
 9203TIP3   OH249023   3.567   1.366   6.043  0.2417 -1.0597 -0.5676
 9203TIP3    H149024   3.492   1.338   6.095  0.0436  0.7553  0.2170
 9203TIP3    H249025   3.642   1.360   6.103  0.1305  0.3315 -0.2366
 9204TIP3   OH249026   1.885   5.637  11.985  0.3637  0.1053 -0.4070
 9204TIP3    H149027   1.880   5.553  12.031  1.1425  0.4994  0.4413
 9204TIP3    H249028   1.893   5.613  11.893  0.3622 -0.7527 -0.1973
 9205TIP3   OH249029   2.401   0.532   5.502  0.2057  0.2448 -0.1849
 9205TIP3    H149030   2.414   0.462   5.439  0.2761 -2.5070  2.6487
 9205TIP3    H249031   2.489   0.552   5.534  0.2678  2.2104 -1.4269
 9206TIP3   OH249032   6.091   2.721   3.989 -0.4406  0.0867  0.2711
 9206TIP3    H149033   6.007   2.767   3.981 -0.1514  0.4768 -0.6595
 9206TIP3    H249034   6.156   2.784   3.957 -0.2206 -1.5773 -2.9587
 9207TIP3   OH249035   0.724   2.226   1.324 -0.1819  0.4995  0.7609
 9207TIP3    H149036   0.780   2.196   1.396  0.5001  0.3838  0.1985
 9207TIP3    H249037   0.785   2.271   1.265 -0.4744 -0.6176 -0.4319
 9208TIP3   OH249038   2.568   1.793  13.727 -0.8168  0.2738 -0.1143
 9208TIP3    H149039   2.489   1.836  13.760  0.0417  1.1608  0.8538
 9208TIP3    H249040   2.639   1.850  13.756  0.2325 -0.8970 -0.3461
 9209TIP3   OH249041   0.476   2.043   5.973 -0.1179 -0.5282 -0.0291
 9209TIP3    H149042   0.473   1.988   6.051 -0.6427 -0.4252  0.0316
 9209TIP3    H249043   0.485   1.981   5.900 -2.4814 -0.8683 -0.1089
 9210TIP3   OH249044   3.501   5.317   2.632 -0.2497  0.0699  0.8542
 9210TIP3    H149045   3.528   5.307   2.541  0.9814 -0.4321  1.2440
 9210TIP3    H249046   3.500   5.227   2.666  0.6775  0.3554  1.6907
 9211TIP3   OH249047   6.208   2.290  12.727 -0.9375 -0.3229  0.0374
 9211TIP3    H149048   6.267   2.260  12.796  0.1151  1.1628 -0.1670
 9211TIP3    H249049   6.158   2.361  12.767  0.8285  1.6874 -1.0982
 9212TIP3   OH249050   1.157   6.570   5.745 -0.1562 -0.0731 -0.2536
 9212TIP3    H149051   1.179   6.661   5.765  1.2072 -0.7847  1.8444
 9212TIP3    H249052   1.063   6.571   5.726 -0.3280  1.6476  0.5178
 9213TIP3   OH249053   2.300   5.555   4.415  0.1296  0.3321 -0.0325
 9213TIP3    H149054   2.245   5.575   4.340 -0.7584  0.5094  0.6565
 9213TIP3    H249055   2.258   5.598   4.489  1.4966  0.9360  0.4220
 9214TIP3   OH249056   4.760   5.353  16.416  0.1055 -0.5770 -0.1646
 9214TIP3    H149057   4.824   5.283  16.427 -0.3268 -1.1947 -1.3502
 9214TIP3    H249058   4.807   5.422  16.369 -0.0360 -0.9636 -0.8899
 9215TIP3   OH249059   0.381   0.836   3.700 -0.0751  0.2880 -0.1091
 9215TIP3    H149060   0.356   0.757   3.652 -0.1673  0.3130 -0.1032
 9215TIP3    H249061   0.425   0.803   3.778 -0.8490  0.2171  0.3060
 9216TIP3   OH249062   3.541   3.059   2.862 -0.2776  0.2082  0.2882
 9216TIP3    H149063   3.635   3.054   2.845 -0.4701 -1.1489 -0.5574
 9216TIP3    H249064   3.513   2.968   2.872 -1.4158  0.6187  1.0577
 9217TIP3   OH249065   2.541   6.568   1.548 -0.6981 -0.8670 -0.3050
 9217TIP3    H149066   2.456   6.602   1.577 -1.6031 -2.5121 -0.9017
 9217TIP3    H249067   2.549   6.599   1.458 -0.8145 -0.9748 -0.3528
 9218TIP3   OH249068   5.269   2.684  11.232  0.3734 -0.0974 -0.0869
 9218TIP3    H149069   5.256   2.708  11.324  0.1657  0.3692 -0.2351
 9218TIP3    H249070   5.206   2.614  11.216  0.8396 -0.6022  0.2948
 9219TIP3   OH249071   1.222   5.094   0.630 -0.6498 -0.4440  0.3350
 9219TIP3    H149072   1.164   5.062   0.560 -0.8130 -0.4556  0.4767
 9219TIP3    H249073   1.258   5.014   0.669 -0.6789 -0.4407  0.3681
 9220TIP3   OH249074   4.507   6.810   3.500  0.7646 -0.5389  0.6930
 9220TIP3    H149075   4.549   6.879   3.551 -0.6428 -0.4101  1.7258
 9220TIP3    H249076   4.429   6.851   3.463  1.3842 -0.8252 -1.0425
 9221TIP3   OH249077   1.272   1.753   1.194  0.7817 -0.0210  1.0441
 9221TIP3    H149078   1.242   1.766   1.284 -0.6406  0.5833  0.5109
 9221TIP3    H249079   1.339   1.684   1.201  1.4042  0.6907  2.6662
 9222TIP3   OH249080   1.511   0.401  15.613  0.1503 -0.4909 -0.0513
 9222TIP3    H149081   1.456   0.390  15.690  0.3762  0.8166  0.3344
 9222TIP3    H249082   1.599   0.381  15.643 -0.0108 -2.0547 -0.5326
 9223TIP3   OH249083   3.022   6.022   2.176 -0.4633 -0.1118  0.1388
 9223TIP3    H149084   3.035   6.089   2.243  1.5197  0.3330 -0.6060
 9223TIP3    H249085   3.058   5.942   2.215  2.2753  0.5050 -0.8974
 9224TIP3   OH249086   1.557   4.648  13.772 -0.1416 -0.1188 -0.8504
 9224TIP3    H149087   1.470   4.677  13.800 -0.0313  0.2933 -0.9168
 9224TIP3    H249088   1.548   4.554  13.756 -0.4301 -0.1820 -0.3103
 9225TIP3   OH249089   4.739   1.454   1.981 -0.2640  0.2170  0.0848
 9225TIP3    H149090   4.718   1.525   2.042  0.9473  2.2142 -1.7029
 9225TIP3    H249091   4.835   1.452   1.978 -0.2955 -0.6304 -0.8797
 9226TIP3   OH249092   1.228   1.043  10.690  0.1971 -0.3022  0.1908
 9226TIP3    H149093   1.236   0.959  10.737 -1.5312 -0.0893  0.9235
 9226TIP3    H249094   1.137   1.069  10.703 -0.0337  0.3563 -2.3528
 9227TIP3   OH249095   0.987   5.930  16.582  0.0360 -0.1880  0.2772
 9227TIP3    H149096   0.959   5.930  16.674 -3.2176 -0.2060 -0.5702
 9227TIP3    H249097   0.931   5.864  16.541  1.8861 -0.6561 -1.6288
 9228TIP3   OH249098   3.056   0.096   6.175  0.2005  0.3075  0.3444
 9228TIP3    H149099   3.125   0.053   6.226 -0.0536 -1.1199 -0.4609
 9228TIP3    H249100   2.976   0.079   6.224  0.6388  4.8362  3.1412
 9229TIP3   OH249101   4.548   0.218  14.698 -0.4447  0.5053 -0.0845
 9229TIP3    H149102   4.625   0.177  14.738 -0.4414  2.2869  1.9270
 9229TIP3    H249103   4.584   0.276  14.631 -0.0917  0.5908  0.1746
 9230TIP3   OH249104   0.531   5.560   2.613  0.1832 -0.2313  0.4007
 9230TIP3    H149105   0.541   5.653   2.631 -0.0879 -0.4341  1.7512
 9230TIP3    H249106   0.512   5.555   2.519  1.1200  0.9852  0.1163
 9231TIP3   OH249107   5.427   1.285  15.034  0.5390 -0.0804 -0.0202
 9231TIP3    H149108   5.337   1.252  15.025  0.7302 -0.6525  0.1259
 9231TIP3    H249109   5.447   1.323  14.949 -1.2910  3.8311  1.0269
 9232TIP3   OH249110   2.449   3.432   3.489 -0.3646 -0.0730 -0.0796
 9232TIP3    H149111   2.501   3.379   3.428  0.3503  0.5399 -0.0164
 9232TIP3    H249112   2.514   3.487   3.534 -1.2195  1.8747 -1.1340
 9233TIP3   OH249113   2.351   0.947   0.821  0.2618  0.4959  1.0091
 9233TIP3    H149114   2.300   0.872   0.794  2.1577 -0.6217  0.3231
 9233TIP3    H249115   2.424   0.910   0.872  1.1604  1.8621  0.7747
 9234TIP3   OH249116   5.940   5.736   2.500  0.7394  0.3857 -0.2261
 9234TIP3    H149117   6.015   5.733   2.440  0.7682  0.7149 -0.2098
 9234TIP3    H249118   5.961   5.674   2.569  1.1939  0.8001  0.0061
 9235TIP3   OH249119   6.196   2.548  12.379 -0.3698  0.2045  0.3119
 9235TIP3    H149120   6.197   2.457  12.408 -0.5034  0.4597  1.1370
 9235TIP3    H249121   6.125   2.553  12.316 -2.6998  0.4705  2.7821
 9236TIP3   OH249122   5.798   4.324   1.412 -0.3813  0.0232 -0.2612
 9236TIP3    H149123   5.762   4.371   1.336 -0.6918  2.1908  1.1303
 9236TIP3    H249124   5.870   4.273   1.377  0.2387  1.8670 -1.8686
 9237TIP3   OH249125   6.753   3.904   0.796  0.2068  0.3466 -0.6138
 9237TIP3    H149126   6.809   3.931   0.869 -0.5672 -0.6147  0.3612
 9237TIP3    H249127   6.718   3.986   0.760 -0.9350  0.7552  1.3338
 9238TIP3   OH249128   3.328   6.063   1.033  0.3496 -0.1180 -0.2707
 9238TIP3    H149129   3.268   6.072   1.107 -1.5109  0.0668 -1.7165
 9238TIP3    H249130   3.406   6.022   1.070 -0.5842 -0.1985  1.7362
 9239TIP3   OH249131   4.600   4.305  17.087 -0.0249  0.8360 -1.0232
 9239TIP3    H149132   4.648   4.284  17.167 -0.8854  0.2554 -0.6414
 9239TIP3    H249133   4.586   4.220  17.045 -1.2051  0.9148 -0.8310
 9240TIP3   OH249134   4.010   3.422   3.084  0.1349  0.1800  0.0526
 9240TIP3    H149135   3.957   3.465   3.017 -0.3818  1.5051  1.2709
 9240TIP3    H249136   4.058   3.493   3.126 -1.2130 -0.2785  2.5595
 9241TIP3   OH249137   3.855   5.411  15.276 -0.0123  0.2973  0.6992
 9241TIP3    H149138   3.822   5.463  15.203 -0.5854 -0.7617  0.1743
 9241TIP3    H249139   3.810   5.327  15.268  1.6473 -0.6681  0.8800
 9242TIP3   OH249140   4.711   6.444   5.396  0.0940  0.0376 -0.2197
 9242TIP3    H149141   4.730   6.451   5.302 -3.2422  0.9436 -0.9451
 9242TIP3    H249142   4.658   6.522   5.415  3.1685  1.6154  3.2200
 9243TIP3   OH249143   0.789   0.832   2.319 -0.0641 -0.7360 -0.0608
 9243TIP3    H149144   0.826   0.850   2.233 -0.8149 -0.4730 -0.3414
 9243TIP3    H249145   0.709   0.782   2.300 -0.4429 -0.3418  0.4553
 9244TIP3   OH249146   0.442   4.771  14.179 -0.0405 -0.1799  0.0431
 9244TIP3    H149147   0.396   4.853  14.194 -1.1925 -0.5918 -1.0599
 9244TIP3    H249148   0.534   4.796  14.166 -0.6425  1.1578 -2.0686
 9245TIP3   OH249149   0.997   6.260  13.294  0.1274  0.4855 -0.1423
 9245TIP3    H149150   1.019   6.326  13.360  1.3289 -2.4901  2.7298
 9245TIP3    H249151   1.070   6.261  13.233  1.2570  0.3322  1.1622
 9246TIP3   OH249152   6.803   4.936   4.694  0.6827 -0.1148  0.2241
 9246TIP3    H149153   6.774   4.969   4.779  2.1760  1.2461  0.2489
 9246TIP3    H249154   6.895   4.911   4.707  1.3259  1.2849 -1.2594
 9247TIP3   OH249155   6.410   2.805  11.982  0.1528 -0.4341 -0.2375
 9247TIP3    H149156   6.338   2.763  12.030  0.5419 -1.9429 -0.8993
 9247TIP3    H249157   6.393   2.898  11.990  0.0752 -0.6218  2.6240
 9248TIP3   OH249158   5.345   2.116   0.979  0.6195  0.1290 -0.2306
 9248TIP3    H149159   5.251   2.100   0.971  0.6767  0.1608 -1.0045
 9248TIP3    H249160   5.370   2.069   1.059 -0.2722  1.1648  0.6911
 9249TIP3   OH249161   5.385   1.423   3.002  0.5639 -0.0313 -0.0733
 9249TIP3    H149162   5.451   1.397   2.938 -0.6035 -2.7601 -0.2833
 9249TIP3    H249163   5.315   1.359   2.992 -0.3705  0.4026  2.8657
 9250TIP3   OH249164   3.186   1.983  10.640  0.1451  0.3313  0.4548
 9250TIP3    H149165   3.264   1.967  10.694  0.7085 -0.8355 -0.6310
 9250TIP3    H249166   3.176   2.078  10.640  1.3992  0.4910  0.8832
 9251TIP3   OH249167   4.674   6.679   0.043  0.4877  0.3580  0.2476
 9251TIP3    H149168   4.578   6.684   0.040  0.4088  0.7477  2.2075
 9251TIP3    H249169   4.701   6.766   0.072  1.5307  0.5744 -1.2625
 9252TIP3   OH249170   4.842   5.799  12.437  0.2229 -0.2748 -0.6227
 9252TIP3    H149171   4.859   5.727  12.376  0.8607 -1.5617  0.9941
 9252TIP3    H249172   4.846   5.759  12.523 -0.7482  1.4677  0.2903
 9253TIP3   OH249173   2.901   6.153  14.337  0.6306 -0.1121  0.2637
 9253TIP3    H149174   2.877   6.212  14.408  1.4849  0.0000  0.4675
 9253TIP3    H249175   2.819   6.141  14.288  0.5147  1.5369 -0.0041
 9254TIP3   OH249176   5.035   6.559  11.999 -0.2866 -0.0830  0.0842
 9254TIP3    H149177   5.022   6.652  12.019  0.3047  0.1638 -0.6425
 9254TIP3    H249178   4.956   6.535  11.951  0.1137  0.3793 -0.8260
 9255TIP3   OH249179   2.259   1.406  11.593 -0.3268  0.2813 -0.5928
 9255TIP3    H149180   2.275   1.493  11.557 -0.6631  0.2258 -0.8802
 9255TIP3    H249181   2.346   1.376  11.621 -0.2157  0.7216 -0.4532
 9256TIP3   OH249182   0.646   6.745   3.252 -0.3815  0.5277  0.4742
 9256TIP3    H149183   0.553   6.725   3.236 -0.8208  1.4339  1.7239
 9256TIP3    H249184   0.652   6.754   3.347  1.0727  0.1712  0.4386
 9257TIP3   OH249185   0.546   0.495  10.892  0.0617  0.1613 -0.1674
 9257TIP3    H149186   0.633   0.486  10.931 -0.8627 -0.9572  1.8146
 9257TIP3    H249187   0.525   0.588  10.901  1.2313  0.5350 -1.1242
 9258TIP3   OH249188   0.749   2.909  13.587  0.3294 -0.2998 -0.7723
 9258TIP3    H149189   0.771   2.873  13.673  1.1459  0.7085 -0.5368
 9258TIP3    H249190   0.812   2.980  13.574 -0.1551 -0.0629 -1.9532
 9259TIP3   OH249191   4.379   4.297  11.901 -0.1153 -0.1053  0.3251
 9259TIP3    H149192   4.303   4.346  11.931 -0.5478  0.3196 -1.3548
 9259TIP3    H249193   4.450   4.362  11.900  0.0724 -0.2960  1.0989
 9260TIP3   OH249194   4.329   0.010   0.294  0.5455 -0.4712  0.5680
 9260TIP3    H149195   4.372   0.088   0.258 -0.8758  0.5136  0.9477
 9260TIP3    H249196   4.367   0.000   0.382 -0.9777  1.2550  1.4770
 9261TIP3   OH249197   4.554   4.860   4.434  0.4489 -0.3642  0.1471
 9261TIP3    H149198   4.553   4.809   4.353  0.9050  1.6363 -1.1949
 9261TIP3    H249199   4.472   4.837   4.478  0.7813 -2.4463 -0.2199
 9262TIP3   OH249200   4.598   5.527   1.229  0.0477 -0.3763 -0.7373
 9262TIP3    H149201   4.587   5.545   1.135 -2.1353  2.0453 -0.1334
 9262TIP3    H249202   4.653   5.599   1.260  0.6266 -1.0810 -0.0948
 9263TIP3   OH249203   6.655   2.661  10.590 -0.0976 -0.1228  0.0449
 9263TIP3    H149204   6.601   2.683  10.514 -0.0600  0.7525  0.2600
 9263TIP3    H249205   6.734   2.621  10.552  1.0707  2.5486 -0.6118
 9264TIP3   OH249206   6.750   1.808   5.837 -0.0607 -0.1631  0.0671
 9264TIP3    H149207   6.704   1.870   5.781  1.0307 -0.3721 -1.0960
 9264TIP3    H249208   6.735   1.840   5.926 -0.3178  1.2119 -0.4471
 9265TIP3   OH249209   5.248   2.844   6.325  0.4936  0.4274  0.3147
 9265TIP3    H149210   5.261   2.936   6.351  1.9410  0.1599  0.6366
 9265TIP3    H249211   5.303   2.795   6.386  1.0106 -0.5258 -0.8919
 9266TIP3   OH249212   4.033   0.607  11.894  0.3648 -0.4966  0.5178
 9266TIP3    H149213   4.021   0.537  11.958 -2.6475 -0.9472 -0.3555
 9266TIP3    H249214   3.960   0.666  11.909  0.3192  0.0763 -1.6260
 9267TIP3   OH249215   2.170   4.376   4.110 -0.1499  0.2939  0.6630
 9267TIP3    H149216   2.230   4.450   4.105 -0.8049  0.7832 -0.2915
 9267TIP3    H249217   2.090   4.414   4.147 -0.7611  0.2532 -0.6018
 9268TIP3   OH249218   4.784   4.940   0.701 -0.4211 -0.2232  0.6803
 9268TIP3    H149219   4.791   4.905   0.612  1.1584 -2.0879  1.4579
 9268TIP3    H249220   4.721   4.882   0.744  0.2214 -0.5038  1.2647
 9269TIP3   OH249221   5.077   3.581   1.179  0.3779  0.3859  0.1438
 9269TIP3    H149222   5.141   3.644   1.212 -1.1488  1.4744  1.1831
 9269TIP3    H249223   5.050   3.531   1.257 -1.0927  0.9630  0.0375
 9270TIP3   OH249224   3.409   2.365  14.522  0.1692  0.0596 -0.2813
 9270TIP3    H149225   3.332   2.377  14.577  1.2375 -0.1058  1.3304
 9270TIP3    H249226   3.473   2.324  14.580  1.4789  0.2214 -1.5639
 9271TIP3   OH249227   4.506   0.138  13.211  0.1032 -0.2614  0.6229
 9271TIP3    H149228   4.498   0.233  13.209 -0.2365 -0.2839  0.7895
 9271TIP3    H249229   4.468   0.112  13.295  0.0781 -0.5521  0.5248
 9272TIP3   OH249230   5.726   3.830  12.156 -0.1710 -0.0922 -0.1013
 9272TIP3    H149231   5.753   3.738  12.154 -2.3965 -0.7948 -1.7093
 9272TIP3    H249232   5.807   3.879  12.139  0.5723 -1.9571 -2.5948
 9273TIP3   OH249233   4.224   3.774   4.285 -0.1110 -0.2471 -0.6109
 9273TIP3    H149234   4.311   3.782   4.325  0.2419  0.6032 -1.5188
 9273TIP3    H249235   4.174   3.847   4.322 -0.0635 -0.0036 -1.0282
 9274TIP3   OH249236   5.555   0.536  12.080 -0.8976 -0.0328 -0.4087
 9274TIP3    H149237   5.467   0.534  12.044 -1.0212  0.5237 -0.1433
 9274TIP3    H249238   5.570   0.627  12.104  0.3796  0.2140 -1.9736
 9275TIP3   OH249239   6.080   4.500  13.325 -0.5999 -0.2334  0.7791
 9275TIP3    H149240   6.045   4.516  13.413  0.1936 -0.7636  1.2087
 9275TIP3    H249241   6.044   4.571  13.272 -0.8981  0.2451  1.5935
 9276TIP3   OH249242   4.386   2.378   4.301  0.5299  0.0863  0.2839
 9276TIP3    H149243   4.312   2.393   4.242  0.6758  2.6011  0.6159
 9276TIP3    H249244   4.462   2.374   4.243  0.3722 -0.2864  0.1012
 9277TIP3   OH249245   6.545   5.492   3.116 -0.8524  0.0423  0.1512
 9277TIP3    H149246   6.607   5.541   3.063  0.6210 -1.5912  0.2735
 9277TIP3    H249247   6.499   5.436   3.053 -1.3596  0.3807  0.2150
 9278TIP3   OH249248   1.027   5.795  12.319  0.4059 -0.3531 -0.4142
 9278TIP3    H149249   0.955   5.858  12.324  1.2665  0.5985  0.3644
 9278TIP3    H249250   1.072   5.817  12.238  0.4548 -0.2465 -0.3577
 9279TIP3   OH249251   0.475   4.659  11.037  0.4725 -0.1071 -0.4248
 9279TIP3    H149252   0.566   4.630  11.028  1.0245  1.4166 -0.0709
 9279TIP3    H249253   0.478   4.724  11.107 -0.7169  0.6660 -1.0654
 9280TIP3   OH249254   3.294   2.843  13.583  0.3524  0.1605  0.0756
 9280TIP3    H149255   3.337   2.886  13.657  1.7949 -0.1322 -0.5756
 9280TIP3    H249256   3.203   2.833  13.612  1.0531 -0.7887  2.2181
 9281TIP3   OH249257   5.662   1.072   5.272 -0.0985 -0.0681  0.8176
 9281TIP3    H149258   5.595   1.065   5.340 -0.3221 -0.2363  0.5814
 9281TIP3    H249259   5.615   1.103   5.195  0.2407  0.5845  0.8644
 9282TIP3   OH249260   0.021   5.722   1.288 -0.6908  0.1235  0.0502
 9282TIP3    H149261   0.025   5.657   1.218 -2.2630  0.2363 -0.1747
 9282TIP3    H249262  -0.016   5.675   1.363 -0.9922  0.5408  0.1624
 9283TIP3   OH249263   3.479   1.768   6.770  0.7761  0.0034 -0.1859
 9283TIP3    H149264   3.542   1.704   6.803  0.1590 -0.3690  0.2921
 9283TIP3    H249265   3.432   1.721   6.701  0.3170 -0.0688  0.1711
 9284TIP3   OH249266   0.209   4.753   5.026 -0.1323  0.3466 -0.3861
 9284TIP3    H149267   0.145   4.735   5.096  0.4191  0.6308  0.2052
 9284TIP3    H249268   0.191   4.687   4.960 -1.1160  0.4985 -0.2803
 9285TIP3   OH249269   4.500   1.386   2.707 -0.1281 -0.2002  0.0289
 9285TIP3    H149270   4.567   1.424   2.650  1.3902 -1.3673  0.9508
 9285TIP3    H249271   4.540   1.306   2.741 -1.4440 -0.1846  1.7705
 9286TIP3   OH249272   5.901   5.213  12.688  0.0821  0.4385 -0.0200
 9286TIP3    H149273   5.810   5.190  12.701  0.0310  0.9618  0.5736
 9286TIP3    H249274   5.899   5.303  12.655  0.4274  0.9938  1.3937
 9287TIP3   OH249275   1.052   0.198   3.839 -0.5007 -0.1194  0.7007
 9287TIP3    H149276   1.045   0.290   3.868 -0.8362  0.0819  0.0047
 9287TIP3    H249277   1.137   0.169   3.872  0.8914  1.2819 -1.3628
 9288TIP3   OH249278   6.173   1.894  11.710  0.3965 -0.4514 -0.3430
 9288TIP3    H149279   6.222   1.814  11.690  0.8317 -0.1040 -0.6861
 9288TIP3    H249280   6.113   1.903  11.637  1.0402  0.0722 -0.8216
 9289TIP3   OH249281   3.484   4.085   0.410 -0.0956  0.4100  0.5344
 9289TIP3    H149282   3.556   4.131   0.368  0.1242  0.3856  0.8843
 9289TIP3    H249283   3.449   4.028   0.342 -2.2407  3.1525 -0.8278
 9290TIP3   OH249284   6.747   2.455   3.149 -0.0992  0.1308 -0.0668
 9290TIP3    H149285   6.713   2.511   3.079  0.1526  1.0817  0.5426
 9290TIP3    H249286   6.757   2.514   3.223  1.4702 -0.4281  0.2078
 9291TIP3   OH249287   1.659   1.055   3.704 -0.2597 -0.0600  0.4780
 9291TIP3    H149288   1.701   0.969   3.707  0.7064  0.1393 -2.7136
 9291TIP3    H249289   1.723   1.115   3.742  0.2234 -0.4362  0.2671
 9292TIP3   OH249290   0.622   5.370  11.509 -0.2833  0.0627 -0.4788
 9292TIP3    H149291   0.625   5.464  11.489  1.9982  0.0912 -0.2063
 9292TIP3    H249292   0.573   5.365  11.590 -1.1400  0.9246 -0.9142
 9293TIP3   OH249293   1.649   5.403   0.509  0.0487  0.0590 -0.8262
 9293TIP3    H149294   1.733   5.429   0.470 -0.4484  2.5212 -0.4295
 9293TIP3    H249295   1.656   5.430   0.601 -1.7298  1.9046 -1.1589
 9294TIP3   OH249296   0.705   0.883  15.623  0.0450  0.1057  0.1874
 9294TIP3    H149297   0.639   0.840  15.569 -0.4037  1.2719 -0.1991
 9294TIP3    H249298   0.715   0.824  15.699 -0.4437 -0.7526 -0.3956
 9295TIP3   OH249299   4.663   0.730   1.415  0.3397  0.0355 -0.1336
 9295TIP3    H149300   4.673   0.671   1.489  2.1072 -1.6110 -1.5768
 9295TIP3    H249301   4.623   0.677   1.346 -1.3060  1.5321 -0.4098
 9296TIP3   OH249302   1.887   6.691  16.517 -0.1924  0.1938 -0.0544
 9296TIP3    H149303   1.866   6.734  16.434 -0.7901  1.1822  0.5798
 9296TIP3    H249304   1.839   6.742  16.582  0.7089 -0.2309  0.9623
 9297TIP3   OH249305   5.804   1.585   4.307 -0.7524 -0.1828  0.1135
 9297TIP3    H149306   5.744   1.546   4.245 -0.6830 -0.4995  0.2455
 9297TIP3    H249307   5.882   1.606   4.256 -0.5642 -0.7559  0.1651
 9298TIP3   OH249308   0.609   2.337  10.865  0.1207  0.1395  0.5131
 9298TIP3    H149309   0.575   2.421  10.897  0.0614 -0.2466  1.4945
 9298TIP3    H249310   0.677   2.361  10.802  0.0656  0.9192  0.7439
 9299TIP3   OH249311   2.153   5.315  14.755 -0.9552  0.2335 -0.4972
 9299TIP3    H149312   2.171   5.385  14.692  1.0930  0.3434  0.1297
 9299TIP3    H249313   2.234   5.262  14.756 -1.2211 -0.2123  1.4514
 9300TIP3   OH249314   6.057   5.608   3.319 -0.1958 -0.2797  0.4969
 9300TIP3    H149315   6.006   5.687   3.332  0.2029 -0.2509  2.1337
 9300TIP3    H249316   6.029   5.549   3.389 -0.0763 -1.3878 -0.3444
 9301TIP3   OH249317   5.877   1.746  13.699 -0.1570 -0.3960  0.0778
 9301TIP3    H149318   5.901   1.826  13.745  0.5921 -0.1469 -0.7215
 9301TIP3    H249319   5.910   1.675  13.755 -0.4012 -0.1372  0.5511
 9302TIP3   OH249320   3.908   3.893   3.220 -0.1210 -0.6310 -0.7749
 9302TIP3    H149321   3.956   3.968   3.255  1.5175 -1.2018 -1.6841
 9302TIP3    H249322   3.866   3.926   3.141 -1.0751 -0.1831 -0.0954
 9303TIP3   OH249323   6.047   0.165   0.580 -0.2664 -0.8577 -0.1460
 9303TIP3    H149324   6.014   0.219   0.651  0.1764 -0.4560 -0.2378
 9303TIP3    H249325   6.046   0.076   0.615 -0.6208 -0.7394  0.1487
 9304TIP3   OH249326   2.848   6.015  13.089 -0.6943  0.0491 -0.0022
 9304TIP3    H149327   2.769   5.969  13.117 -0.2319 -0.5648  0.3108
 9304TIP3    H249328   2.883   6.054  13.169  0.4592 -1.4517  0.2767
 9305TIP3   OH249329   2.083   3.716   1.744  0.0277 -0.0348 -0.2528
 9305TIP3    H149330   2.060   3.728   1.836 -0.2584  0.2480 -0.3564
 9305TIP3    H249331   2.002   3.683   1.704 -0.0621  0.5023 -0.5311
 9306TIP3   OH249332   0.887   2.759   5.589  0.2347  0.0848 -0.0897
 9306TIP3    H149333   0.793   2.778   5.594  0.1366 -0.5364  0.5400
 9306TIP3    H249334   0.922   2.825   5.528 -0.4599  0.8795  0.3539
 9307TIP3   OH249335   4.095   4.673   2.562 -0.3754  0.0422 -0.0536
 9307TIP3    H149336   4.093   4.674   2.467 -1.4836 -1.2600 -0.0753
 9307TIP3    H249337   4.161   4.606   2.584  0.1074  0.5590  0.1188
 9308TIP3   OH249338   0.291   0.612  12.009 -0.5422  0.9672  0.0401
 9308TIP3    H149339   0.355   0.553  11.971  0.5308  1.9122  0.3359
 9308TIP3    H249340   0.284   0.585  12.100 -1.9748 -0.3104 -0.3959
 9309TIP3   OH249341   5.585   5.782   5.391  0.1961 -0.0395  0.3219
 9309TIP3    H149342   5.662   5.769   5.447  0.8644 -0.2295 -0.6094
 9309TIP3    H249343   5.617   5.837   5.319  0.0260 -1.7755 -1.1671
 9310TIP3   OH249344   1.616   1.614   5.485  0.0225 -0.4296 -0.7237
 9310TIP3    H149345   1.596   1.526   5.517  0.6829 -0.1468  0.5153
 9310TIP3    H249346   1.534   1.661   5.492 -0.0358 -0.6016 -0.1864
 9311TIP3   OH249347   3.647   2.557  16.528 -0.3527  0.5190  0.1699
 9311TIP3    H149348   3.594   2.619  16.478 -2.3093 -1.3754 -0.2955
 9311TIP3    H249349   3.675   2.492  16.464 -1.3526 -0.9565  1.1557
 9312TIP3   OH249350   5.829   0.447   5.942  0.1746  0.0166  0.4285
 9312TIP3    H149351   5.916   0.443   5.902  0.4695 -0.3685  1.0895
 9312TIP3    H249352   5.845   0.431   6.035 -0.1261  3.5475  1.2427
 9313TIP3   OH249353   6.020   4.755   0.447  0.7198 -0.3963  0.1592
 9313TIP3    H149354   6.048   4.841   0.415  1.1670 -0.9347 -0.9176
 9313TIP3    H249355   5.928   4.768   0.471  0.9886  0.5759  0.7454
 9314TIP3   OH249356   2.187   6.310  17.132  0.6553  0.6677  0.1457
 9314TIP3    H149357   2.202   6.343  17.220 -1.0050  3.4711 -0.5213
 9314TIP3    H249358   2.238   6.229  17.128  1.3868  0.8436  3.3888
 9315TIP3   OH249359   4.311   4.823   1.066 -0.4962 -0.1415  0.5757
 9315TIP3    H149360   4.255   4.808   0.990  0.6908 -2.3043  0.0525
 9315TIP3    H249361   4.374   4.889   1.036  0.2377 -1.2964 -0.5365
 9316TIP3   OH249362   3.538   5.550   3.620  0.1354  0.5896 -0.3141
 9316TIP3    H149363   3.575   5.632   3.586  0.9922  0.0477 -0.7273
 9316TIP3    H249364   3.444   5.557   3.601  0.6216 -0.0171 -3.6540
 9317TIP3   OH249365   0.876   0.197   4.207  0.4202 -0.0538  0.1535
 9317TIP3    H149366   0.863   0.104   4.227  1.4758 -0.5246 -1.1931
 9317TIP3    H249367   0.846   0.207   4.117 -0.0104  1.0075  0.3968
 9318TIP3   OH249368   1.790   4.880  16.264  0.2411  0.2190 -0.0627
 9318TIP3    H149369   1.813   4.854  16.353  0.0690  0.0174 -0.0768
 9318TIP3    H249370   1.767   4.798  16.220 -0.9092  0.4632  0.0655
 9319TIP3   OH249371   2.075   0.045   0.079 -0.1677 -0.0850 -0.0495
 9319TIP3    H149372   2.014   0.066   0.009 -0.9253  0.5718  0.7864
 9319TIP3    H249373   2.160   0.078   0.049 -1.1588  3.8714  0.9384
 9320TIP3   OH249374   3.650   1.941   3.096 -0.0461 -0.1393 -0.0379
 9320TIP3    H149375   3.687   1.952   3.008 -0.1074  1.1986  0.0720
 9320TIP3    H249376   3.723   1.957   3.155 -0.2738  0.1920  0.1599
 9321TIP3   OH249377   0.013   1.581   0.739  0.0749  0.2187 -0.1883
 9321TIP3    H149378   0.004   1.490   0.764  2.3219 -0.1252 -0.4122
 9321TIP3    H249379   0.040   1.626   0.819  1.3239  0.2065 -0.5705
 9322TIP3   OH249380   4.485   3.439  17.005 -0.1495  0.5923 -0.2349
 9322TIP3    H149381   4.557   3.399  17.055  0.0464  0.0094 -0.9631
 9322TIP3    H249382   4.508   3.532  17.000 -1.2574  1.1191  2.5903
 9323TIP3   OH249383   4.637   1.998   4.150 -0.0390  0.1573  0.3083
 9323TIP3    H149384   4.542   1.987   4.153  0.1101 -1.4303  0.1419
 9323TIP3    H249385   4.658   2.046   4.230 -0.7621 -1.7274  1.7344
 9324TIP3   OH249386   5.666   4.871  15.921  0.2179  0.6810 -0.3221
 9324TIP3    H149387   5.637   4.953  15.961  0.7425  0.7470 -0.0704
 9324TIP3    H249388   5.735   4.898  15.860  1.0964  0.3318  0.4898
 9325TIP3   OH249389   4.895   5.708  17.073 -0.3352 -0.3187 -0.0377
 9325TIP3    H149390   4.941   5.790  17.093 -3.9893  2.1659 -0.7293
 9325TIP3    H249391   4.849   5.687  17.154  0.4214 -1.6371  0.0676
 9326TIP3   OH249392   5.885   0.531   6.210 -0.0759  0.5381 -0.4886
 9326TIP3    H149393   5.934   0.532   6.293  0.3482 -0.8292 -0.7020
 9326TIP3    H249394   5.794   0.546   6.236  0.1046  0.5285  0.1770
 9327TIP3   OH249395   4.392   3.714   1.972 -0.3691 -0.2665 -0.8915
 9327TIP3    H149396   4.298   3.713   1.953  0.0905 -2.0171 -3.6721
 9327TIP3    H249397   4.411   3.804   1.998 -2.7772  0.1430 -0.3617
 9328TIP3   OH249398   5.459   4.523   5.895  0.0461 -0.0774 -0.0077
 9328TIP3    H149399   5.550   4.515   5.921 -0.1616  0.0455  0.7728
 9328TIP3    H249400   5.428   4.432   5.889 -0.0639 -0.0997  0.7763
 9329TIP3   OH249401   0.296   5.449   3.028  0.0342  0.4335  0.2373
 9329TIP3    H149402   0.318   5.405   2.946  0.8300 -0.6717  1.0144
 9329TIP3    H249403   0.380   5.480   3.062  0.1103 -1.3760  1.8676
 9330TIP3   OH249404   0.538   1.373  14.079  0.3314  0.1911  0.1217
 9330TIP3    H149405   0.505   1.461  14.099  0.6263  0.0469  1.3294
 9330TIP3    H249406   0.460   1.319  14.072  0.2164  0.1165  1.6352
 9331TIP3   OH249407   4.217   0.968  13.706  0.1231  0.5311 -0.2572
 9331TIP3    H149408   4.171   0.991  13.625 -0.3192  0.7392  0.0467
 9331TIP3    H249409   4.149   0.928  13.761  0.8988 -1.6640 -0.8268
 9332TIP3   OH249410   3.511   5.483  13.615  0.5113  0.4083  0.3303
 9332TIP3    H149411   3.545   5.398  13.587 -0.8773 -0.0134 -0.1523
 9332TIP3    H249412   3.564   5.505  13.692  0.7899 -0.9609  0.5651
 9333TIP3   OH249413   4.521   1.725   4.970 -0.3390 -0.3586  0.0969
 9333TIP3    H149414   4.504   1.761   4.883  0.9884 -0.3466 -0.1673
 9333TIP3    H249415   4.596   1.667   4.958 -2.3965 -3.3422  0.4733
 9334TIP3   OH249416   2.624   6.487  14.528  0.2400  0.1907 -0.0331
 9334TIP3    H149417   2.543   6.465  14.483  0.6822 -1.7497  0.0491
 9334TIP3    H249418   2.616   6.447  14.615  0.6023  1.4286  0.6086
 9335TIP3   OH249419   2.705   6.804   5.270 -0.0862  0.3047  0.0980
 9335TIP3    H149420   2.771   6.856   5.224 -1.2759  1.0513 -0.8431
 9335TIP3    H249421   2.658   6.758   5.200 -0.0347 -0.8883  0.8130
 9336TIP3   OH249422   2.326   1.143  16.743  0.7504 -0.2242  0.1449
 9336TIP3    H149423   2.328   1.047  16.754 -0.4480 -0.3165 -0.2927
 9336TIP3    H249424   2.292   1.175  16.826  0.3561 -0.2458 -0.0050
 9337TIP3   OH249425   6.808   0.919  15.090  0.1050 -0.1216 -0.1519
 9337TIP3    H149426   6.738   0.977  15.059  0.0351  0.8803  1.7241
 9337TIP3    H249427   6.774   0.882  15.171  0.8791 -1.4211 -0.3982
 9338TIP3   OH249428   4.750   4.057   6.401 -0.0692  0.0865 -0.2839
 9338TIP3    H149429   4.689   4.113   6.449 -0.1037  0.0532 -0.2882
 9338TIP3    H249430   4.807   4.020   6.468 -1.1359 -1.2315 -0.0534
 9339TIP3   OH249431   3.535   6.058   3.390 -0.6788 -0.5952 -0.0009
 9339TIP3    H149432   3.443   6.075   3.412 -0.4394  1.2208 -0.2728
 9339TIP3    H249433   3.582   6.072   3.473 -0.4415  0.4840 -0.3008
 9340TIP3   OH249434   2.620   5.787   3.572 -0.3761 -0.0474 -0.6144
 9340TIP3    H149435   2.630   5.849   3.645 -0.5217  0.4479 -1.0085
 9340TIP3    H249436   2.602   5.703   3.614  0.2051  0.0933 -0.0528
 9341TIP3   OH249437   1.459   4.047   1.781 -0.0815  0.0487 -1.0659
 9341TIP3    H149438   1.496   4.100   1.711  3.0001  0.9139  1.0022
 9341TIP3    H249439   1.438   4.110   1.851 -1.8307 -0.9091 -0.6650
 9342TIP3   OH249440   5.034   3.128  15.914  0.3086  0.1661  0.2311
 9342TIP3    H149441   4.983   3.178  15.850 -1.0958 -1.8991 -0.3709
 9342TIP3    H249442   4.976   3.118  15.989  0.2425 -1.1445  0.0347
 9343TIP3   OH249443   5.708   1.841   5.012 -0.1239  0.0237  0.5074
 9343TIP3    H149444   5.734   1.831   5.103  3.3876 -0.3252 -0.3795
 9343TIP3    H249445   5.722   1.933   4.992 -2.7052  0.5412  0.6992
 9344TIP3   OH249446   1.595   5.596  12.213  0.4728 -0.0491  0.0465
 9344TIP3    H149447   1.673   5.648  12.196 -0.0680  0.4463 -1.0902
 9344TIP3    H249448   1.555   5.585  12.126 -1.4348  0.9076  0.7359
 9345TIP3   OH249449   5.862   1.879  12.361  0.1489 -0.2867 -0.0065
 9345TIP3    H149450   5.957   1.884  12.370  0.0964 -1.1291  1.4442
 9345TIP3    H249451   5.834   1.830  12.439 -1.5196  0.4116 -0.1370
 9346TIP3   OH249452   4.570   3.038   0.535 -0.2668  0.2362 -0.0518
 9346TIP3    H149453   4.656   2.998   0.520 -1.1195 -1.9348  0.5283
 9346TIP3    H249454   4.521   3.019   0.455 -0.8172 -0.2768  0.4000
 9347TIP3   OH249455   1.185   0.278  11.536 -0.0175  0.8448 -0.1289
 9347TIP3    H149456   1.134   0.206  11.573  2.5334 -0.7745  0.4720
 9347TIP3    H249457   1.186   0.261  11.442  0.9403 -0.1984  0.0572
 9348TIP3   OH249458   4.180   5.014   1.661 -0.2439 -0.2227  0.2163
 9348TIP3    H149459   4.111   5.080   1.669 -1.1747 -1.1466  0.0069
 9348TIP3    H249460   4.176   4.986   1.569  0.1162 -0.5835  0.3090
 9349TIP3   OH249461   6.211   5.583  14.743 -0.0134 -0.0528 -0.3372
 9349TIP3    H149462   6.139   5.587  14.680 -0.4818  2.9766  0.2334
 9349TIP3    H249463   6.277   5.528  14.701 -1.9800 -1.6548 -1.5460
 9350TIP3   OH249464   5.183   4.545  12.252  0.1026 -0.4526 -0.6392
 9350TIP3    H149465   5.176   4.470  12.311  0.0091 -0.4987 -0.7081
 9350TIP3    H249466   5.109   4.601  12.276 -0.4211 -0.8631 -1.2639
 9351TIP3   OH249467   3.546   2.832  17.011 -0.2064  0.1564  0.5565
 9351TIP3    H149468   3.593   2.799  17.088 -0.4870  0.2349  0.7620
 9351TIP3    H249469   3.549   2.760  16.948 -0.8933 -0.2998  1.0392
 9352TIP3   OH249470   5.035   5.621   2.103 -0.3800 -0.0525 -0.0426
 9352TIP3    H149471   5.046   5.691   2.169  1.7701 -0.7283  0.4084
 9352TIP3    H249472   5.064   5.662   2.021  0.2345 -0.1957  0.0965
 9353TIP3   OH249473   3.720   6.038  13.971  0.0955  0.5847 -0.3212
 9353TIP3    H149474   3.690   6.012  13.884 -0.5925 -0.3043  0.1661
 9353TIP3    H249475   3.785   6.106  13.955 -0.4897  0.8862 -1.5039
 9354TIP3   OH249476   0.873   2.497   1.197 -0.3251  0.1414 -0.1843
 9354TIP3    H149477   0.835   2.582   1.216 -1.5144 -0.4181  0.0214
 9354TIP3    H249478   0.834   2.471   1.114 -0.6141 -0.5725  0.1708
 9355TIP3   OH249479   3.020   4.976   4.007  0.2134  0.4083 -0.7536
 9355TIP3    H149480   2.998   4.914   4.077 -0.1706  0.3899 -0.8883
 9355TIP3    H249481   3.021   5.062   4.050  1.6497  0.2311 -0.3676
 9356TIP3   OH249482   1.832   0.469   1.056 -0.3859 -0.3784  0.0574
 9356TIP3    H149483   1.908   0.425   1.018  0.2837  0.3656  0.5000
 9356TIP3    H249484   1.856   0.482   1.148 -1.3536 -0.7850  0.3712
 9357TIP3   OH249485   5.756   2.782  15.205 -0.3762  0.0509  0.0116
 9357TIP3    H149486   5.747   2.806  15.297 -2.8390 -1.8051  0.3739
 9357TIP3    H249487   5.786   2.862  15.162 -1.1197  1.5604  2.1266
 9358TIP3   OH249488   3.824   4.615   0.816 -0.0451 -0.0680  0.0406
 9358TIP3    H149489   3.773   4.545   0.776  0.7011 -0.3909 -0.3448
 9358TIP3    H249490   3.823   4.595   0.910 -2.1267  0.9033  0.2903
 9359TIP3   OH249491   3.353   3.056   2.331 -0.1036  0.1714  0.6893
 9359TIP3    H149492   3.328   3.137   2.375  1.3593  0.5724  0.8365
 9359TIP3    H249493   3.419   3.083   2.267  0.6419 -0.9347  0.9600
 9360TIP3   OH249494   0.853   5.055   4.877  0.1001 -0.4204 -0.7536
 9360TIP3    H149495   0.857   5.123   4.944 -3.0605  0.7752 -1.5660
 9360TIP3    H249496   0.829   4.976   4.925  0.5670 -0.2061 -0.1598
 9361TIP3   OH249497   3.230   3.696   5.792 -0.3022  0.3339  0.2663
 9361TIP3    H149498   3.196   3.730   5.875  0.3039 -0.1604  0.7275
 9361TIP3    H249499   3.325   3.698   5.802 -0.2208 -1.8047  0.4544
 9362TIP3   OH249500   3.056   5.390   0.622 -0.0550 -0.4047  0.1398
 9362TIP3    H149501   2.969   5.388   0.582  0.5311 -0.4080 -1.1931
 9362TIP3    H249502   3.102   5.460   0.575  0.6023 -0.2577  0.9752
 9363TIP3   OH249503   5.450   3.876  12.290 -0.5871 -0.0959 -0.6022
 9363TIP3    H149504   5.406   3.791  12.295  0.8301 -0.7687  1.3397
 9363TIP3    H249505   5.520   3.863  12.226  1.1441 -1.1911  1.4174
 9364TIP3   OH249506   2.950   5.184  11.250 -0.0388  0.7530 -0.3452
 9364TIP3    H149507   2.981   5.272  11.229 -1.7431  1.4224 -0.2823
 9364TIP3    H249508   2.888   5.198  11.322  1.4980 -0.8214  1.3924
 9365TIP3   OH249509   0.649   2.724  16.424  0.6167 -0.0313  0.4412
 9365TIP3    H149510   0.674   2.813  16.399  2.1519 -0.9743 -1.7644
 9365TIP3    H249511   0.731   2.675  16.423 -0.2770 -1.6150  0.9862
 9366TIP3   OH249512   0.960   6.477   1.212  0.3485 -0.3629 -0.0576
 9366TIP3    H149513   1.019   6.544   1.178 -0.5363  0.6884  0.4379
 9366TIP3    H249514   0.878   6.523   1.229 -0.9460 -1.9681 -1.5722
 9367TIP3   OH249515   5.750   0.777  16.035  0.1642  0.6309  0.2368
 9367TIP3    H149516   5.795   0.844  15.983 -0.8790  1.6852  0.6396
 9367TIP3    H249517   5.723   0.823  16.115  0.6810 -0.6526  1.1754
 9368TIP3   OH249518   2.496   4.681  11.794  0.0677  0.1703  0.7268
 9368TIP3    H149519   2.489   4.649  11.704 -0.0824  0.2737  0.6999
 9368TIP3    H249520   2.472   4.606  11.848  0.8216 -0.0931  0.7069
 9369TIP3   OH249521   3.024   1.886  16.906  0.0189 -0.1049  0.1432
 9369TIP3    H149522   3.110   1.919  16.933  0.3561  0.7464 -1.7717
 9369TIP3    H249523   3.044   1.804  16.861 -0.6062 -1.9288  2.9331
 9370TIP3   OH249524   3.979   3.425  12.574  0.7818 -0.0921  0.1689
 9370TIP3    H149525   3.968   3.441  12.668  1.1249  2.6235 -0.2002
 9370TIP3    H249526   3.906   3.472  12.533  0.3690 -1.6283 -0.9463
 9371TIP3   OH249527   6.527   5.125  12.654  0.3071 -0.3432 -0.0482
 9371TIP3    H149528   6.577   5.088  12.727  0.5704 -0.8414 -0.4794
 9371TIP3    H249529   6.580   5.108  12.577 -0.1163 -0.0950 -0.4008
 9372TIP3   OH249530   1.720   6.571  15.421  0.0626 -0.1414  0.0838
 9372TIP3    H149531   1.749   6.537  15.505 -1.2124 -0.4591  0.4218
 9372TIP3    H249532   1.765   6.517  15.356 -2.0202 -2.7400  0.5947
 9373TIP3   OH249533   4.469   6.596  14.628 -0.0103  0.1073  0.1634
 9373TIP3    H149534   4.433   6.509  14.642  1.1996 -1.0126 -2.8320
 9373TIP3    H249535   4.400   6.644  14.582  0.1280 -0.0369 -0.1988
 9374TIP3   OH249536   0.858   5.463  12.981  0.0270 -0.2820  0.0073
 9374TIP3    H149537   0.937   5.452  12.928  0.8155 -0.6391  1.2145
 9374TIP3    H249538   0.867   5.399  13.051 -1.8440 -1.0450 -0.3896
 9375TIP3   OH249539   2.153   6.112   5.918  0.2206 -0.1214  0.3723
 9375TIP3    H149540   2.211   6.067   5.979 -1.1111 -1.6347  0.5611
 9375TIP3    H249541   2.091   6.046   5.889 -1.2607  1.3656 -0.0446
 9376TIP3   OH249542   2.196   6.006   1.443 -0.6121  0.0896 -0.1265
 9376TIP3    H149543   2.151   6.040   1.520 -0.0695 -0.4834  0.4525
 9376TIP3    H249544   2.163   6.059   1.370 -0.6455  1.0699  0.5883
 9377TIP3   OH249545   5.384   5.580   4.256 -0.0972  0.4791 -0.2968
 9377TIP3    H149546   5.390   5.642   4.184 -1.2411  1.4808  0.4444
 9377TIP3    H249547   5.474   5.553   4.273  0.1696 -0.0326 -2.2919
 9378TIP3   OH249548   4.591   4.459  12.010  0.6577  0.7682 -0.5094
 9378TIP3    H149549   4.658   4.522  11.982  1.2004  1.1056  1.4119
 9378TIP3    H249550   4.632   4.374  11.997  0.6106  0.8701 -1.4010
 9379TIP3   OH249551   5.779   0.612  13.997 -0.2406  0.0388  0.2388
 9379TIP3    H149552   5.684   0.616  14.007 -0.5901  0.6167 -2.4630
 9379TIP3    H249553   5.796   0.652  13.912  2.2211 -1.9524 -0.3482
 9380TIP3   OH249554   2.783   6.754  15.135  0.1290  1.0400 -0.3720
 9380TIP3    H149555   2.823   6.685  15.187  1.2188  1.1763 -0.9898
 9380TIP3    H249556   2.835   6.832  15.155 -1.4031  1.8439  0.7185
 9381TIP3   OH249557   4.570   3.127  13.431 -0.1153  0.3197 -0.0671
 9381TIP3    H149558   4.518   3.205  13.448 -0.9770 -0.3056  0.2920
 9381TIP3    H249559   4.638   3.155  13.370 -1.5227  0.9361 -1.4137
 9382TIP3   OH249560   0.643   4.241   0.743  0.4162  0.0718 -0.6347
 9382TIP3    H149561   0.660   4.165   0.687  1.0181  0.8909 -1.5863
 9382TIP3    H249562   0.716   4.240   0.805  2.1885  1.5831 -2.5552
 9383TIP3   OH249563   6.548   6.575   4.124 -0.2277  0.0352 -0.1348
 9383TIP3    H149564   6.603   6.498   4.114  0.2690  0.4430 -0.6914
 9383TIP3    H249565   6.465   6.542   4.158  0.1681 -0.6637  0.1722
 9384TIP3   OH249566   3.833   5.364   5.130  0.1172 -0.0617  0.1994
 9384TIP3    H149567   3.916   5.386   5.087 -0.1994  0.1991 -0.2815
 9384TIP3    H249568   3.854   5.287   5.183  1.0172  0.8213  1.1855
 9385TIP3   OH249569   2.460   4.076  13.310 -0.0526  0.0810  0.3742
 9385TIP3    H149570   2.457   4.138  13.237 -0.1177 -0.6557 -0.2544
 9385TIP3    H249571   2.546   4.092  13.351  0.3586 -0.1115 -0.3974
 9386TIP3   OH249572   5.667   1.620   1.319  0.0496  0.2848  0.5215
 9386TIP3    H149573   5.606   1.640   1.248 -0.9192  1.0536  1.5409
 9386TIP3    H249574   5.748   1.664   1.294  0.1777 -0.6268 -0.7799
 9387TIP3   OH249575   1.952   2.738   4.890 -0.0434  0.1791 -0.7142
 9387TIP3    H149576   1.961   2.743   4.795 -0.7151  0.1972 -0.7814
 9387TIP3    H249577   1.923   2.825   4.916  2.3056  0.9043 -0.2105
 9388TIP3   OH249578   3.244   3.202  13.921  0.2697 -0.0586 -0.7871
 9388TIP3    H149579   3.281   3.278  13.875 -1.7747  0.3662 -1.8423
 9388TIP3    H249580   3.184   3.241  13.986 -0.3860 -0.7455 -0.9706
 9389TIP3   OH249581   3.430   3.464  14.004  0.4713  0.0174 -0.1616
 9389TIP3    H149582   3.455   3.449  13.913  0.9512  0.2531 -0.0701
 9389TIP3    H249583   3.452   3.383  14.049  1.6488  0.4314  0.0356
 9390TIP3   OH249584   6.353   5.584  10.698  0.3034 -0.1374 -0.0643
 9390TIP3    H149585   6.266   5.572  10.738  0.4690  1.9892  1.0619
 9390TIP3    H249586   6.414   5.557  10.766  0.5687 -0.7951 -0.5500
 9391TIP3   OH249587   1.925   6.485   1.505  0.2413  0.4623 -0.8080
 9391TIP3    H149588   1.914   6.546   1.578  1.4429 -1.3499  1.0100
 9391TIP3    H249589   1.861   6.513   1.440 -2.3491  0.9913  1.7545
 9392TIP3   OH249590   4.813   4.876  16.009 -0.0652  0.2071 -0.1329
 9392TIP3    H149591   4.880   4.937  16.041  0.1939 -0.3093  0.3253
 9392TIP3    H249592   4.737   4.932  15.991 -0.4291  0.4872  1.9418
 9393TIP3   OH249593   6.346   3.874  17.090 -0.2043  0.0621 -0.3271
 9393TIP3    H149594   6.360   3.857  16.997 -1.0117 -0.1726 -0.4140
 9393TIP3    H249595   6.434   3.875  17.128  0.0162 -3.4157 -0.4525
 9394TIP3   OH249596   1.481   3.899   3.944  0.3775  0.0531  0.0420
 9394TIP3    H149597   1.535   3.959   3.892  0.7353 -0.3409 -0.0525
 9394TIP3    H249598   1.474   3.941   4.029  1.0732 -0.0145  0.1423
 9395TIP3   OH249599   2.625   2.219  11.288  0.6775  0.3648  0.6257
 9395TIP3    H149600   2.689   2.154  11.257 -2.5656 -2.6489 -0.3712
 9395TIP3    H249601   2.625   2.207  11.383 -0.3180 -1.7284  0.4264
 9396TIP3   OH249602   5.078   4.329  14.364  0.1495  0.1530 -0.1785
 9396TIP3    H149603   5.049   4.418  14.384  0.3993 -0.0488  1.1988
 9396TIP3    H249604   5.105   4.293  14.449  3.6537  0.0323 -1.1891
 9397TIP3   OH249605   3.798   3.727  15.955  0.0566 -0.0382 -0.0738
 9397TIP3    H149606   3.746   3.664  15.905 -1.6366 -0.9589  2.6129
 9397TIP3    H249607   3.751   3.809  15.946  1.1420  0.4372 -1.9152
 9398TIP3   OH249608   4.915   5.153   4.116  0.0679 -0.5151 -0.2798
 9398TIP3    H149609   4.938   5.147   4.023 -0.6096  1.8229 -0.6690
 9398TIP3    H249610   4.999   5.158   4.161  0.4271 -2.6406 -0.6234
 9399TIP3   OH249611   2.539   6.100   3.449  0.5172  0.8981 -0.9655
 9399TIP3    H149612   2.536   6.024   3.391  1.5190  1.0158 -1.1914
 9399TIP3    H249613   2.622   6.143   3.428  0.3555  1.5857 -0.2493
 9400TIP3   OH249614   3.361   4.797  13.248  0.0406 -0.1184 -0.9773
 9400TIP3    H149615   3.339   4.758  13.333  0.3288  2.7036  0.5255
 9400TIP3    H249616   3.277   4.826  13.213  0.2221  2.0720  0.2174
 9401TIP3   OH249617   5.983   2.189  10.751 -0.1186 -0.1148  0.0586
 9401TIP3    H149618   5.970   2.097  10.726  0.6284 -0.2386  0.1022
 9401TIP3    H249619   6.075   2.206  10.732 -0.3985  0.8136 -0.5454
 9402TIP3   OH249620   1.134   5.502   3.727 -0.3197 -0.5313  0.8886
 9402TIP3    H149621   1.197   5.433   3.705 -2.2101 -3.0259  2.6430
 9402TIP3    H249622   1.150   5.521   3.819 -1.3739 -0.3937  1.0611
 9403TIP3   OH249623   0.466   1.042  15.196  0.0375  0.0734  0.1987
 9403TIP3    H149624   0.527   1.064  15.125 -0.9597  1.3447 -0.3068
 9403TIP3    H249625   0.379   1.055  15.157 -0.5294  0.9355  1.6883
 9404TIP3   OH249626   4.798   6.615  16.989 -0.5580 -0.1256 -0.0412
 9404TIP3    H149627   4.769   6.681  16.926 -0.7083 -0.5362 -0.4148
 9404TIP3    H249628   4.744   6.629  17.066  0.7217  1.4267  0.6307
 9405TIP3   OH249629   1.282   5.962   1.586  0.3608  0.1076 -0.0880
 9405TIP3    H149630   1.359   5.976   1.640 -1.6217 -1.4468  3.5179
 9405TIP3    H249631   1.231   6.043   1.596  1.7879  1.5916 -3.3506
 9406TIP3   OH249632   4.571   0.943   0.194 -0.4953 -0.3797 -0.3315
 9406TIP3    H149633   4.652   0.952   0.244 -0.8891  0.0344  0.2352
 9406TIP3    H249634   4.532   0.861   0.225  0.6742 -1.6728 -2.0332
 9407TIP3   OH249635   6.660   5.914  10.933  0.0368 -0.2488 -0.9069
 9407TIP3    H149636   6.695   5.910  10.844 -0.5946 -2.6713 -1.1294
 9407TIP3    H249637   6.567   5.934  10.921 -0.5924 -2.9094 -1.0541
 9408TIP3   OH249638   4.317   0.884   6.164  0.4040  0.1368 -0.7994
 9408TIP3    H149639   4.394   0.898   6.219  0.1576  2.9212 -1.0613
 9408TIP3    H249640   4.352   0.867   6.077  0.7127 -1.3845 -0.4243
 9409TIP3   OH249641   4.725   6.400   6.168 -0.1804  0.3083  0.2632
 9409TIP3    H149642   4.683   6.485   6.180  0.0121  0.5528 -0.7255
 9409TIP3    H249643   4.815   6.413   6.200  0.9032  1.4939 -2.8703
 9410TIP3   OH249644   2.409   0.919   4.786  0.1163  0.5219 -0.1416
 9410TIP3    H149645   2.491   0.967   4.795  0.3945 -0.0451  0.3693
 9410TIP3    H249646   2.388   0.925   4.693  0.7336  0.6659 -0.2762
 9411TIP3   OH249647   5.141   1.380   3.925 -0.0556  0.2856 -0.5257
 9411TIP3    H149648   5.172   1.469   3.907 -0.6546  0.4703 -0.6736
 9411TIP3    H249649   5.162   1.365   4.017 -0.1598  0.6676 -0.4398
 9412TIP3   OH249650   6.340   0.166  12.066 -0.0531  0.3699  0.2005
 9412TIP3    H149651   6.376   0.176  12.154  0.4032  1.6531 -0.1151
 9412TIP3    H249652   6.248   0.188  12.075 -0.2419 -0.4864  0.5279
 9413TIP3   OH249653   4.889   2.956   0.071 -0.3800 -0.6232  0.0446
 9413TIP3    H149654   4.945   2.966  -0.005 -1.7303  1.1063 -0.7829
 9413TIP3    H249655   4.889   2.862   0.089 -0.2670 -1.1202 -2.2792
 9414TIP3   OH249656   2.367   1.758   3.648  0.2204  0.1858  0.6251
 9414TIP3    H149657   2.361   1.794   3.736  1.2866 -0.6098  1.0486
 9414TIP3    H249658   2.396   1.831   3.593  1.2428  0.2743  1.2588
 9415TIP3   OH249659   2.926   3.977   2.879  0.2619  0.0339  0.5038
 9415TIP3    H149660   2.933   3.886   2.908  1.4610 -0.0431  0.0493
 9415TIP3    H249661   2.993   3.986   2.811  1.3362  1.6758  1.6902
 9416TIP3   OH249662   3.371   6.635   0.270  0.4859 -0.0335 -0.0585
 9416TIP3    H149663   3.352   6.590   0.188  0.1674 -1.1794  0.6216
 9416TIP3    H249664   3.453   6.596   0.300 -0.4828 -1.1632  1.2146
 9417TIP3   OH249665   4.560   2.574   1.915 -0.5777  0.5857  0.2390
 9417TIP3    H149666   4.551   2.639   1.984 -0.4438  0.3234  0.5054
 9417TIP3    H249667   4.562   2.490   1.961 -0.1636  0.4295 -0.0594
 9418TIP3   OH249668   0.775   3.617   3.658  0.3426 -0.3379  0.9292
 9418TIP3    H149669   0.806   3.533   3.623  0.6941 -0.5283  1.6543
 9418TIP3    H249670   0.856   3.662   3.685  0.4761  1.5258 -2.0928
 9419TIP3   OH249671   3.155   5.069   1.455  0.3698  0.2213  0.3406
 9419TIP3    H149672   3.156   5.001   1.522 -0.1141 -0.1028  0.0205
 9419TIP3    H249673   3.111   5.143   1.496 -1.8755 -0.6912 -0.2859
 9420TIP3   OH249674   4.664   2.424   5.949 -0.0218  0.5030  0.3653
 9420TIP3    H149675   4.580   2.378   5.941  0.7259 -0.8012 -0.1858
 9420TIP3    H249676   4.680   2.461   5.863 -0.0493  0.8127  0.4901
 9421TIP3   OH249677   6.676   2.572   2.933 -0.0681  0.1273 -0.0846
 9421TIP3    H149678   6.583   2.579   2.910 -1.2427 -2.6219  2.8608
 9421TIP3    H249679   6.712   2.510   2.869 -1.0856 -0.9942  0.3764
 9422TIP3   OH249680   3.574   5.593   6.315 -0.0456 -0.0567 -0.2893
 9422TIP3    H149681   3.605   5.684   6.314  1.2231 -0.4611 -0.4866
 9422TIP3    H249682   3.492   5.595   6.266 -0.5439  1.1444  0.5713
 9423TIP3   OH249683   4.577   1.095  11.603  0.0502  0.3457 -0.4061
 9423TIP3    H149684   4.510   1.114  11.669  2.5036  0.1145  2.3872
 9423TIP3    H249685   4.621   1.179  11.590 -0.8076  0.5451 -2.3671
 9424TIP3   OH249686   5.386   5.546   0.783 -0.3397 -0.1758 -0.0505
 9424TIP3    H149687   5.404   5.639   0.794  1.2344 -0.3324 -0.9380
 9424TIP3    H249688   5.380   5.511   0.872  1.7404  0.3272  0.3267
 9425TIP3   OH249689   6.220   1.631  12.258 -0.2058  0.4530 -0.0897
 9425TIP3    H149690   6.199   1.658  12.169 -0.7340  1.9577  0.4547
 9425TIP3    H249691   6.138   1.595  12.293 -0.8167  2.3316  0.6083
 9426TIP3   OH249692   2.889   0.587  15.227 -0.3316  0.2943 -0.4329
 9426TIP3    H149693   2.907   0.503  15.268 -0.3229  1.0587  1.1730
 9426TIP3    H249694   2.975   0.621  15.202 -0.0793  0.9155  1.1656
 9427TIP3   OH249695   2.845   0.190   5.987  0.5781  0.6192  0.5807
 9427TIP3    H149696   2.800   0.110   6.015 -1.8745  1.7524  0.1758
 9427TIP3    H249697   2.869   0.234   6.069 -0.1635  0.5595  0.8335
 9428TIP3   OH249698   1.724   1.059  16.024  0.0078  0.1342  0.1404
 9428TIP3    H149699   1.675   1.027  15.947 -1.8277  0.1711  1.2310
 9428TIP3    H249700   1.759   0.980  16.064  0.1570  0.0230 -0.2041
 9429TIP3   OH249701   6.667   2.096  11.258 -0.9323  0.1456 -0.3454
 9429TIP3    H149702   6.627   2.078  11.173 -1.3160 -1.7218  0.1947
 9429TIP3    H249703   6.751   2.137  11.236 -1.6042  0.9291 -1.5720
 9430TIP3   OH249704   2.521   1.279   2.587 -0.3686 -0.3714 -0.0776
 9430TIP3    H149705   2.426   1.269   2.596 -0.4478 -1.0582 -1.3913
 9430TIP3    H249706   2.545   1.219   2.517  1.6178 -2.8938  2.5542
 9431TIP3   OH249707   2.161   2.687  15.996 -0.0374  0.4027  0.4393
 9431TIP3    H149708   2.074   2.679  15.957 -0.2078 -1.2828  1.0844
 9431TIP3    H249709   2.185   2.598  16.021  0.3196  1.2529  3.6086
 9432TIP3   OH249710   3.039   5.447   3.407 -0.1987 -0.3150  0.7578
 9432TIP3    H149711   2.945   5.435   3.392 -0.3372 -0.3331  1.5744
 9432TIP3    H249712   3.056   5.538   3.386 -0.4261 -0.2793  0.7273
 9433TIP3   OH249713   4.448   4.330  13.754 -0.5671 -0.6621  0.4144
 9433TIP3    H149714   4.535   4.317  13.791 -0.8649 -2.0573  0.7045
 9433TIP3    H249715   4.396   4.366  13.826 -0.5075 -0.9473  0.6050
 9434TIP3   OH249716   5.454   4.245   5.867 -0.5357  0.1974  0.1558
 9434TIP3    H149717   5.420   4.157   5.848  1.2099 -0.7068  1.0097
 9434TIP3    H249718   5.537   4.249   5.820 -1.1906  1.9444 -0.9646
 9435TIP3   OH249719   3.296   2.349  13.984 -0.0041  0.2816  0.1831
 9435TIP3    H149720   3.361   2.380  14.047  0.7379 -0.1069 -0.3802
 9435TIP3    H249721   3.283   2.423  13.924 -0.1657  0.3931  0.3527
 9436TIP3   OH249722   0.677   3.497  11.608 -0.1634  0.3963 -0.4704
 9436TIP3    H149723   0.757   3.549  11.605 -0.4903  0.8472 -1.7638
 9436TIP3    H249724   0.689   3.430  11.542 -1.1612  0.9426 -1.2401
 9437TIP3   OH249725   3.046   0.875   4.555 -0.3647  0.1568 -0.7203
 9437TIP3    H149726   3.094   0.815   4.498  0.4057  0.7615 -0.7235
 9437TIP3    H249727   3.092   0.959   4.546 -0.4791  0.3671  0.4723
 9438TIP3   OH249728   1.359   1.099   3.749  0.1493 -0.1559  0.2900
 9438TIP3    H149729   1.449   1.069   3.738  0.9295  1.7146  1.1290
 9438TIP3    H249730   1.309   1.020   3.767  1.4398 -1.3540 -1.0998
 9439TIP3   OH249731   2.822   0.712   1.220  0.0505 -0.1591 -0.1550
 9439TIP3    H149732   2.780   0.795   1.242  1.3989  0.0480  1.9263
 9439TIP3    H249733   2.910   0.720   1.256  1.3077 -1.3013 -2.6844
 9440TIP3   OH249734   1.933   4.990  17.014  0.1388 -0.2133  0.4197
 9440TIP3    H149735   1.916   4.923  17.081  0.5981 -1.3632 -0.5727
 9440TIP3    H249736   2.015   5.032  17.042 -0.8264  0.8780  1.7456
 9441TIP3   OH249737   0.782   1.322  16.839  0.9259 -0.5139 -0.4944
 9441TIP3    H149738   0.758   1.406  16.877 -0.3200 -1.2093  0.3139
 9441TIP3    H249739   0.814   1.344  16.751 -0.9248  0.6676 -0.9269
 9442TIP3   OH249740   1.257   3.352   2.007  0.1481  0.2903 -0.0569
 9442TIP3    H149741   1.316   3.427   2.003  1.6732 -0.9327 -2.0040
 9442TIP3    H249742   1.233   3.335   1.916 -0.3293 -1.4336  0.3577
 9443TIP3   OH249743   3.445   4.752   2.558  0.7117  0.6509 -0.4723
 9443TIP3    H149744   3.531   4.738   2.598  0.6165  0.0613 -0.4667
 9443TIP3    H249745   3.418   4.838   2.590  0.7179  0.2713  0.5908
 9444TIP3   OH249746   4.462   2.307   3.375 -0.0928  0.5998  0.5515
 9444TIP3    H149747   4.453   2.402   3.372 -0.3600  0.5527 -1.4378
 9444TIP3    H249748   4.556   2.291   3.371 -0.0756  0.7693  0.2976
 9445TIP3   OH249749   3.532   4.913   3.623  0.1739  0.5762 -0.5004
 9445TIP3    H149750   3.606   4.952   3.669 -0.9455 -0.1749  2.0918
 9445TIP3    H249751   3.485   4.988   3.586  0.9719  1.2285 -0.2219
 9446TIP3   OH249752   1.724   3.542  15.258 -0.7340  0.4548 -0.1830
 9446TIP3    H149753   1.759   3.458  15.229 -1.4836  0.3817 -0.9088
 9446TIP3    H249754   1.629   3.533  15.249 -0.9576  0.7094  1.5873
 9447TIP3   OH249755   6.168   6.665   1.970 -0.3593  0.1249  0.2332
 9447TIP3    H149756   6.213   6.655   1.886 -1.7669 -0.8930 -0.4329
 9447TIP3    H249757   6.162   6.760   1.982 -0.6489  0.2995 -1.1100
 9448TIP3   OH249758   4.948   6.337   4.792 -0.2030 -0.2458  0.1741
 9448TIP3    H149759   4.924   6.427   4.773 -1.2210 -0.5512 -0.0594
 9448TIP3    H249760   5.022   6.319   4.735  0.0938  0.4823  0.3248
 9449TIP3   OH249761   4.519   1.498   0.779  0.3073  0.6425 -0.2442
 9449TIP3    H149762   4.480   1.486   0.866  2.2133 -0.8017  0.4866
 9449TIP3    H249763   4.574   1.576   0.788 -1.5072  2.0567 -0.9692
 9450TIP3   OH249764   5.694   3.060   5.518  0.4165 -0.3089 -0.0420
 9450TIP3    H149765   5.679   3.121   5.590  0.5665  0.5131 -0.6991
 9450TIP3    H249766   5.788   3.064   5.502  0.4823 -0.9784  0.1269
 9451TIP3   OH249767   6.204   2.053  13.186  0.4758  0.5261 -0.0051
 9451TIP3    H149768   6.252   2.131  13.215  0.5887  0.3330  0.3287
 9451TIP3    H249769   6.142   2.035  13.256 -0.0912  0.7706 -0.4332
 9452TIP3   OH249770   2.009   2.394  14.108 -0.2372 -0.2591 -0.0193
 9452TIP3    H149771   1.944   2.408  14.039  0.2956  0.7217 -0.3538
 9452TIP3    H249772   2.092   2.384  14.060 -0.1335 -1.5048  0.3971
 9453TIP3   OH249773   1.731   2.756   3.048 -0.2127  0.3533  0.0219
 9453TIP3    H149774   1.677   2.824   3.087 -0.4085 -0.2863  0.9088
 9453TIP3    H249775   1.819   2.792   3.047 -0.1157  0.2199  1.5337
 9454TIP3   OH249776   5.714   2.849   3.852 -0.3453 -0.3571 -0.3298
 9454TIP3    H149777   5.765   2.869   3.773  1.3390 -1.6806  0.3413
 9454TIP3    H249778   5.709   2.932   3.899  1.0593 -0.1339 -0.5195
 9455TIP3   OH249779   0.167   6.406  14.075  0.1013 -0.2006  0.4131
 9455TIP3    H149780   0.126   6.335  14.125 -0.4973 -0.0765  0.1140
 9455TIP3    H249781   0.093   6.454  14.037  0.4368  1.1775  1.4001
 9456TIP3   OH249782   2.106   0.855  13.782 -0.1448  0.3835  0.6271
 9456TIP3    H149783   2.021   0.829  13.747 -0.0819 -0.1959  0.8986
 9456TIP3    H249784   2.123   0.941  13.743  0.0531 -0.3470 -0.9841
 9457TIP3   OH249785   4.795   6.019  16.601  0.5490  0.4192 -0.1225
 9457TIP3    H149786   4.823   5.944  16.548  1.1756  0.4665  0.1412
 9457TIP3    H249787   4.824   5.997  16.690 -0.3419  0.4170  0.1793
 9458TIP3   OH249788   5.819   3.097   4.320 -0.2954 -0.6689  0.3357
 9458TIP3    H149789   5.901   3.048   4.316  1.1339  1.4556  1.6337
 9458TIP3    H249790   5.790   3.103   4.229  2.5184  0.8383 -0.5940
 9459TIP3   OH249791   4.477   1.757  11.023 -0.2035  0.7932 -0.4478
 9459TIP3    H149792   4.454   1.673  11.063 -1.0340  0.5209 -1.4518
 9459TIP3    H249793   4.573   1.755  11.016 -0.2594 -0.3806 -1.0951
 9460TIP3   OH249794   6.309   4.955  15.447  0.5773 -0.6756  0.1442
 9460TIP3    H149795   6.220   4.953  15.412  0.8673 -0.1850 -0.6458
 9460TIP3    H249796   6.363   4.980  15.373  1.2979 -0.3071  0.7817
 9461TIP3   OH249797   1.328   1.711   6.392 -0.5954 -0.0840  0.2174
 9461TIP3    H149798   1.310   1.803   6.372 -0.7360 -0.0932  0.2989
 9461TIP3    H249799   1.400   1.714   6.455 -2.9692  0.1628  3.1347
 9462TIP3   OH249800   2.598   4.272  13.838 -0.2942 -0.0533  0.5647
 9462TIP3    H149801   2.529   4.335  13.858 -0.8190 -0.6026  0.5089
 9462TIP3    H249802   2.619   4.231  13.921 -0.4650 -0.3163  0.4789
 9463TIP3   OH249803   2.131   0.427  14.884 -0.1018 -0.1366  0.0935
 9463TIP3    H149804   2.141   0.521  14.893 -2.4631  0.1415  0.5916
 9463TIP3    H249805   2.217   0.395  14.857  1.1736  1.9408  1.4827
 9464TIP3   OH249806   4.579   6.535  14.099  0.3999  0.2548  0.1259
 9464TIP3    H149807   4.493   6.547  14.139  0.4234 -1.7585  0.8796
 9464TIP3    H249808   4.559   6.503  14.011  0.3929  1.4682 -0.3370
 9465TIP3   OH249809   4.352   3.775   3.207  0.4827 -0.1248 -0.0641
 9465TIP3    H149810   4.432   3.722   3.215  0.3859 -0.0291  2.1081
 9465TIP3    H249811   4.384   3.864   3.192  0.8314  0.0205  1.4507
 9466TIP3   OH249812   0.363   0.331  12.408 -0.2008  0.1802  0.3131
 9466TIP3    H149813   0.300   0.294  12.345 -0.9725 -0.3288  1.3530
 9466TIP3    H249814   0.388   0.258  12.463  0.6432  0.5775  0.4711
 9467TIP3   OH249815   4.582   3.310  12.394 -0.1376  0.0600  0.6782
 9467TIP3    H149816   4.526   3.291  12.319 -0.2935 -0.6960  0.9731
 9467TIP3    H249817   4.561   3.400  12.418  0.1556  0.4293 -0.3856
 9468TIP3   OH249818   2.438   5.319   3.517 -0.4356  0.9225  0.0508
 9468TIP3    H149819   2.436   5.257   3.590 -3.7496  2.3587  1.3666
 9468TIP3    H249820   2.379   5.281   3.452  0.1512  1.1357 -0.6255
 9469TIP3   OH249821   5.347   2.920   2.016 -0.0051 -0.4866 -0.5111
 9469TIP3    H149822   5.355   2.842   1.961 -1.1077 -1.0500  0.0900
 9469TIP3    H249823   5.257   2.918   2.048  0.6361 -0.2951  1.4840
 9470TIP3   OH249824   2.275   2.497   2.602 -0.0217  0.0085 -0.0024
 9470TIP3    H149825   2.224   2.562   2.650 -0.0293 -0.1755  0.2404
 9470TIP3    H249826   2.324   2.450   2.670  0.2509 -0.0055 -0.2085
 9471TIP3   OH249827   4.393   3.994   2.382 -0.1908 -0.5559 -0.1525
 9471TIP3    H149828   4.441   3.912   2.378  0.9404 -0.0016  1.2637
 9471TIP3    H249829   4.301   3.968   2.384  0.1685 -1.9362  2.3309
 9472TIP3   OH249830   1.113   2.800  15.627  0.2690  0.2067  0.3610
 9472TIP3    H149831   1.207   2.809  15.615  0.3573 -0.1122  0.7988
 9472TIP3    H249832   1.075   2.875  15.581  0.6879 -0.1455 -0.5801
 9473TIP3   OH249833   0.244   3.909  16.326  0.5664  0.1459 -0.4782
 9473TIP3    H149834   0.325   3.863  16.305 -1.1107 -1.8436 -3.3613
 9473TIP3    H249835   0.201   3.853  16.391 -0.6181 -1.5932 -2.6122
 9474TIP3   OH249836   5.021   6.116  13.781 -0.6830 -0.4442  0.8096
 9474TIP3    H149837   5.029   6.031  13.825 -0.9141 -0.3734  0.9876
 9474TIP3    H249838   5.073   6.176  13.834  0.8692 -0.8017 -0.2185
 9475TIP3   OH249839   1.118   0.702  16.697  0.7397 -0.2285 -0.2719
 9475TIP3    H149840   1.181   0.649  16.744 -0.0895 -0.3626  0.7159
 9475TIP3    H249841   1.043   0.709  16.756  0.5620  1.4781 -0.6489
 9476TIP3   OH249842   5.265   2.203  11.718  0.1366  0.6352 -0.1042
 9476TIP3    H149843   5.204   2.159  11.778  1.1784 -1.0346 -0.1883
 9476TIP3    H249844   5.252   2.158  11.634  1.1842  0.5222 -0.2154
 9477TIP3   OH249845   3.258   0.036   3.210 -0.0938 -0.1353 -0.0566
 9477TIP3    H149846   3.341  -0.012   3.208  0.9178  1.3726  1.8870
 9477TIP3    H249847   3.248   0.071   3.121  1.1358 -0.6904 -0.4308
 9478TIP3   OH249848   5.445   3.209   6.091 -0.9717 -0.1798 -0.0657
 9478TIP3    H149849   5.373   3.251   6.044 -1.9071 -0.4908  1.0552
 9478TIP3    H249850   5.420   3.116   6.095 -0.0016 -0.4744 -0.5728
 9479TIP3   OH249851   4.771   0.373   0.305 -0.3764 -0.2400 -0.3493
 9479TIP3    H149852   4.838   0.413   0.249  0.6857 -1.5462 -0.0561
 9479TIP3    H249853   4.808   0.289   0.330 -2.0571 -0.8998  0.0135
 9480TIP3   OH249854   4.824   5.326  12.594 -0.1176 -0.5000  0.8504
 9480TIP3    H149855   4.877   5.281  12.528  0.4544  0.7950  0.3925
 9480TIP3    H249856   4.766   5.382  12.543 -0.6793 -0.5514  1.4181
 9481TIP3   OH249857   0.191   2.506  11.318 -0.2782 -0.2712 -0.0907
 9481TIP3    H149858   0.254   2.444  11.356 -0.5743  0.2959  1.3980
 9481TIP3    H249859   0.108   2.459  11.321 -0.1881 -0.4732 -0.6796
 9482TIP3   OH249860   2.000   3.343  11.920 -0.2737 -0.2448  0.6467
 9482TIP3    H149861   1.926   3.283  11.933 -0.5085 -0.5180 -1.5940
 9482TIP3    H249862   2.019   3.337  11.827  3.3431 -1.0670  1.3046
 9483TIP3   OH249863   1.931   6.645   5.868 -0.4755  0.1399 -0.0228
 9483TIP3    H149864   1.990   6.570   5.866 -1.0117 -0.2911  0.2373
 9483TIP3    H249865   1.850   6.612   5.907 -0.7230  0.8470  0.0861
 9484TIP3   OH249866   0.470   3.714   3.250 -0.5663  0.1111  0.5335
 9484TIP3    H149867   0.488   3.630   3.206 -0.5800  0.9719 -1.2222
 9484TIP3    H249868   0.543   3.770   3.224 -0.2862  0.5089  2.1318
 9485TIP3   OH249869   2.635   6.381   2.636 -0.3811 -0.3247  0.0428
 9485TIP3    H149870   2.717   6.336   2.657  0.2481  1.2433  1.0995
 9485TIP3    H249871   2.615   6.433   2.714 -2.2555 -0.4677 -0.2987
 9486TIP3   OH249872   4.493   1.685  16.945  0.2862  0.5679  0.0569
 9486TIP3    H149873   4.505   1.616  16.880 -0.4448  0.0028  0.5152
 9486TIP3    H249874   4.572   1.739  16.937 -0.9501  2.1737 -3.2403
 9487TIP3   OH249875   1.577   6.581  16.189 -0.0846  0.3353  0.3259
 9487TIP3    H149876   1.648   6.518  16.178  0.3115  0.7027  0.7563
 9487TIP3    H249877   1.583   6.609  16.280  1.6761  3.2546 -0.5408
 9488TIP3   OH249878   1.142   6.138  11.642 -0.0153  0.0252 -0.0509
 9488TIP3    H149879   1.056   6.096  11.650 -0.2314  0.1614 -1.4660
 9488TIP3    H249880   1.184   6.122  11.727 -0.3181 -2.5216 -0.3091
 9489TIP3   OH249881   2.125   3.843  15.105  0.0694  0.6190 -0.0000
 9489TIP3    H149882   2.076   3.846  15.187  1.7289 -1.4703  1.1672
 9489TIP3    H249883   2.064   3.806  15.042 -0.6881  0.5790  0.7425
 9490TIP3   OH249884   5.363   3.257   2.455  0.1638 -0.0558  0.0894
 9490TIP3    H149885   5.329   3.167   2.459 -2.2712  0.8218  1.4237
 9490TIP3    H249886   5.322   3.294   2.376  0.4963  0.1271  0.0033
 9491TIP3   OH249887   1.405   3.258   0.572  0.3746 -0.3053 -0.7435
 9491TIP3    H149888   1.314   3.228   0.561 -0.0926  0.3528  0.9871
 9491TIP3    H249889   1.453   3.180   0.599  0.4485 -0.7494 -2.0648
 9492TIP3   OH249890   0.519   2.469   6.354  0.5793 -0.6446  0.2745
 9492TIP3    H149891   0.554   2.524   6.424 -0.7231  0.8749 -0.2158
 9492TIP3    H249892   0.576   2.486   6.280  0.4584 -0.3166  0.2566
 9493TIP3   OH249893   0.518   0.034   1.047  0.3410  0.1374 -0.4367
 9493TIP3    H149894   0.464   0.021   1.125 -0.4353  0.0791 -0.9714
 9493TIP3    H249895   0.509   0.128   1.027 -0.0517  0.0093 -0.8734
 9494TIP3   OH249896   6.413   6.593  10.959 -0.1743  0.4222  0.0916
 9494TIP3    H149897   6.463   6.648  10.899  2.5620 -0.8910  0.9920
 9494TIP3    H249898   6.371   6.528  10.902  2.5502 -0.9422 -0.5260
 9495TIP3   OH249899   3.773   6.167  16.732  0.3775 -0.6233 -0.2228
 9495TIP3    H149900   3.732   6.174  16.645  0.8559  1.0012 -0.3657
 9495TIP3    H249901   3.866   6.179  16.715  0.3542  0.9928  0.6151
 9496TIP3   OH249902   3.349   6.163  15.967 -0.1896  0.3338 -0.5859
 9496TIP3    H149903   3.262   6.192  15.993 -0.0383  0.6494 -0.4124
 9496TIP3    H249904   3.343   6.145  15.874 -1.0186 -1.8146 -0.1756
 9497TIP3   OH249905   4.733   6.279  15.915  0.0752 -0.3617  0.9523
 9497TIP3    H149906   4.777   6.301  15.833 -0.9826  1.7965  0.8888
 9497TIP3    H249907   4.723   6.184  15.912 -0.9812 -0.2641 -2.0227
 9498TIP3   OH249908   2.124   0.449  12.157  0.3198  0.1100 -0.2001
 9498TIP3    H149909   2.166   0.364  12.172  1.2916  0.9693  2.4637
 9498TIP3    H249910   2.030   0.431  12.164  0.5534 -0.5948  1.4541
 9499TIP3   OH249911   3.848   4.645  16.529  0.1515  0.1773  0.0850
 9499TIP3    H149912   3.879   4.733  16.505 -0.5919  0.3095 -0.3969
 9499TIP3    H249913   3.912   4.615  16.595  1.0750  0.6102 -0.5844
 9500TIP3   OH249914   1.773   3.175  15.551 -0.2225  0.2923 -0.1755
 9500TIP3    H149915   1.683   3.144  15.563 -0.2825  0.6028  0.2057
 9500TIP3    H249916   1.765   3.271  15.546  0.0627  0.3076 -0.3644
 9501TIP3   OH249917   5.805   5.164  15.213  0.0470  0.1402  0.6676
 9501TIP3    H149918   5.871   5.140  15.148 -1.3663 -0.0268 -0.7551
 9501TIP3    H249919   5.731   5.106  15.196 -0.5680  0.4380  2.1041
 9502TIP3   OH249920   0.291   0.158   6.496  0.7351 -0.3155 -0.1975
 9502TIP3    H149921   0.214   0.123   6.451  0.3090  0.4391 -0.0685
 9502TIP3    H249922   0.361   0.154   6.430  0.7118 -1.4396 -0.1702
 9503TIP3   OH249923   4.265   2.642  12.342  0.1409  0.1688 -0.4384
 9503TIP3    H149924   4.208   2.629  12.266 -0.9002  0.6505  0.2270
 9503TIP3    H249925   4.205   2.649  12.416  0.9535  2.1477  0.1112
 9504TIP3   OH249926   2.715   2.549   5.428 -0.2452  0.2860  0.3128
 9504TIP3    H149927   2.778   2.532   5.498 -0.9183  0.9974  1.1121
 9504TIP3    H249928   2.761   2.610   5.370  0.2353 -0.1327  0.2394
 9505TIP3   OH249929   6.409   2.648   2.186 -0.1403  0.2537  0.5332
 9505TIP3    H149930   6.327   2.681   2.152  0.1174  1.8547  1.3574
 9505TIP3    H249931   6.411   2.555   2.161 -1.6874  0.4482 -0.3889
 9506TIP3   OH249932   2.363   1.287   5.577  0.3454  0.8791 -0.4338
 9506TIP3    H149933   2.302   1.325   5.639  0.1301 -2.1580  1.4066
 9506TIP3    H249934   2.309   1.259   5.503 -0.2184  0.0365  0.2799
 9507TIP3   OH249935   5.067   2.054   1.397 -0.1858 -0.0528 -0.5784
 9507TIP3    H149936   5.062   2.132   1.451  0.8376 -1.0192  1.0081
 9507TIP3    H249937   5.050   1.982   1.458 -2.5583 -1.0413 -2.2588
 9508TIP3   OH249938   1.190   4.097   5.250 -0.1371 -0.5581  0.6484
 9508TIP3    H149939   1.150   4.104   5.163  1.4644 -1.8028 -0.2313
 9508TIP3    H249940   1.124   4.134   5.309 -1.0891  0.7328 -1.1176
 9509TIP3   OH249941   0.020   4.841  15.189  0.1577  0.4220 -0.6473
 9509TIP3    H149942   0.002   4.927  15.228 -2.5957 -0.5541  0.5116
 9509TIP3    H249943  -0.066   4.809  15.163  0.7064 -2.9309  1.1006
 9510TIP3   OH249944   0.850   3.146   5.653  0.2698  0.2938  0.0752
 9510TIP3    H149945   0.796   3.199   5.711 -0.2906 -0.7602  0.5506
 9510TIP3    H249946   0.925   3.120   5.707 -1.2820 -2.4604  1.1219
 9511TIP3   OH249947   1.072   4.495   2.858 -0.0745  0.2595  0.2212
 9511TIP3    H149948   1.030   4.445   2.788  1.3848 -0.9562  0.1430
 9511TIP3    H249949   1.009   4.562   2.882  0.0805  2.0455 -3.6221
 9512TIP3   OH249950   5.117   0.978   5.602 -0.1115  0.1118  0.0918
 9512TIP3    H149951   5.136   1.026   5.682  0.2945 -0.9570  0.6594
 9512TIP3    H249952   5.108   0.887   5.630 -1.8980 -0.0373 -0.7864
 9513TIP3   OH249953   4.342   5.072   4.283 -0.0610 -0.1667 -0.6723
 9513TIP3    H149954   4.282   5.001   4.257 -2.0632  1.0166  0.4807
 9513TIP3    H249955   4.360   5.119   4.201 -2.2833  0.5552 -0.8202
 9514TIP3   OH249956   1.855   4.591  13.027  0.1658 -0.3124  0.8083
 9514TIP3    H149957   1.797   4.579  12.952  0.7250  0.2556  0.2646
 9514TIP3    H249958   1.811   4.546  13.099 -1.3789  0.8452  0.6434
 9515TIP3   OH249959   3.915   0.596  15.428  0.2266  0.2480  0.0412
 9515TIP3    H149960   3.910   0.684  15.466 -0.9107 -0.6353  2.1283
 9515TIP3    H249961   3.823   0.571  15.415  0.5604 -0.3901 -1.1803
 9516TIP3   OH249962   5.244   3.195  16.085  0.1365 -0.1773 -0.0752
 9516TIP3    H149963   5.171   3.164  16.031  0.2829 -2.5521  0.9636
 9516TIP3    H249964   5.260   3.284  16.055  0.3260 -1.3796 -4.0540
 9517TIP3   OH249965   4.082   5.183   4.231 -0.2224  0.0539  0.2844
 9517TIP3    H149966   4.146   5.177   4.302 -0.7380 -1.0834  0.6767
 9517TIP3    H249967   4.131   5.218   4.157  0.3628  1.1006  1.1502
 9518TIP3   OH249968   4.168   6.799   2.818 -0.2363  0.0789  0.3978
 9518TIP3    H149969   4.220   6.798   2.738  0.3336 -1.4468  0.7447
 9518TIP3    H249970   4.121   6.716   2.818  1.8820 -1.3013  2.8832
 9519TIP3   OH249971   1.364   4.444  12.912  0.0268  0.8308 -0.0508
 9519TIP3    H149972   1.342   4.401  12.830 -0.5187  0.4800  0.2770
 9519TIP3    H249973   1.425   4.384  12.955  0.7196  1.2565 -0.4306
 9520TIP3   OH249974   0.617   5.621   4.106 -0.2900  1.1147 -0.2339
 9520TIP3    H149975   0.701   5.659   4.131  0.0675  0.1990 -0.0176
 9520TIP3    H249976   0.639   5.559   4.036 -0.0194 -2.7707  2.9912
 9521TIP3   OH249977   6.318   5.319   4.698  0.0674  0.7445 -0.6287
 9521TIP3    H149978   6.409   5.304   4.725 -0.0801 -1.0030 -0.9857
 9521TIP3    H249979   6.272   5.340   4.780  0.8992  2.3890 -0.5462
 9522TIP3   OH249980   4.707   4.331   5.108  0.3921  0.0462  0.0067
 9522TIP3    H149981   4.735   4.419   5.085  0.1614 -0.0191 -0.5480
 9522TIP3    H249982   4.723   4.279   5.029  2.3980 -0.8662  0.9370
 9523TIP3   OH249983   6.685   5.543   2.668 -1.0051  0.1944 -0.4066
 9523TIP3    H149984   6.631   5.514   2.741  1.0527 -0.6757  0.8446
 9523TIP3    H249985   6.725   5.624   2.698  1.2635 -1.0907  0.2292
 9524TIP3   OH249986   2.066   0.021   4.331  0.0297  0.2392 -0.0444
 9524TIP3    H149987   2.064   0.114   4.357  0.1391  0.9791 -2.4369
 9524TIP3    H249988   1.976   0.002   4.305 -0.3384 -0.8241  1.8234
 9525TIP3   OH249989   0.307   1.804  15.333  0.4620 -0.9359 -0.3704
 9525TIP3    H149990   0.224   1.792  15.287  0.1324 -0.9116  0.2154
 9525TIP3    H249991   0.343   1.716  15.340  0.2383 -1.0116 -0.1635
 9526TIP3   OH249992   5.666   3.707  14.560  0.0284 -0.5309  0.8779
 9526TIP3    H149993   5.655   3.750  14.645  0.3409 -2.0491  1.7240
 9526TIP3    H249994   5.711   3.625  14.580  3.3631  0.5986 -1.1929
 9527TIP3   OH249995   3.351   0.245   3.393 -0.3914 -0.5531 -0.0365
 9527TIP3    H149996   3.335   0.330   3.353  2.8836  0.1758 -0.1024
 9527TIP3    H249997   3.306   0.183   3.337 -0.8672  0.9262 -1.3715
 9528TIP3   OH249998   1.565   1.934  16.357 -0.3304  0.0512 -0.6298
 9528TIP3    H149999   1.500   1.945  16.288  0.0276  0.7199 -0.8730
 9528TIP3    H250000   1.649   1.945  16.312 -0.0645 -0.4205 -0.2517
 9529TIP3   OH250001   3.013   5.757  12.694  0.3884 -0.1075  0.2503
 9529TIP3    H150002   3.045   5.780  12.606  3.3034  0.0594  1.2415
 9529TIP3    H250003   3.034   5.664  12.703  1.1086  0.1281  1.1307
 9530TIP3   OH250004   1.117   5.112  15.541 -0.0344  0.3119  0.3746
 9530TIP3    H150005   1.193   5.134  15.488 -0.0993 -0.0139  0.1431
 9530TIP3    H250006   1.152   5.097  15.628  0.1579  0.2124  0.2804
 9531TIP3   OH250007   4.091   5.705  14.042 -0.2323 -0.2019  0.5688
 9531TIP3    H150008   4.068   5.626  13.993  0.6395 -0.6835  0.9159
 9531TIP3    H250009   4.007   5.747  14.061 -0.6322 -0.3570 -0.7485
 9532TIP3   OH250010   5.768   6.641   5.198  0.5644 -0.4233  0.0994
 9532TIP3    H150011   5.694   6.684   5.155  0.7098 -0.0472  0.2197
 9532TIP3    H250012   5.830   6.712   5.216  0.6595 -0.6326  0.6146
 9533TIP3   OH250013   2.169   5.356  12.168 -0.3908  0.1591 -0.5292
 9533TIP3    H150014   2.093   5.404  12.198 -1.3062 -1.9859  0.8225
 9533TIP3    H250015   2.154   5.266  12.198  2.1603 -0.5593 -1.1619
 9534TIP3   OH250016   4.252   5.129  10.955  0.0596  0.5729  0.4226
 9534TIP3    H150017   4.256   5.178  10.872 -3.1762  1.5254  0.7045
 9534TIP3    H250018   4.233   5.039  10.928 -0.9815  0.8767  0.0887
 9535TIP3   OH250019   4.963   0.076   5.362  0.0711 -0.4934 -0.7512
 9535TIP3    H150020   4.869   0.093   5.370 -0.1379 -0.8700 -2.1636
 9535TIP3    H250021   5.004   0.157   5.392 -0.7164 -0.1682 -0.5227
 9536TIP3   OH250022   6.320   1.948   5.012  0.4899  0.6154 -0.0064
 9536TIP3    H150023   6.293   1.863   5.045 -4.0628  0.8941 -2.2648
 9536TIP3    H250024   6.322   2.004   5.090  0.4676 -0.8450  1.0924
 9537TIP3   OH250025   5.526   0.586  14.332 -0.1598 -0.0618 -0.3683
 9537TIP3    H150026   5.590   0.586  14.403  0.0943 -0.7199 -0.5887
 9537TIP3    H250027   5.554   0.657  14.274 -1.0046  1.2186  0.7339
 9538TIP3   OH250028   6.234   1.454   2.976 -0.7270 -0.1346 -0.2394
 9538TIP3    H150029   6.200   1.494   3.056  1.0782  0.3058  0.3586
 9538TIP3    H250030   6.169   1.476   2.909 -1.5729  0.7033  0.8186
 9539TIP3   OH250031   1.462   4.645  15.299 -0.1508  0.7340 -0.1285
 9539TIP3    H150032   1.436   4.554  15.311 -0.5710  0.9954  0.9688
 9539TIP3    H250033   1.558   4.642  15.294 -0.1695  0.2291 -0.2370
 9540TIP3   OH250034   4.524   6.526  10.314  0.0070  0.1080  0.6374
 9540TIP3    H150035   4.456   6.464  10.288  0.6303 -0.5019  0.4440
 9540TIP3    H250036   4.483   6.578  10.383 -1.3201  1.0442 -0.7728
 9541TIP3   OH250037   3.501   4.440   4.643  0.1878  0.4880  0.1458
 9541TIP3    H150038   3.513   4.487   4.561  1.1834  1.9443  1.0580
 9541TIP3    H250039   3.454   4.361   4.620  1.2017  0.4437 -1.9396
 9542TIP3   OH250040   3.334   5.138  17.027  0.1270 -0.3969 -0.2762
 9542TIP3    H150041   3.379   5.086  17.094 -0.0232 -0.3303 -0.1212
 9542TIP3    H250042   3.403   5.164  16.967  0.0383 -1.7472 -1.0080
 9543TIP3   OH250043   6.407   0.698  15.699  0.1202 -0.1942 -0.4007
 9543TIP3    H150044   6.481   0.709  15.758  1.1569 -0.0208 -1.6704
 9543TIP3    H250045   6.331   0.724  15.750  1.3009  3.2878 -0.1039
 9544TIP3   OH250046   4.767   2.804  13.890  0.1642 -0.1046 -0.1490
 9544TIP3    H150047   4.755   2.849  13.807 -1.7159 -0.8208 -0.3177
 9544TIP3    H250048   4.679   2.777  13.916  0.6322  0.4852  2.3257
 9545TIP3   OH250049   2.597   3.500  12.066  0.6008 -0.3326  0.4233
 9545TIP3    H150050   2.666   3.492  12.000  0.2095  0.0155 -0.0435
 9545TIP3    H250051   2.532   3.434  12.041 -0.7619  1.4652 -1.0969
 9546TIP3   OH250052   3.216   0.063  11.539  0.2932  0.7180 -0.4933
 9546TIP3    H150053   3.169   0.146  11.529  1.2709  1.2521 -0.7340
 9546TIP3    H250054   3.149   0.002  11.572 -0.2138  1.8304  0.6212
 9547TIP3   OH250055   2.577   4.407  12.129 -0.6160  0.3408 -0.0610
 9547TIP3    H150056   2.585   4.365  12.215 -2.1357 -0.4131 -0.2400
 9547TIP3    H250057   2.625   4.349  12.070 -0.1983  0.4574  0.1627
 9548TIP3   OH250058   4.059   6.515   1.904 -0.2385  0.6765  0.1360
 9548TIP3    H150059   4.153   6.518   1.924 -0.1491 -0.6153  0.0520
 9548TIP3    H250060   4.017   6.524   1.990 -0.0893  2.4018  0.0498
 9549TIP3   OH250061   6.539   4.508   4.381  0.0479  0.7256  0.0380
 9549TIP3    H150062   6.553   4.599   4.354 -0.6083  0.4979 -1.1666
 9549TIP3    H250063   6.619   4.463   4.354  0.8727  1.1186  1.6734
 9550TIP3   OH250064   0.018   1.128   2.528 -0.0980 -0.0968 -0.0756
 9550TIP3    H150065  -0.019   1.145   2.441  0.8411  1.8853 -0.1270
 9550TIP3    H250066   0.073   1.051   2.516  1.9477  1.5386 -1.8688
 9551TIP3   OH250067   4.681   5.394  16.096 -0.6050 -0.4829  0.2319
 9551TIP3    H150068   4.767   5.402  16.055 -1.3233 -0.4307 -1.2958
 9551TIP3    H250069   4.627   5.350  16.031 -2.3196  1.3886  0.3045
 9552TIP3   OH250070   5.797   6.105  12.239 -0.3427  0.2073  0.3964
 9552TIP3    H150071   5.718   6.084  12.189 -0.8636  0.8341  0.9290
 9552TIP3    H250072   5.800   6.039  12.308 -0.2998  0.0712  0.2634
 9553TIP3   OH250073   5.964   4.261   0.016  0.2532 -0.5802 -0.3051
 9553TIP3    H150074   6.015   4.319   0.073 -0.7697  0.8299 -0.7705
 9553TIP3    H250075   6.030   4.217  -0.038  1.0180  2.1999 -1.8434
 9554TIP3   OH250076   0.785   2.014  14.359  0.3144 -0.4683  0.5548
 9554TIP3    H150077   0.819   2.087  14.308  0.2429 -1.2154 -0.6042
 9554TIP3    H250078   0.859   1.984  14.411  0.4598  0.1479  0.7068
 9555TIP3   OH250079   4.704   5.736   3.813 -0.3197  0.0648  0.2219
 9555TIP3    H150080   4.740   5.699   3.732 -1.8228 -1.3313  0.1291
 9555TIP3    H250081   4.652   5.810   3.784 -0.5364 -0.1919 -0.0530
 9556TIP3   OH250082   0.422   3.428  13.459  0.2725 -0.5708  0.5338
 9556TIP3    H150083   0.493   3.424  13.395 -0.4970 -2.4353 -0.2751
 9556TIP3    H250084   0.423   3.519  13.490  1.9835 -0.1537 -0.5971
 9557TIP3   OH250085   6.794   2.354  12.479  0.1059 -0.2055 -0.3104
 9557TIP3    H150086   6.768   2.306  12.558  1.9605 -0.9941 -0.1240
 9557TIP3    H250087   6.773   2.294  12.407  1.0461 -0.7289 -0.1768
 9558TIP3   OH250088   0.202   1.472  13.429  0.1023 -0.1109  0.2212
 9558TIP3    H150089   0.216   1.534  13.358  1.3220 -1.1386 -0.4689
 9558TIP3    H250090   0.113   1.439  13.416  0.1804 -0.0015 -0.5913
 9559TIP3   OH250091   5.896   1.061   4.415 -0.2323  0.1901 -0.0315
 9559TIP3    H150092   5.810   1.018   4.418 -2.8464  4.6497 -1.0348
 9559TIP3    H250093   5.914   1.085   4.506 -0.2757 -0.3475  0.1232
 9560TIP3   OH250094   2.874   0.296   2.789 -0.0011  0.4051  0.2754
 9560TIP3    H150095   2.842   0.321   2.702 -0.6172 -0.8168  0.1291
 9560TIP3    H250096   2.796   0.293   2.844 -0.1783 -2.1809  0.0187
 9561TIP3   OH250097   5.931   5.214  15.981 -0.1810 -0.0521 -0.8104
 9561TIP3    H150098   5.880   5.138  16.006  0.1777 -0.6633 -1.8468
 9561TIP3    H250099   5.945   5.203  15.887 -0.3271  1.4235 -1.0211
 9562TIP3   OH250100   0.435   0.470  15.719  0.1367 -0.1999  0.7243
 9562TIP3    H150101   0.411   0.431  15.635 -1.7609  0.9921  0.6425
 9562TIP3    H250102   0.399   0.411  15.784 -2.3147  1.0413  0.6040
 9563TIP3   OH250103   5.689   6.518   0.723 -0.2474 -0.0932  0.3573
 9563TIP3    H150104   5.604   6.562   0.731 -0.5561 -0.7276  0.6175
 9563TIP3    H250105   5.750   6.574   0.771 -0.6644 -0.0226  0.8066
 9564TIP3   OH250106   3.003   6.200  12.906  0.6214 -0.2771  0.3360
 9564TIP3    H150107   2.949   6.261  12.955  1.4342  0.6130  0.1501
 9564TIP3    H250108   3.048   6.254  12.841  1.2190 -1.0946  0.0441
 9565TIP3   OH250109   2.220   6.721  11.799 -0.3754 -0.4778  0.3525
 9565TIP3    H150110   2.244   6.737  11.890 -0.7104  0.8165  0.2283
 9565TIP3    H250111   2.301   6.740  11.750 -0.7073  0.7017  0.2274
 9566TIP3   OH250112   5.054   5.740  14.977  0.0044 -0.0845 -0.2973
 9566TIP3    H150113   5.137   5.776  15.009 -0.1580  0.2053 -0.1959
 9566TIP3    H250114   5.078   5.657  14.937  0.6038  0.8217 -1.9004
 9567TIP3   OH250115   3.566   3.980  11.050  0.5677 -0.0137  0.1737
 9567TIP3    H150116   3.486   3.938  11.016 -0.3471  1.7557  0.0184
 9567TIP3    H250117   3.546   3.997  11.142  1.3573 -0.8781  0.5145
 9568TIP3   OH250118   0.913   4.403  11.535 -0.9127  0.0927 -0.4277
 9568TIP3    H150119   0.839   4.342  11.532 -1.1890  0.2504  1.4726
 9568TIP3    H250120   0.990   4.350  11.516 -1.3533 -0.4018 -0.8662
 9569TIP3   OH250121   3.130   5.779   4.857 -0.4716  0.1306 -0.3071
 9569TIP3    H150122   3.066   5.845   4.831 -0.5945  0.1553  0.0601
 9569TIP3    H250123   3.081   5.697   4.859 -0.8248  0.3622  1.3207
 9570TIP3   OH250124   3.624   2.107  15.414 -0.4430  0.1856 -0.4450
 9570TIP3    H150125   3.696   2.133  15.356  0.7152 -1.0165  0.3939
 9570TIP3    H250126   3.578   2.038  15.366 -0.0687 -0.1365 -0.3501
 9571TIP3   OH250127   5.101   2.264  16.272 -0.0122  0.1004 -0.5353
 9571TIP3    H150128   5.176   2.231  16.320 -0.8627  0.0194  0.7750
 9571TIP3    H250129   5.129   2.350  16.241  0.8474 -0.2082 -0.6567
 9572TIP3   OH250130   4.937   6.249  15.023  0.2931 -0.2690  0.0654
 9572TIP3    H150131   5.029   6.251  14.996  0.1826  0.4407 -0.2761
 9572TIP3    H250132   4.919   6.157  15.039  0.5675 -0.6524 -1.6168
 9573TIP3   OH250133   0.542   3.247  12.833 -0.1281 -0.7852 -0.2640
 9573TIP3    H150134   0.571   3.157  12.822 -0.2293 -1.2604  2.5360
 9573TIP3    H250135   0.618   3.292  12.870 -0.7090 -0.2720  0.3348
 9574TIP3   OH250136   0.460   0.713   3.937 -0.5417  0.4009 -0.1602
 9574TIP3    H150137   0.475   0.627   3.897  0.7234  0.6994 -0.3652
 9574TIP3    H250138   0.514   0.712   4.016 -2.6878 -0.0247  1.4230
 9575TIP3   OH250139   3.678   3.305  16.993  0.0985 -0.6940 -0.4741
 9575TIP3    H150140   3.758   3.316  16.941  1.3164 -1.4313  1.1503
 9575TIP3    H250141   3.707   3.312  17.084 -1.6497 -1.2335  0.1716
 9576TIP3   OH250142   3.342   2.445   0.170  0.2515 -0.6673  0.5247
 9576TIP3    H150143   3.308   2.526   0.208  1.6798  0.4988 -0.5787
 9576TIP3    H250144   3.265   2.390   0.159 -1.3347  1.7907 -1.7124
 9577TIP3   OH250145   4.221   1.404  12.898  0.0008  0.1957  0.0921
 9577TIP3    H150146   4.233   1.364  12.984 -2.0380 -3.6249 -1.1560
 9577TIP3    H250147   4.127   1.423  12.894  0.1984  1.0033 -1.0543
 9578TIP3   OH250148   4.322   3.284  12.643  0.4170 -0.2852  0.2326
 9578TIP3    H150149   4.360   3.210  12.595  0.2338 -0.5150  0.4442
 9578TIP3    H250150   4.307   3.351  12.576 -0.1008 -0.7107 -0.0739
 9579TIP3   OH250151   4.563   1.913  14.309 -0.4640 -0.0015  0.3410
 9579TIP3    H150152   4.561   1.862  14.389 -2.1847 -0.5743 -0.0288
 9579TIP3    H250153   4.586   1.850  14.240 -0.8342  0.0946  0.1280
 9580TIP3   OH250154   1.666   0.521  11.960 -0.1032 -0.1862 -0.2564
 9580TIP3    H150155   1.612   0.484  12.030 -1.5990  1.4675 -0.4665
 9580TIP3    H250156   1.647   0.466  11.884  0.2458 -0.9703  0.2078
 9581TIP3   OH250157   3.094   6.379  14.417 -0.2459 -0.3436 -0.1088
 9581TIP3    H150158   3.076   6.307  14.478 -2.3738 -0.4600 -0.8200
 9581TIP3    H250159   3.008   6.407  14.386  0.7033  0.5244 -2.1437
 9582TIP3   OH250160   0.338   1.025   2.297  0.4056 -0.7962  0.1542
 9582TIP3    H150161   0.346   1.117   2.321 -0.1337 -0.7311  0.0956
 9582TIP3    H250162   0.369   0.977   2.374  0.0706 -0.5719  0.4343
 9583TIP3   OH250163   2.473   1.583  15.591 -0.2159  0.6912  0.2807
 9583TIP3    H150164   2.509   1.503  15.553 -1.1547  0.5167 -0.2560
 9583TIP3    H250165   2.407   1.612  15.529 -1.8322  0.3821  1.7828
 9584TIP3   OH250166   5.152   3.512  16.230 -0.3737  0.1732 -0.1784
 9584TIP3    H150167   5.146   3.493  16.137  1.8134  1.3621 -0.6382
 9584TIP3    H250168   5.116   3.435  16.273 -1.3101 -0.4537 -1.9810
 9585TIP3   OH250169   2.998   3.310   5.178 -0.5157  0.1944 -0.0121
 9585TIP3    H150170   2.996   3.351   5.264 -2.6688  0.7494 -0.2550
 9585TIP3    H250171   3.043   3.227   5.192  1.1921  1.2446  1.1326
 9586TIP3   OH250172   0.368   3.029   4.208 -0.0232 -0.2902  0.1825
 9586TIP3    H150173   0.341   2.941   4.234  1.9324 -1.3729 -1.1747
 9586TIP3    H250174   0.454   3.016   4.169  0.3851  2.2815  0.1069
 9587TIP3   OH250175   1.003   5.343  15.876  0.3176  0.0239 -0.2066
 9587TIP3    H150176   0.993   5.417  15.936 -0.2536  0.1060 -0.3962
 9587TIP3    H250177   0.935   5.281  15.903  1.3199 -0.8049  0.4818
 9588TIP3   OH250178   6.373   4.684  12.366  0.3250 -0.4659 -0.2778
 9588TIP3    H150179   6.346   4.716  12.280 -0.5612 -1.1518 -0.2795
 9588TIP3    H250180   6.411   4.598  12.349 -0.1516 -0.7462  0.0419
 9589TIP3   OH250181   6.264   0.712  12.475  0.0998  0.6557  0.6188
 9589TIP3    H150182   6.251   0.639  12.535  0.2638 -0.4774 -0.6718
 9589TIP3    H250183   6.305   0.780  12.528  2.0731 -1.0184  1.3575
 9590TIP3   OH250184   4.149   1.777  12.751  0.2053 -0.4145  0.0896
 9590TIP3    H150185   4.103   1.753  12.831  0.0814 -1.9487 -0.4134
 9590TIP3    H250186   4.183   1.865  12.768  2.0721 -1.5126  2.6675
 9591TIP3   OH250187   3.594   2.439   1.372 -0.0838 -0.4296 -0.0358
 9591TIP3    H150188   3.613   2.412   1.462 -0.8711  0.8112  0.5275
 9591TIP3    H250189   3.501   2.462   1.373  0.1299  0.5432 -0.9151
 9592TIP3   OH250190   3.252   5.271  12.453 -0.5572  0.3524  0.2774
 9592TIP3    H150191   3.261   5.366  12.442 -0.8901  0.4824  1.0791
 9592TIP3    H250192   3.341   5.241  12.474 -0.5193  0.5360  0.3832
 9593TIP3   OH250193   5.986   5.241  10.796 -0.7039  0.6123 -0.0957
 9593TIP3    H150194   5.902   5.226  10.841 -0.2849 -0.4170  0.3630
 9593TIP3    H250195   5.992   5.170  10.732  0.1614  0.2583  0.3774
 9594TIP3   OH250196   2.790   0.645  13.217  0.1759 -0.0332 -0.3033
 9594TIP3    H150197   2.785   0.728  13.264  2.2036  0.1350 -0.3143
 9594TIP3    H250198   2.701   0.610  13.221 -0.7981  2.2461 -0.5289
 9595TIP3   OH250199   4.923   0.977   3.170  0.6243 -0.3918  0.3585
 9595TIP3    H150200   4.923   0.935   3.256  0.2515 -0.4836  0.3160
 9595TIP3    H250201   5.010   1.016   3.162  1.4962 -2.3544 -0.2042
 9596TIP3   OH250202   4.580   3.066   1.603 -0.3636  0.3998 -0.2074
 9596TIP3    H150203   4.557   2.975   1.586 -1.6968  0.5964  0.3967
 9596TIP3    H250204   4.501   3.115   1.580 -0.2025  1.2319  0.9221
 9597TIP3   OH250205   2.768   2.708  16.150  0.3450 -0.5848 -0.0290
 9597TIP3    H150206   2.757   2.616  16.125 -1.2885 -0.7905  1.2588
 9597TIP3    H250207   2.825   2.706  16.227  0.7276 -0.4688 -0.3079
 9598TIP3   OH250208   2.969   0.443   6.673  0.3294 -0.0546 -0.2670
 9598TIP3    H150209   2.912   0.493   6.614 -1.6096 -1.4898  0.2939
 9598TIP3    H250210   2.940   0.352   6.663  1.1489 -0.5607  1.5966
 9599TIP3   OH250211   0.803   4.078  12.793  0.3984 -0.6068  0.1455
 9599TIP3    H150212   0.884   4.069  12.742  0.7316  1.0870  0.3119
 9599TIP3    H250213   0.756   4.151  12.752 -0.1391 -0.3303  1.1984
 9600TIP3   OH250214   3.904   4.809  11.294  0.6331  0.4747 -0.0568
 9600TIP3    H150215   3.967   4.789  11.362  0.4498  0.7918  0.2124
 9600TIP3    H250216   3.928   4.897  11.264 -0.0384  0.8521  0.4687
 9601TIP3   OH250217   5.406   2.518   4.635 -0.0295 -0.3898 -0.0357
 9601TIP3    H150218   5.346   2.445   4.619  0.3108 -0.4505 -1.0843
 9601TIP3    H250219   5.445   2.536   4.550  0.9256  0.1080  0.4955
 9602TIP3   OH250220   0.094   1.990  13.683  0.0224  0.0014  0.4172
 9602TIP3    H150221   0.121   1.900  13.664  0.6156  0.2533  0.0447
 9602TIP3    H250222   0.133   2.042  13.613 -2.7954  0.1987 -1.1249
 9603TIP3   OH250223   5.098   4.375  12.653  0.6738  0.3020 -0.1304
 9603TIP3    H150224   5.071   4.287  12.679  1.8665 -0.1422 -0.3373
 9603TIP3    H250225   5.193   4.374  12.663  0.9972  0.7236 -2.6143
 9604TIP3   OH250226   6.681   5.532   4.919  0.0229 -0.2861 -0.3414
 9604TIP3    H150227   6.717   5.468   4.980 -1.2735 -1.1231 -0.4242
 9604TIP3    H250228   6.758   5.581   4.889  0.7286  0.0283  1.7804
 9605TIP3   OH250229   4.939   3.070   4.220  0.1389 -0.4325 -0.1191
 9605TIP3    H150230   4.979   2.985   4.200 -0.3593 -0.6050 -0.4238
 9605TIP3    H250231   4.973   3.130   4.154 -0.7860 -0.7870 -0.9455
 9606TIP3   OH250232   2.633   0.336   5.253  0.7383 -0.1566  0.3758
 9606TIP3    H150233   2.680   0.281   5.190  1.2889  2.4297 -1.6413
 9606TIP3    H250234   2.572   0.276   5.296  0.7818 -2.2192 -2.1610
 9607TIP3   OH250235   6.486   5.853   1.477  0.0512 -0.4213 -0.4324
 9607TIP3    H150236   6.521   5.783   1.423  0.5659  1.0614 -2.1429
 9607TIP3    H250237   6.399   5.870   1.440  0.0268  0.0033 -0.1893
 9608TIP3   OH250238   2.750   6.134  14.097 -0.1612 -0.3173 -0.2252
 9608TIP3    H150239   2.761   6.186  14.018 -2.2926 -1.1922 -1.1589
 9608TIP3    H250240   2.755   6.043  14.067 -2.2499 -0.6871  0.3699
 9609TIP3   OH250241   5.233   0.866   1.686  0.1562 -0.0547  0.3343
 9609TIP3    H150242   5.304   0.815   1.726 -0.0366  0.3064  1.1717
 9609TIP3    H250243   5.175   0.888   1.759  0.5447  1.8699  0.1280
 9610TIP3   OH250244   0.445   1.509  11.146  0.1983 -0.2689  0.1430
 9610TIP3    H150245   0.480   1.461  11.221  0.8827 -0.4151 -0.2623
 9610TIP3    H250246   0.493   1.474  11.070  2.3802  2.5623  0.0472
 9611TIP3   OH250247   0.903   3.003   1.377  0.3203 -0.6548 -0.0488
 9611TIP3    H150248   0.820   3.040   1.407  0.7187 -0.4545  0.8410
 9611TIP3    H250249   0.962   3.077   1.372  0.7161 -0.9390  0.2956
 9612TIP3   OH250250   1.738   4.855  15.828 -0.1515  0.4881  0.0118
 9612TIP3    H150251   1.814   4.878  15.775 -0.3889  0.3181 -0.4082
 9612TIP3    H250252   1.670   4.833  15.765  0.3833 -2.5355  0.3304
 9613TIP3   OH250253   1.835   0.232   0.559  1.0950 -0.0428 -0.1659
 9613TIP3    H150254   1.798   0.319   0.544  1.0525  0.1750  1.0770
 9613TIP3    H250255   1.928   0.248   0.577  1.0912 -0.2534  0.0519
 9614TIP3   OH250256   4.289   5.918  16.139 -0.7954 -0.4442 -0.7468
 9614TIP3    H150257   4.348   5.843  16.136 -0.2638 -0.2503  1.9967
 9614TIP3    H250258   4.344   5.992  16.115 -0.2724 -0.4668  0.3129
 9615TIP3   OH250259   0.534   2.146   2.073  0.2047  0.0443  0.2374
 9615TIP3    H150260   0.590   2.101   2.136 -0.9128 -0.7603  0.6866
 9615TIP3    H250261   0.445   2.132   2.105 -0.3154  0.6404 -0.8781
 9616TIP3   OH250262   4.728   2.376  14.299 -0.0833  0.1422  0.3755
 9616TIP3    H150263   4.656   2.351  14.356 -1.0231  1.5694 -0.1127
 9616TIP3    H250264   4.703   2.342  14.213  0.5301 -0.5846  0.4758
 9617TIP3   OH250265   4.276   5.547   5.652 -0.4637  0.2641  0.0204
 9617TIP3    H150266   4.269   5.552   5.747 -0.7295 -0.2939  0.0369
 9617TIP3    H250267   4.235   5.463   5.630  0.7629 -0.2338 -0.4598
 9618TIP3   OH250268   6.414   5.933  16.738 -0.2826 -0.1541  0.1579
 9618TIP3    H150269   6.451   5.861  16.787 -0.4993  0.6728  1.5937
 9618TIP3    H250270   6.341   5.963  16.791 -2.6244 -1.2446 -2.2030
 9619TIP3   OH250271   6.565   4.237  15.536 -0.0098  0.1579 -0.3605
 9619TIP3    H150272   6.648   4.206  15.501 -0.3924 -0.5451 -0.6841
 9619TIP3    H250273   6.579   4.243  15.631 -0.1414 -1.8160 -0.1790
 9620TIP3   OH250274   1.453   3.231  16.985 -0.4493 -0.5003  0.6752
 9620TIP3    H150275   1.400   3.267  17.056 -0.1387  0.6248  0.3560
 9620TIP3    H250276   1.390   3.210  16.916 -0.4928  1.0612  0.1994
 9621TIP3   OH250277   4.276   0.561   4.783  0.8355  0.0235  0.4561
 9621TIP3    H150278   4.314   0.624   4.722  0.2174  1.7006  1.7174
 9621TIP3    H250279   4.351   0.511   4.816  1.0771 -1.7065 -2.3957
 9622TIP3   OH250280   0.865   5.834  16.838 -0.2938 -0.3708 -0.0452
 9622TIP3    H150281   0.772   5.820  16.858 -0.5229  0.4957 -0.4260
 9622TIP3    H250282   0.892   5.755  16.791 -0.7583 -0.7474  0.3052
 9623TIP3   OH250283   5.350   2.012   0.229 -0.0893  0.4785  0.2189
 9623TIP3    H150284   5.398   2.092   0.207 -0.6116  0.3573 -1.5068
 9623TIP3    H250285   5.365   1.954   0.155 -2.0841  0.0778  0.0769
 9624TIP3   OH250286   6.065   6.433   3.048 -0.6516 -0.7397  0.1825
 9624TIP3    H150287   5.994   6.427   3.112 -0.3119  0.9340  0.7559
 9624TIP3    H250288   6.027   6.477   2.973 -0.4943 -0.7939  0.0705
 9625TIP3   OH250289   2.107   2.883   1.059  0.3163 -0.4241  0.2846
 9625TIP3    H150290   2.062   2.892   1.143 -1.4237  1.7072 -0.7446
 9625TIP3    H250291   2.042   2.913   0.994  1.9677 -0.8991 -1.6942
 9626TIP3   OH250292   4.259   6.039   2.255 -0.3431 -0.5587  0.0590
 9626TIP3    H150293   4.266   6.104   2.185 -0.7640  0.9167  1.3280
 9626TIP3    H250294   4.256   6.091   2.335 -2.9246 -2.0155  1.0145
 9627TIP3   OH250295   6.534   5.287   2.479  0.4149 -0.3303  1.1059
 9627TIP3    H150296   6.616   5.244   2.455  1.3392  1.1498  1.4752
 9627TIP3    H250297   6.516   5.256   2.568  1.5935  0.7266  1.7442
 9628TIP3   OH250298   5.076   2.177   1.128  0.0523 -0.6015 -0.1551
 9628TIP3    H150299   4.986   2.189   1.097 -0.4244  0.5883  1.5235
 9628TIP3    H250300   5.066   2.145   1.218  1.3096 -0.8357 -0.0844
 9629TIP3   OH250301   4.240   3.426  12.431 -0.5143  0.4371  0.4812
 9629TIP3    H150302   4.207   3.476  12.356 -1.2047 -1.0451 -0.2298
 9629TIP3    H250303   4.170   3.365  12.452  0.4999 -0.5809  1.0065
 9630TIP3   OH250304   2.458   5.727   6.756 -0.3885 -0.2637  0.5070
 9630TIP3    H150305   2.466   5.737   6.661 -1.1686  3.0105  0.6782
 9630TIP3    H250306   2.409   5.645   6.768 -0.6276 -0.5314 -1.8925
 9631TIP3   OH250307   0.966   4.202   3.866  0.3249 -0.1672  0.0087
 9631TIP3    H150308   0.934   4.212   3.777  1.7789  1.2729 -0.4115
 9631TIP3    H250309   1.054   4.164   3.856  0.8822  0.8676  0.7376
 9632TIP3   OH250310   6.173   4.969   0.328 -0.4694 -0.3029  1.3464
 9632TIP3    H150311   6.209   5.056   0.341 -1.8400  0.6819 -0.8140
 9632TIP3    H250312   6.187   4.951   0.235 -0.6897 -2.1761  1.6376
 9633TIP3   OH250313   0.132   4.582  16.753 -0.0896  0.2363 -0.3663
 9633TIP3    H150314   0.140   4.623  16.667  1.5007 -1.2467 -0.9612
 9633TIP3    H250315   0.160   4.492  16.740 -1.7931 -0.5919  1.2969
 9634TIP3   OH250316   5.766   3.085  16.174  0.3370 -0.2976  0.1642
 9634TIP3    H150317   5.694   3.100  16.113 -0.4967  0.0276  1.1900
 9634TIP3    H250318   5.805   3.002  16.146 -1.6040 -1.4286  0.6840
 9635TIP3   OH250319   2.406   2.493  16.379  0.4756 -0.0631  0.0685
 9635TIP3    H150320   2.349   2.565  16.352 -0.2823  0.3768  2.6538
 9635TIP3    H250321   2.377   2.419  16.326  0.0441  1.0545 -1.3335
 9636TIP3   OH250322   1.629   5.635   4.017 -0.1747 -0.0124 -0.2915
 9636TIP3    H150323   1.538   5.617   4.041  0.2065 -0.1646  1.0824
 9636TIP3    H250324   1.650   5.718   4.060  0.8371 -0.8054  0.8079
 9637TIP3   OH250325   2.546   4.480  14.341 -0.2733 -0.2462 -0.0447
 9637TIP3    H150326   2.525   4.461  14.432 -1.9271 -0.6781 -0.4968
 9637TIP3    H250327   2.533   4.574  14.332  1.2573  0.0467  0.4820
 9638TIP3   OH250328   0.792   3.204  11.796 -0.0495 -0.1980  0.5335
 9638TIP3    H150329   0.820   3.276  11.852 -0.3140  0.3468 -0.0339
 9638TIP3    H250330   0.852   3.206  11.722 -0.6827  0.0671  0.0237
 9639TIP3   OH250331   1.818   0.680  15.043 -0.3400  0.1937 -0.1079
 9639TIP3    H150332   1.785   0.598  15.080 -0.9248  0.1154 -0.7736
 9639TIP3    H250333   1.854   0.728  15.118 -0.4934 -0.4327  0.3741
 9640TIP3   OH250334   5.727   4.719  12.263  0.1513  0.8427  0.6655
 9640TIP3    H150335   5.697   4.665  12.336  0.0273  1.7146  1.2580
 9640TIP3    H250336   5.763   4.798  12.303  1.2830  0.7658 -0.1439
 9641TIP3   OH250337   0.241   2.044   6.234 -0.1098  0.2287 -0.6030
 9641TIP3    H150338   0.257   2.134   6.260  0.6317 -0.5956  2.1151
 9641TIP3    H250339   0.327   2.002   6.238 -0.3941 -0.5839 -2.1175
 9642TIP3   OH250340   5.205   0.177  12.619 -0.7648  0.1092 -0.1801
 9642TIP3    H150341   5.170   0.231  12.690 -0.0007  0.5334 -0.1164
 9642TIP3    H250342   5.132   0.120  12.594 -0.4255 -1.6081  2.4242
 9643TIP3   OH250343   4.402   3.502   3.405  0.2575  0.6204 -0.0398
 9643TIP3    H150344   4.326   3.529   3.353 -1.4807 -0.1471  1.9558
 9643TIP3    H250345   4.455   3.449   3.345 -1.5824 -0.1099 -1.1056
 9644TIP3   OH250346   3.954   0.113  14.727 -0.4268 -0.0498  0.2067
 9644TIP3    H150347   4.034   0.155  14.696  0.8285 -3.3701 -1.6414
 9644TIP3    H250348   3.900   0.104  14.648 -0.7215 -1.5550  0.5515
 9645TIP3   OH250349   0.865   1.674   1.906 -0.2375 -0.2044  0.1578
 9645TIP3    H150350   0.921   1.751   1.895 -0.3137  0.1005  1.6794
 9645TIP3    H250351   0.808   1.697   1.979 -0.9348 -1.3305 -0.0192
 9646TIP3   OH250352   1.220   6.095   2.355  0.3895 -0.4228  0.0946
 9646TIP3    H150353   1.157   6.141   2.412 -0.4906 -1.3273 -0.1168
 9646TIP3    H250354   1.287   6.062   2.415  1.2189  1.3854  0.2155
 9647TIP3   OH250355   1.114   1.959  13.893  0.5116 -0.0250  0.7806
 9647TIP3    H150356   1.159   2.030  13.847 -0.6992  0.0961 -0.2432
 9647TIP3    H250357   1.104   1.992  13.983  0.2429  0.9771  0.3999
 9648TIP3   OH250358   3.053   5.924  10.970 -0.5531  0.1882  0.0814
 9648TIP3    H150359   3.031   5.987  10.901  0.8973  2.2205  1.3465
 9648TIP3    H250360   3.146   5.905  10.957 -1.1972 -2.8114 -1.0269
 9649TIP3   OH250361   4.826   3.420   1.910  0.4469 -0.0173 -0.3715
 9649TIP3    H150362   4.783   3.337   1.928 -1.0424  0.8803  0.3750
 9649TIP3    H250363   4.920   3.400   1.914  0.1536 -1.9357 -1.6228
 9650TIP3   OH250364   2.273   5.659  12.745  0.1234  0.2228 -0.1024
 9650TIP3    H150365   2.351   5.715  12.752  1.2251 -1.2751  0.2393
 9650TIP3    H250366   2.245   5.669  12.654  0.9102  0.5653 -0.3194
 9651TIP3   OH250367   3.452   1.081  12.484  0.1649 -0.7830  0.6414
 9651TIP3    H150368   3.413   0.997  12.460 -0.8180 -0.8138  2.1870
 9651TIP3    H250369   3.470   1.073  12.578  0.3451  0.6145  0.7527
 9652TIP3   OH250370   4.661   2.736  15.487 -0.6892 -0.4691  0.2125
 9652TIP3    H150371   4.630   2.826  15.499 -0.4509 -0.1557 -1.3464
 9652TIP3    H250372   4.645   2.694  15.572 -3.4135  0.2598  0.1518
 9653TIP3   OH250373   0.449   2.622  15.736 -0.4856  0.0301  0.3275
 9653TIP3    H150374   0.452   2.649  15.645 -0.2717  1.2762  0.6832
 9653TIP3    H250375   0.355   2.618  15.757 -0.5607  2.4739  0.7788
 9654TIP3   OH250376   6.672   4.722   5.665  0.2696  0.3834 -0.0056
 9654TIP3    H150377   6.707   4.810   5.680  0.6411  0.0807  0.9457
 9654TIP3    H250378   6.625   4.730   5.582  2.7262  0.7445 -1.4591
 9655TIP3   OH250379   3.574   3.379   0.598 -0.6496  0.1948  1.0710
 9655TIP3    H150380   3.555   3.472   0.615 -1.4506  0.4127 -0.6959
 9655TIP3    H250381   3.497   3.333   0.632 -0.4102  0.2032  1.6350
 9656TIP3   OH250382   1.714   0.032  15.395  0.3797  0.1576  0.1448
 9656TIP3    H150383   1.721   0.040  15.491 -1.2773  0.2793  0.2814
 9656TIP3    H250384   1.705  -0.061  15.379  2.0785 -0.0032 -0.0349
 9657TIP3   OH250385   3.984   6.646  14.466 -0.3525 -1.1738 -0.4454
 9657TIP3    H150386   3.927   6.722  14.453  2.7552  1.7179  1.2226
 9657TIP3    H250387   4.023   6.631  14.380  0.1363  0.2023 -0.4945
 9658TIP3   OH250388   2.424   2.073  16.513 -0.2788  0.8733 -0.6577
 9658TIP3    H150389   2.402   2.106  16.600  0.4214 -0.3693  0.0171
 9658TIP3    H250390   2.516   2.097  16.501  0.0894 -0.3291 -0.3672
 9659TIP3   OH250391   6.485   2.846   5.462 -0.3567 -0.4943  0.4474
 9659TIP3    H150392   6.489   2.805   5.548 -0.5022 -1.3836  0.0464
 9659TIP3    H250393   6.446   2.932   5.478 -1.4480 -1.0933  1.1235
 9660TIP3   OH250394   0.426   0.296   0.946 -0.6986 -0.3196 -0.4374
 9660TIP3    H150395   0.335   0.313   0.920 -0.9257  1.0012  1.0084
 9660TIP3    H250396   0.448   0.370   1.002  0.6259 -1.5870  0.7993
 9661TIP3   OH250397   3.906   6.792   5.521 -0.4987  0.0481  0.6519
 9661TIP3    H150398   3.869   6.753   5.442  2.1700  0.2965 -0.8517
 9661TIP3    H250399   3.870   6.881   5.523  1.0900  0.8180 -1.6413
 9662TIP3   OH250400   0.590   1.133  15.692  0.0702 -0.0641  0.6532
 9662TIP3    H150401   0.609   1.061  15.633 -0.5303 -0.5244  1.0084
 9662TIP3    H250402   0.635   1.111  15.774  2.0669  1.2405 -0.0141
 9663TIP3   OH250403   5.595   5.660  11.134  0.2401 -0.1519 -0.1638
 9663TIP3    H150404   5.605   5.566  11.120 -1.0519 -0.2067 -0.8505
 9663TIP3    H250405   5.657   5.700  11.073  1.6103 -0.5378  0.9064
 9664TIP3   OH250406   2.871   6.483   2.809  0.1094 -0.2347  0.2259
 9664TIP3    H150407   2.811   6.415   2.842  1.5537 -1.1794  0.9875
 9664TIP3    H250408   2.857   6.557   2.868  0.4226 -0.8128  1.0416
 9665TIP3   OH250409   4.620   4.666   4.262 -0.3780 -0.1682 -0.0061
 9665TIP3    H150410   4.681   4.642   4.192 -0.5833 -2.0060  0.3913
 9665TIP3    H250411   4.590   4.582   4.297 -2.5214  0.6960  0.3617
 9666TIP3   OH250412   2.279   2.719   6.441  0.1728  0.4205  0.0756
 9666TIP3    H150413   2.283   2.813   6.462 -3.0084  0.5761  0.4771
 9666TIP3    H250414   2.189   2.705   6.411  0.9564 -2.2792 -1.3359
 9667TIP3   OH250415   4.556   2.902   5.929  0.7237 -0.2937 -0.5412
 9667TIP3    H150416   4.652   2.907   5.933  0.7930  0.1227 -2.2180
 9667TIP3    H250417   4.527   2.993   5.938  0.4999 -0.3774 -0.4223
 9668TIP3   OH250418   0.280   5.309   0.034 -0.0271  0.0991 -0.0341
 9668TIP3    H150419   0.352   5.353  -0.010 -1.9291  1.8621 -1.6518
 9668TIP3    H250420   0.232   5.379   0.079 -0.1594 -1.1715  1.9270
 9669TIP3   OH250421   4.047   2.497  14.172  0.1210  0.0343 -0.1555
 9669TIP3    H150422   3.999   2.579  14.154  1.8270  0.9217 -0.9234
 9669TIP3    H250423   4.101   2.517  14.248 -1.5032 -1.3414  1.4532
 9670TIP3   OH250424   0.873   5.808   3.167  0.4529  0.1601 -0.2301
 9670TIP3    H150425   0.969   5.808   3.169  0.4580 -0.0199 -0.4734
 9670TIP3    H250426   0.848   5.835   3.255  0.7262  0.9598 -0.3875
 9671TIP3   OH250427   2.540   2.464  13.829 -0.6953 -0.3164  0.2465
 9671TIP3    H150428   2.635   2.454  13.818 -0.5912  1.3585 -0.6893
 9671TIP3    H250429   2.521   2.421  13.912  1.0446  0.1613  0.9334
 9672TIP3   OH250430   0.066   1.030  12.006 -0.3443  0.9905  0.1166
 9672TIP3    H150431   0.001   1.077  12.059  0.0597  1.4628  0.2003
 9672TIP3    H250432   0.055   0.938  12.030 -1.8974  0.8803 -0.8305
 9673TIP3   OH250433   3.940   1.289  15.865  0.5833  0.2972  0.4064
 9673TIP3    H150434   3.959   1.338  15.945 -1.0784  2.1151 -0.2266
 9673TIP3    H250435   3.984   1.338  15.796  0.7700 -0.3976  0.0255
 9674TIP3   OH250436   4.040   4.156   1.447  0.1113 -0.7105  0.5287
 9674TIP3    H150437   4.005   4.086   1.392 -0.8207 -0.5427  0.8916
 9674TIP3    H250438   4.029   4.123   1.537 -2.0505  0.6306  0.8165
 9675TIP3   OH250439   1.499   1.096  14.579  0.1289  0.4816  0.3942
 9675TIP3    H150440   1.584   1.068  14.548 -0.1503 -0.3347  0.3293
 9675TIP3    H250441   1.471   1.164  14.518  0.3344  0.1097 -0.1154
 9676TIP3   OH250442   2.210   1.475   2.085 -0.2844 -0.1826  0.2753
 9676TIP3    H150443   2.202   1.566   2.054  0.7109 -0.7352 -1.7716
 9676TIP3    H250444   2.286   1.476   2.143 -1.1719  0.5535  1.4748
 9677TIP3   OH250445   3.823   2.028   3.443  0.7144 -0.5971  0.2668
 9677TIP3    H150446   3.870   1.959   3.397  1.5226  0.0470  0.0919
 9677TIP3    H250447   3.862   2.030   3.530  1.6257  0.4884 -0.1374
 9678TIP3   OH250448   4.592   3.453   1.046  0.0615 -0.0979  0.4057
 9678TIP3    H150449   4.663   3.391   1.029  0.0502 -0.9093  2.9488
 9678TIP3    H250450   4.587   3.505   0.966  2.1372 -1.3477 -0.6385
 9679TIP3   OH250451   5.800   3.438   0.754  0.3466  0.5384  0.7290
 9679TIP3    H150452   5.821   3.513   0.698  0.8194  1.9009  2.6210
 9679TIP3    H250453   5.713   3.457   0.788  0.4813  0.2549  1.2496
 9680TIP3   OH250454   5.948   4.993   3.012 -0.0325 -0.2457  0.2663
 9680TIP3    H150455   5.981   4.914   3.055 -2.3330  0.1616  3.0860
 9680TIP3    H250456   5.868   4.966   2.968 -0.8358  0.4857  1.2523
 9681TIP3   OH250457   4.628   4.896  14.522 -0.4218  0.2643  0.4081
 9681TIP3    H150458   4.533   4.907  14.514 -0.3396  1.0889  0.5177
 9681TIP3    H250459   4.657   4.970  14.576  0.1594 -0.5263  1.2142
 9682TIP3   OH250460   6.764   5.431   0.094  0.1794  0.3337  0.6615
 9682TIP3    H150461   6.796   5.345   0.069 -1.6066 -0.5896  1.3535
 9682TIP3    H250462   6.840   5.489   0.084  1.3210 -1.2314 -0.1671
 9683TIP3   OH250463   3.827   0.060   2.123 -0.2339 -0.5650 -0.0191
 9683TIP3    H150464   3.832  -0.012   2.186 -0.4182 -0.2343  0.3775
 9683TIP3    H250465   3.735   0.064   2.098 -1.1719  2.2768  3.2381
 9684TIP3   OH250466   4.548   3.660   2.913  0.2051 -0.1280  0.1120
 9684TIP3    H150467   4.517   3.592   2.853 -3.9707 -0.2104  1.9767
 9684TIP3    H250468   4.615   3.617   2.965  1.0534 -1.2596 -1.7896
 9685TIP3   OH250469   1.844   3.648   1.618 -0.0518  0.1689 -0.0054
 9685TIP3    H150470   1.756   3.661   1.582 -0.3286  2.9933  1.4379
 9685TIP3    H250471   1.903   3.666   1.545 -0.5101 -3.2324 -1.4313
 9686TIP3   OH250472   5.641   1.406  14.524 -0.1062 -0.0095  0.0519
 9686TIP3    H150473   5.564   1.415  14.468  1.4356  0.9964 -2.0653
 9686TIP3    H250474   5.619   1.333  14.583 -2.5946  0.1798 -0.5097
 9687TIP3   OH250475   3.255   1.951   2.152 -0.2582  0.0122 -0.5776
 9687TIP3    H150476   3.230   2.002   2.230 -1.7349  0.9746 -1.6090
 9687TIP3    H250477   3.182   1.890   2.140  0.6609 -1.1348 -0.3808
 9688TIP3   OH250478   3.754   6.102   1.546 -0.3191  0.0808 -0.0814
 9688TIP3    H150479   3.697   6.177   1.567 -1.7810 -0.6451 -1.2306
 9688TIP3    H250480   3.725   6.074   1.459  1.4243 -0.7175 -0.4453
 9689TIP3   OH250481   4.109   3.838  15.008 -0.0188 -0.5388 -0.5276
 9689TIP3    H150482   4.175   3.847  14.939 -0.5816 -0.6713 -1.0833
 9689TIP3    H250483   4.160   3.839  15.089  0.4869  1.5493 -0.8157
 9690TIP3   OH250484   5.746   4.439   1.174  0.0098  0.0559 -0.2548
 9690TIP3    H150485   5.718   4.390   1.097  2.8219 -0.5999 -0.9668
 9690TIP3    H250486   5.779   4.522   1.140  1.9193 -0.5075  0.0703
 9691TIP3   OH250487   4.704   6.652  13.719 -0.3608 -0.0762 -0.5827
 9691TIP3    H150488   4.795   6.622  13.724 -0.1977  0.5360  0.3812
 9691TIP3    H250489   4.653   6.578  13.753 -0.0714  0.1759  0.4583
 9692TIP3   OH250490   1.423   6.288  11.880  0.2831 -0.1356  0.1585
 9692TIP3    H150491   1.410   6.349  11.807 -1.0244 -1.0067 -0.3714
 9692TIP3    H250492   1.518   6.279  11.888  0.4448 -0.0239 -1.4416
 9693TIP3   OH250493   3.892   0.952  12.953 -0.0974  0.1534 -0.1154
 9693TIP3    H150494   3.952   1.021  12.923 -0.1810  0.3642  0.1918
 9693TIP3    H250495   3.859   0.985  13.037 -1.6557  0.6476 -0.9034
 9694TIP3   OH250496   4.770   4.429   3.434  0.4972 -1.1502  0.4217
 9694TIP3    H150497   4.721   4.359   3.477 -1.8873 -0.8511 -1.5736
 9694TIP3    H250498   4.774   4.402   3.342  2.3581 -0.1356  0.1426
 9695TIP3   OH250499   1.538   3.797  17.061  0.9340  0.5318 -0.1705
 9695TIP3    H150500   1.453   3.836  17.078  0.6516 -0.6959  1.4384
 9695TIP3    H250501   1.522   3.702  17.064  2.1990  0.2759 -0.7202
 9696TIP3   OH250502   5.192   6.453   0.419 -0.1156  0.1887 -0.4621
 9696TIP3    H150503   5.262   6.407   0.373  0.8118  0.1617  0.9236
 9696TIP3    H250504   5.194   6.418   0.508 -0.4259  1.7555  0.2001
 9697TIP3   OH250505   1.773   3.460   1.121 -0.3713 -0.4111  0.2600
 9697TIP3    H150506   1.771   3.368   1.096  0.4963 -0.4375  0.2580
 9697TIP3    H250507   1.863   3.475   1.151 -0.5443  0.3969  0.4011
 9698TIP3   OH250508   3.954   6.461   4.417 -0.3677 -0.3132 -0.1295
 9698TIP3    H150509   4.007   6.503   4.484  1.7792  2.0707 -3.0342
 9698TIP3    H250510   3.891   6.528   4.391  0.9615  0.1159 -2.5916
 9699TIP3   OH250511   5.818   4.340   5.333  0.6378 -0.3428 -0.3897
 9699TIP3    H150512   5.879   4.266   5.337 -0.4201 -1.2136  0.1788
 9699TIP3    H250513   5.814   4.373   5.422 -1.2895 -1.6429  0.0662
 9700TIP3   OH250514   6.559   0.589  11.384 -0.6605 -0.3718 -0.1804
 9700TIP3    H150515   6.614   0.528  11.335 -2.1055 -1.8723 -0.0239
 9700TIP3    H250516   6.564   0.671  11.334  1.2064 -0.6200 -0.4736
 9701TIP3   OH250517   2.490   4.470  13.399 -0.3458 -0.3152  0.6328
 9701TIP3    H150518   2.546   4.486  13.323 -1.2632  2.9562  0.5126
 9701TIP3    H250519   2.549   4.479  13.474 -0.0754 -0.2210  0.4121
 9702TIP3   OH250520   6.328   5.327  13.251  0.2224 -0.1910  0.3766
 9702TIP3    H150521   6.403   5.268  13.242  0.3623 -0.2102  1.5320
 9702TIP3    H250522   6.362   5.402  13.301  0.1274  1.0395 -1.3293
 9703TIP3   OH250523   5.506   1.041  16.022  0.0696 -0.2988 -0.2577
 9703TIP3    H150524   5.449   1.057  15.947 -1.1442  0.2655  0.7507
 9703TIP3    H250525   5.521   1.127  16.060 -0.2770 -0.6996  0.8198
 9704TIP3   OH250526   3.758   6.151   3.263 -0.2198 -0.0441  0.2250
 9704TIP3    H150527   3.829   6.113   3.314 -0.7903 -0.7617  0.4926
 9704TIP3    H250528   3.678   6.116   3.302 -0.7176  0.5406 -0.2446
 9705TIP3   OH250529   4.868   1.448   2.965  0.0782  0.2681 -0.4256
 9705TIP3    H150530   4.840   1.371   3.014  2.5591  1.1082  2.6394
 9705TIP3    H250531   4.790   1.476   2.918 -2.3287 -1.1465  2.4160
 9706TIP3   OH250532   0.652   0.934   3.765 -0.7321 -0.3522 -0.4103
 9706TIP3    H150533   0.570   0.979   3.786 -1.1809 -1.2284 -0.2237
 9706TIP3    H250534   0.708   1.002   3.727 -1.8798  0.0648 -1.4187
 9707TIP3   OH250535   3.818   0.485   4.834  0.1041  0.5560  0.1056
 9707TIP3    H150536   3.740   0.457   4.786  0.6766  0.3110 -0.7083
 9707TIP3    H250537   3.806   0.449   4.922 -1.3452  1.6882  0.4132
 9708TIP3   OH250538   0.114   6.508  13.278 -0.0983  0.4491  0.2915
 9708TIP3    H150539   0.148   6.558  13.353 -0.9893 -0.9125  1.6646
 9708TIP3    H250540   0.021   6.495  13.298 -0.6080  0.8966 -1.5650
 9709TIP3   OH250541   0.122   4.623   4.094 -0.0327  0.1378 -0.4679
 9709TIP3    H150542   0.086   4.694   4.148 -0.5964  0.8079 -1.6978
 9709TIP3    H250543   0.207   4.655   4.064  1.1079 -0.9444  1.4053
 9710TIP3   OH250544   5.649   3.396   4.676  0.5040 -0.3297 -0.1217
 9710TIP3    H150545   5.628   3.486   4.701  1.3489  0.0656 -0.7744
 9710TIP3    H250546   5.665   3.351   4.759  0.6890  0.2811  0.1775
 9711TIP3   OH250547   3.637   2.302   1.050  0.0661  0.9872  0.0152
 9711TIP3    H150548   3.696   2.282   0.977  1.6044  1.5724  1.0525
 9711TIP3    H250549   3.684   2.366   1.102 -2.1334  2.6376  0.1100
 9712TIP3   OH250550   5.989   3.554  16.931  0.4775  0.2615  0.3556
 9712TIP3    H150551   6.003   3.603  17.012  0.2569 -2.4017  2.1464
 9712TIP3    H250552   6.018   3.465  16.951  0.1166 -0.5961 -2.4241
 9713TIP3   OH250553   3.548   6.522  14.685 -0.0948 -0.3391  0.6355
 9713TIP3    H150554   3.590   6.533  14.600  0.2714  1.6119  1.0201
 9713TIP3    H250555   3.454   6.519  14.666  0.0111 -0.4054  0.1246
 9714TIP3   OH250556   3.062   2.413  11.158 -0.2625  0.0972  0.1367
 9714TIP3    H150557   2.994   2.375  11.212  0.1432 -0.9696 -0.0732
 9714TIP3    H250558   3.113   2.338  11.128  1.6223  0.9298  1.0993
 9715TIP3   OH250559   2.735   1.436   6.298 -0.0585 -0.2140  0.2857
 9715TIP3    H150560   2.720   1.515   6.350  0.6030 -0.0184  0.1865
 9715TIP3    H250561   2.667   1.375   6.327  0.7727 -0.3958  1.9692
 9716TIP3   OH250562   4.041   2.481   5.920 -0.2298  0.0356  0.4686
 9716TIP3    H150563   4.074   2.424   5.850  2.0915  0.4849  1.0916
 9716TIP3    H250564   4.047   2.569   5.885 -0.2938  0.1637  0.7731
 9717TIP3   OH250565   1.973   2.983   1.491  0.0408 -0.0099  0.4780
 9717TIP3    H150566   1.958   2.903   1.439 -0.2123 -1.4875  2.7071
 9717TIP3    H250567   1.953   3.054   1.430  0.7694 -1.5956 -1.7602
 9718TIP3   OH250568   6.343   5.722  15.265  0.8768  0.0561 -0.0338
 9718TIP3    H150569   6.312   5.672  15.190 -1.6099  0.9371  0.3053
 9718TIP3    H250570   6.295   5.805  15.259  2.3161  1.0355  1.3017
 9719TIP3   OH250571   2.421   5.177   0.706  0.3034  0.4337  0.2235
 9719TIP3    H150572   2.343   5.124   0.718  0.8333  0.0509  2.3722
 9719TIP3    H250573   2.435   5.219   0.791  2.4411  0.4429 -0.0741
 9720TIP3   OH250574   6.327   1.286  13.975 -0.1013  0.5111  0.8936
 9720TIP3    H150575   6.357   1.229  14.047  1.8264  1.8849  1.2518
 9720TIP3    H250576   6.309   1.226  13.903 -1.0370 -0.8088  2.1792
 9721TIP3   OH250577   0.550   3.500  11.200 -0.5746 -0.2394 -0.3177
 9721TIP3    H150578   0.619   3.552  11.240 -2.2543  0.4249  1.9606
 9721TIP3    H250579   0.571   3.499  11.107  1.9570  0.6846  0.1691
 9722TIP3   OH250580   1.118   1.229  11.784  0.0499 -0.3733 -0.2026
 9722TIP3    H150581   1.033   1.188  11.767  0.8706 -2.0684 -0.5255
 9722TIP3    H250582   1.098   1.320  11.803 -1.7726 -0.5752 -0.9508
 9723TIP3   OH250583   6.779   1.778  11.572 -0.2947 -0.6623  0.2115
 9723TIP3    H150584   6.845   1.790  11.504  0.1182 -1.9323  0.3505
 9723TIP3    H250585   6.761   1.684  11.571 -2.2570 -0.3111  0.0461
 9724TIP3   OH250586   6.184   1.930  16.176  0.0029  0.2587 -0.2282
 9724TIP3    H150587   6.274   1.912  16.148  0.1114 -0.0689  0.2960
 9724TIP3    H250588   6.145   1.977  16.103 -0.0748 -1.5167 -1.3965
 9725TIP3   OH250589   1.149   1.957  11.320  0.0045 -0.4728  0.4516
 9725TIP3    H150590   1.075   1.975  11.378 -0.7414  1.2507 -0.9589
 9725TIP3    H250591   1.224   2.001  11.362 -0.6256  1.1728 -0.0732
 9726TIP3   OH250592   4.296   5.031   5.131 -0.1410 -0.1182 -0.1547
 9726TIP3    H150593   4.331   4.974   5.063 -0.0403  0.5544 -0.6826
 9726TIP3    H250594   4.369   5.046   5.190 -0.3084 -0.9407  0.2651
 9727TIP3   OH250595   2.541   4.501   0.647 -0.3291  0.2051  0.5447
 9727TIP3    H150596   2.594   4.572   0.682  0.5435 -0.0826 -0.1610
 9727TIP3    H250597   2.465   4.544   0.607  0.1758  0.7357  0.1459
 9728TIP3   OH250598   2.080   2.699   5.893 -0.3821 -0.1502  0.5728
 9728TIP3    H150599   2.115   2.758   5.826 -1.7301 -1.6288 -1.5783
 9728TIP3    H250600   2.155   2.643   5.917  0.5140  1.3765  1.5399
 9729TIP3   OH250601   3.308   2.988  10.852 -0.3225  0.4991 -0.7451
 9729TIP3    H150602   3.293   2.899  10.821 -1.9048  0.1406  0.8940
 9729TIP3    H250603   3.309   3.041  10.772  0.0008 -0.8887 -1.6928
 9730TIP3   OH250604   0.881   1.317   4.487 -0.2531 -0.0354 -0.7016
 9730TIP3    H150605   0.845   1.394   4.444 -0.7578  0.5290  0.6901
 9730TIP3    H250606   0.971   1.312   4.455 -0.2913  0.9658 -1.0096
 9731TIP3   OH250607   4.211   6.153  14.292 -0.3969  0.1008  0.6654
 9731TIP3    H150608   4.158   6.113  14.223 -0.3567  0.3810  0.4697
 9731TIP3    H250609   4.161   6.230  14.319  0.0612  0.5490  0.2565
 9732TIP3   OH250610   1.834   0.855   2.444  0.2206 -0.1914 -0.0463
 9732TIP3    H150611   1.753   0.895   2.412  0.1683 -0.9666 -0.9077
 9732TIP3    H250612   1.806   0.771   2.481  0.4055  0.2961  1.2805
 9733TIP3   OH250613   0.158   6.479  12.639 -0.6029 -0.2581  0.6786
 9733TIP3    H150614   0.091   6.418  12.610 -0.8027 -0.2320  1.0819
 9733TIP3    H250615   0.233   6.461  12.582 -0.8364 -0.5158  0.4490
 9734TIP3   OH250616   4.069   4.503  16.644 -0.0993 -0.1268  0.6502
 9734TIP3    H150617   4.109   4.537  16.564  1.0352  1.3035  1.7620
 9734TIP3    H250618   4.142   4.464  16.693 -0.6451 -0.4097  1.2532
 9735TIP3   OH250619   5.558   3.489  13.152  1.1900  0.3790 -0.2498
 9735TIP3    H150620   5.476   3.509  13.106  1.2220  0.7023 -0.1736
 9735TIP3    H250621   5.573   3.566  13.208  0.7021 -0.3683  0.9427
 9736TIP3   OH250622   6.708   0.632  12.335  0.2291  0.2564 -0.1582
 9736TIP3    H150623   6.671   0.719  12.322 -1.4011 -0.3817  0.0291
 9736TIP3    H250624   6.802   0.648  12.342  0.1035  1.8535 -1.3907
 9737TIP3   OH250625   5.805   4.879   0.887  0.2890  0.2145 -0.1335
 9737TIP3    H150626   5.838   4.969   0.880 -0.9184  0.6595 -0.3405
 9737TIP3    H250627   5.879   4.825   0.859  1.0785  1.1278  0.1161
 9738TIP3   OH250628   2.004   3.239   4.257 -0.0758 -0.4245 -0.1014
 9738TIP3    H150629   2.030   3.328   4.231 -1.5848  0.9701  2.7027
 9738TIP3    H250630   2.076   3.208   4.312 -0.8223  0.3297  1.3570
 9739TIP3   OH250631   3.705   5.924  15.852  0.1661 -0.0042 -0.4260
 9739TIP3    H150632   3.746   5.923  15.939  0.7642  0.0238 -0.6993
 9739TIP3    H250633   3.759   5.865  15.800 -1.4555 -1.7429 -0.2272
 9740TIP3   OH250634   0.451   6.808  14.034 -0.4388 -0.0048 -0.0525
 9740TIP3    H150635   0.480   6.717  14.028 -1.0411 -0.2829  0.9428
 9740TIP3    H250636   0.384   6.818  13.966  0.6132  0.1089 -1.0995
 9741TIP3   OH250637   0.295   5.590  13.379  0.1949 -0.1384 -0.2062
 9741TIP3    H150638   0.226   5.654  13.395 -0.1244 -0.1926 -1.3123
 9741TIP3    H250639   0.289   5.570  13.286  1.2053 -0.7268 -0.1620
 9742TIP3   OH250640   0.676   1.388  16.037 -0.8065 -0.1716 -0.5308
 9742TIP3    H150641   0.638   1.342  16.113 -1.2032 -1.3228 -1.4039
 9742TIP3    H250642   0.769   1.395  16.058 -1.2112  1.3797  0.9863
 9743TIP3   OH250643   2.106   5.544   4.899 -0.2861  0.2695 -0.0127
 9743TIP3    H150644   2.020   5.546   4.941  0.2775  0.3222  1.1801
 9743TIP3    H250645   2.152   5.472   4.944  0.2609  0.1845 -0.6998
 9744TIP3   OH250646   1.114   2.348   1.359 -0.2322 -0.4808  0.3135
 9744TIP3    H150647   1.091   2.288   1.288 -0.0433 -0.1332 -0.0474
 9744TIP3    H250648   1.097   2.435   1.323  0.1062 -0.2887  0.6076
 9745TIP3   OH250649   6.083   2.079  12.607 -0.2802 -0.3168 -0.3730
 9745TIP3    H150650   5.991   2.103  12.624  0.1250  0.1310  1.3466
 9745TIP3    H250651   6.134   2.143  12.656  0.9672 -0.8880 -0.8770
 9746TIP3   OH250652   1.965   6.700   0.715  0.1400 -0.0192  0.2445
 9746TIP3    H150653   2.001   6.615   0.741  2.3314  0.7916  0.1180
 9746TIP3    H250654   2.042   6.756   0.702 -1.1932  1.7760 -0.4606
 9747TIP3   OH250655   1.320   0.191  14.634  0.4664 -0.0431  0.9047
 9747TIP3    H150656   1.262   0.115  14.643  0.6585 -0.6798 -2.0695
 9747TIP3    H250657   1.261   0.266  14.629  0.0194 -0.4179  0.4080
 9748TIP3   OH250658   3.282   1.774   1.204 -0.1869  0.0473 -0.2313
 9748TIP3    H150659   3.313   1.830   1.132 -0.6162  1.1317  0.4041
 9748TIP3    H250660   3.193   1.804   1.221  0.0524  0.0689  1.0171
 9749TIP3   OH250661   5.965   2.459   2.358  0.2832 -0.1300 -0.6808
 9749TIP3    H150662   6.033   2.493   2.417 -1.9788  0.2136  1.9671
 9749TIP3    H250663   5.929   2.537   2.316  1.2072 -0.2706 -1.7634
 9750TIP3   OH250664   0.338   5.492   5.202 -0.0708  0.5552 -0.7387
 9750TIP3    H150665   0.249   5.457   5.196  0.2998 -0.3295 -1.2578
 9750TIP3    H250666   0.386   5.446   5.134  0.5383  1.8339 -1.1916
 9751TIP3   OH250667   6.346   5.599  16.242  0.2032  0.3687 -0.4960
 9751TIP3    H150668   6.260   5.636  16.261 -0.2538 -1.3980  1.1776
 9751TIP3    H250669   6.405   5.674  16.242 -0.9631  1.3391  0.8521
 9752TIP3   OH250670   1.107   4.335  11.106  0.2510  0.4897 -0.3463
 9752TIP3    H150671   1.057   4.321  11.025 -0.0668  1.7550 -0.3918
 9752TIP3    H250672   1.053   4.296  11.175  1.1116 -1.7631 -0.8399
 9753TIP3   OH250673   2.728   3.380   4.729  0.0100  0.3678 -0.3240
 9753TIP3    H150674   2.713   3.288   4.752 -0.4435  0.4361 -0.3394
 9753TIP3    H250675   2.817   3.382   4.695  0.0909 -0.0336 -0.1445
 9754TIP3   OH250676   5.152   3.285  15.625 -0.5241  0.3808  0.3453
 9754TIP3    H150677   5.141   3.191  15.637  0.4371  0.1710 -0.2540
 9754TIP3    H250678   5.072   3.324  15.660 -2.0777 -0.8123 -1.6926
 9755TIP3   OH250679   2.190   0.496   3.122  0.0345  0.0998  0.2834
 9755TIP3    H150680   2.169   0.462   3.209  1.8446 -0.5931  0.4981
 9755TIP3    H250681   2.209   0.588   3.136 -0.1862  0.1086  0.5275
 9756TIP3   OH250682   6.148   6.152   3.097 -0.4886 -0.5253  0.7290
 9756TIP3    H150683   6.071   6.096   3.086 -0.6460 -0.5453  1.8863
 9756TIP3    H250684   6.124   6.234   3.054 -0.8518 -0.7968  0.4068
 9757TIP3   OH250685   3.720   6.254  13.491  0.4409  0.0958 -0.2129
 9757TIP3    H150686   3.636   6.209  13.506  0.6601  0.0092  0.8468
 9757TIP3    H250687   3.786   6.193  13.525  0.8060  0.8608  0.5007
 9758TIP3   OH250688   4.557   1.409  12.620  0.3226 -0.2167 -0.2461
 9758TIP3    H150689   4.515   1.459  12.690  0.2754 -0.9819  0.2730
 9758TIP3    H250690   4.616   1.348  12.665  1.0466 -0.0287 -0.9137
 9759TIP3   OH250691   6.599   5.590  15.019  0.2010  0.0683 -0.7868
 9759TIP3    H150692   6.611   5.649  15.094  0.2528 -1.3459  0.3684
 9759TIP3    H250693   6.645   5.509  15.045  0.8555 -0.2105 -2.6644
 9760TIP3   OH250694   2.850   2.724   2.816 -0.4947  0.2982  0.7118
 9760TIP3    H150695   2.833   2.653   2.755  0.7396 -0.2312  0.9619
 9760TIP3    H250696   2.845   2.803   2.762  0.8435 -0.1798 -0.1551
 9761TIP3   OH250697   2.535   5.501  12.097 -0.6018  0.3843 -0.6049
 9761TIP3    H150698   2.440   5.506  12.100 -0.5436  3.7228  0.1733
 9761TIP3    H250699   2.564   5.539  12.180  1.3652  1.0835 -1.5388
 9762TIP3   OH250700   4.358   1.989   4.157 -0.4089  0.0295  0.1638
 9762TIP3    H150701   4.357   2.065   4.098  1.0941  0.7153  0.9511
 9762TIP3    H250702   4.278   1.997   4.208 -0.3752  0.9688  0.0842
 9763TIP3   OH250703   6.014   1.652   1.529  0.2741 -0.3879  0.3596
 9763TIP3    H150704   6.047   1.741   1.519 -4.5511  1.5755 -1.1177
 9763TIP3    H250705   5.997   1.643   1.623  2.0184 -0.3988  0.7167
 9764TIP3   OH250706   1.634   0.976   0.010 -0.1332  0.5148 -0.0534
 9764TIP3    H150707   1.580   1.010  -0.062 -1.9917  0.1508  1.1246
 9764TIP3    H250708   1.677   1.054   0.045  0.7594  0.7109 -1.4689
 9765TIP3   OH250709   6.458   2.991   4.689 -0.6491 -0.0037 -0.2334
 9765TIP3    H150710   6.452   2.990   4.593  0.2344 -1.5046 -0.2904
 9765TIP3    H250711   6.367   2.990   4.718 -0.9266  0.3315 -1.0519
 9766TIP3   OH250712   0.283   4.741   0.436  0.2242 -0.8893 -1.0302
 9766TIP3    H150713   0.190   4.758   0.422  0.0694 -1.4715 -0.7218
 9766TIP3    H250714   0.325   4.825   0.417 -0.6121  0.1414  1.2793
 9767TIP3   OH250715   2.709   2.913   5.054 -0.6966  0.8544 -0.1395
 9767TIP3    H150716   2.752   2.827   5.043  0.2206  1.3871 -0.9075
 9767TIP3    H250717   2.631   2.908   4.999 -0.0378  0.8929 -1.1111
 9768TIP3   OH250718   3.427   2.050  15.709 -0.4227  0.6658 -0.2773
 9768TIP3    H150719   3.385   2.136  15.715 -0.4163  0.6157  0.5042
 9768TIP3    H250720   3.506   2.066  15.657 -0.8840  0.9497 -0.9123
 9769TIP3   OH250721   6.055   0.654   6.043 -0.0383 -0.6641  0.1941
 9769TIP3    H150722   6.029   0.688   5.958  0.9588 -1.5385 -0.4775
 9769TIP3    H250723   5.972   0.645   6.091 -0.6078 -0.1696 -0.6678
 9770TIP3   OH250724   6.105   6.204  10.606  0.2205  0.5087  0.7197
 9770TIP3    H150725   6.016   6.176  10.629  0.2958  0.0116  0.3960
 9770TIP3    H250726   6.093   6.262  10.530  0.2156  0.0479  0.3650
 9771TIP3   OH250727   0.404   3.740   3.505  0.3300 -0.3928 -0.2847
 9771TIP3    H150728   0.486   3.775   3.542  0.2735  0.9209 -1.3214
 9771TIP3    H250729   0.426   3.721   3.413 -0.6606  0.5400 -0.7383
 9772TIP3   OH250730   2.437   4.585  16.863 -0.5967 -0.0589 -0.2596
 9772TIP3    H150731   2.500   4.642  16.908  0.2936 -0.6445 -0.7247
 9772TIP3    H250732   2.399   4.639  16.794 -0.9350  0.4270  0.2919
 9773TIP3   OH250733   0.504   4.674  11.716  0.2198 -0.0285 -0.0632
 9773TIP3    H150734   0.514   4.640  11.805  1.0781  2.7480  0.9766
 9773TIP3    H250735   0.410   4.691  11.707 -0.3258 -2.8293 -0.7812
 9774TIP3   OH250736   0.419   2.862   5.201  0.0813 -0.2860 -1.0141
 9774TIP3    H150737   0.391   2.942   5.157  0.6343 -0.1948 -1.2014
 9774TIP3    H250738   0.340   2.808   5.205 -0.8737  1.0961  0.9935
 9775TIP3   OH250739   2.336   6.060  13.062  0.2720 -0.3019  0.3806
 9775TIP3    H150740   2.428   6.087  13.070  0.0897  0.2890  0.4654
 9775TIP3    H250741   2.298   6.121  13.000 -0.1213 -0.4235  0.5009
 9776TIP3   OH250742   2.981   3.447  16.424  0.0117 -0.3982  0.5125
 9776TIP3    H150743   2.990   3.391  16.501 -0.3501 -1.2634 -0.0495
 9776TIP3    H250744   2.947   3.530  16.458 -1.8292 -1.3278  1.1123
 9777TIP3   OH250745   5.234   6.685   0.950  0.0151  0.4569  0.0813
 9777TIP3    H150746   5.186   6.613   0.989  1.5065 -1.8827 -2.0969
 9777TIP3    H250747   5.221   6.674   0.856  3.7635  0.3435 -0.5698
 9778TIP3   OH250748   4.272   2.141   0.781  0.3220  0.2369 -0.3298
 9778TIP3    H150749   4.193   2.118   0.829  1.3420  1.5740  2.1649
 9778TIP3    H250750   4.264   2.235   0.764  0.0390 -0.1681 -2.8244
 9779TIP3   OH250751   4.192   0.905  16.558 -0.5651  0.2270  0.3184
 9779TIP3    H150752   4.260   0.864  16.610  0.7471  2.7686  0.7792
 9779TIP3    H250753   4.207   0.872  16.469 -0.8219 -1.7047  0.9538
 9780TIP3   OH250754   1.110   4.577   2.042 -0.6969 -0.5550  0.1490
 9780TIP3    H150755   1.041   4.584   2.108  1.4244  1.4714  2.4068
 9780TIP3    H250756   1.124   4.483   2.032 -0.7995 -0.9885  3.0817
 9781TIP3   OH250757   0.595   3.208   2.563 -0.6832  0.4611 -0.6345
 9781TIP3    H150758   0.621   3.128   2.518 -1.0866  0.4408 -0.8404
 9781TIP3    H250759   0.567   3.179   2.649  0.6097  0.5613 -0.1536
 9782TIP3   OH250760   6.800   1.896   0.927 -0.4190 -0.4532 -0.1922
 9782TIP3    H150761   6.833   1.844   1.000  2.0924  0.7955 -0.3374
 9782TIP3    H250762   6.729   1.948   0.965  0.7444  0.0820  1.4065
 9783TIP3   OH250763   0.669   3.725   5.240 -0.2739 -0.1198 -0.3245
 9783TIP3    H150764   0.691   3.731   5.333  1.3015  1.5990 -0.7429
 9783TIP3    H250765   0.590   3.671   5.237 -0.7086  0.2783  2.0635
 9784TIP3   OH250766   1.120   5.296  13.771  0.0133  0.2617  0.0874
 9784TIP3    H150767   1.140   5.221  13.827  0.9358 -0.1489 -0.7545
 9784TIP3    H250768   1.166   5.277  13.689  0.5631  1.9019 -0.0293
 9785TIP3   OH250769   1.525   5.782  14.252 -0.2388 -0.6528  0.7417
 9785TIP3    H150770   1.597   5.833  14.215 -0.5665 -1.1876 -0.7072
 9785TIP3    H250771   1.555   5.691  14.251 -1.2665 -1.0160 -0.8262
 9786TIP3   OH250772   6.381   2.449  11.936  0.2125  0.4023 -0.0090
 9786TIP3    H150773   6.456   2.454  11.877  0.4316 -0.7464  0.1604
 9786TIP3    H250774   6.419   2.439  12.023 -0.1377  0.1243  0.1150
 9787TIP3   OH250775   3.372   1.930  10.834  0.1470 -0.2687  0.0407
 9787TIP3    H150776   3.320   1.859  10.872 -0.9128  0.8877  0.8023
 9787TIP3    H250777   3.416   1.970  10.909  2.3837 -1.3360 -0.5870
 9788TIP3   OH250778   6.273   2.958  12.733 -0.4178  0.0962  0.1769
 9788TIP3    H150779   6.255   2.885  12.673 -0.0362  1.5392 -1.8159
 9788TIP3    H250780   6.192   3.009  12.733  0.1147  0.9787 -0.4571
 9789TIP3   OH250781   1.961   1.785   5.181 -0.0737 -0.3297  0.0717
 9789TIP3    H150782   2.032   1.767   5.242  0.4318 -0.5408 -0.5704
 9789TIP3    H250783   1.905   1.708   5.186  1.0074 -1.2398 -1.1600
 9790TIP3   OH250784   5.508   2.325   1.771 -0.3201  0.3713  0.0667
 9790TIP3    H150785   5.519   2.302   1.863  0.5970  1.2757  0.2053
 9790TIP3    H250786   5.413   2.331   1.758 -0.4388  0.9024  1.1283
 9791TIP3   OH250787   2.555   2.352  12.843 -0.7226  0.6054 -0.1762
 9791TIP3    H150788   2.604   2.396  12.773 -2.0956  0.5139 -1.2337
 9791TIP3    H250789   2.622   2.305  12.893  0.1946 -0.3109 -2.1540
 9792TIP3   OH250790   3.043   5.212  12.777 -0.0514  0.3928 -0.2521
 9792TIP3    H150791   2.992   5.208  12.696  0.8840 -3.9470 -0.8817
 9792TIP3    H250792   2.987   5.260  12.838 -1.3724  2.6527 -3.0128
 9793TIP3   OH250793   6.804   3.720   4.193 -0.5541  0.5123  0.4253
 9793TIP3    H150794   6.888   3.742   4.154 -0.2805  0.7140  1.1108
 9793TIP3    H250795   6.770   3.649   4.139  0.3956 -0.0674  0.5632
 9794TIP3   OH250796   6.485   1.955  12.449  0.3622 -0.4869  0.2412
 9794TIP3    H150797   6.433   1.976  12.527  1.3374  0.0936  0.7546
 9794TIP3    H250798   6.564   1.914  12.484  1.0539  0.2735 -0.3994
 9795TIP3   OH250799   5.691   2.363   4.334 -0.4142 -0.7466 -0.3601
 9795TIP3    H150800   5.765   2.393   4.386  1.1381 -2.1409 -1.6409
 9795TIP3    H250801   5.655   2.290   4.384 -1.4179  0.3524  0.5954
 9796TIP3   OH250802   1.136   1.211   3.438 -0.0455  0.2789  0.1161
 9796TIP3    H150803   1.097   1.298   3.438 -1.3179 -0.2655  0.1526
 9796TIP3    H250804   1.091   1.165   3.366 -0.7708 -0.9125  1.2673
 9797TIP3   OH250805   1.949   5.439  14.160 -0.2558 -0.4001 -0.6512
 9797TIP3    H150806   1.871   5.445  14.215 -0.3637 -0.4003 -0.8036
 9797TIP3    H250807   1.922   5.385  14.086  0.0282 -0.8000 -0.4657
 9798TIP3   OH250808   0.085   2.199   5.073  0.2235  0.3578 -0.2633
 9798TIP3    H150809   0.158   2.141   5.091 -0.4416  0.0618  1.6625
 9798TIP3    H250810   0.123   2.287   5.073  0.5621  0.2320  1.0582
 9799TIP3   OH250811   4.207   2.703  11.349 -0.2776 -0.2876 -0.3710
 9799TIP3    H150812   4.238   2.707  11.258 -1.0069 -0.3971 -0.6343
 9799TIP3    H250813   4.273   2.653  11.395  1.0452  1.3101 -0.4407
 9800TIP3   OH250814   5.742   2.300   0.278  0.7803  0.4241 -0.3685
 9800TIP3    H150815   5.797   2.250   0.219 -1.4434 -2.0250 -0.5546
 9800TIP3    H250816   5.686   2.235   0.320 -0.8272  2.5638  1.0431
 9801TIP3   OH250817   1.522   3.727  16.667  0.3999  0.0846 -0.2746
 9801TIP3    H150818   1.484   3.639  16.670  0.7573 -0.0984 -0.9990
 9801TIP3    H250819   1.604   3.720  16.717 -0.2201  0.3504  0.8295
 9802TIP3   OH250820   2.168   3.623   0.701  0.2493 -0.3457  0.6766
 9802TIP3    H150821   2.123   3.591   0.779  1.2672 -0.4157  1.2638
 9802TIP3    H250822   2.233   3.685   0.736  0.3450  0.0336 -0.1640
 9803TIP3   OH250823   1.155   6.321   1.113 -0.6133 -0.5339  0.2212
 9803TIP3    H150824   1.075   6.370   1.131 -1.0871 -1.4985  0.8562
 9803TIP3    H250825   1.133   6.264   1.039 -0.8245 -1.4741  0.9926
 9804TIP3   OH250826   2.240   6.465   3.068 -0.2084 -0.0786  0.4930
 9804TIP3    H150827   2.286   6.463   2.984 -1.1926  0.7280 -0.0810
 9804TIP3    H250828   2.181   6.390   3.063  1.1469 -1.2550  1.3255
 9805TIP3   OH250829   6.374   6.416  13.921 -0.1275 -0.1056  0.3552
 9805TIP3    H150830   6.297   6.463  13.952 -1.2579 -1.5740 -0.1121
 9805TIP3    H250831   6.363   6.327  13.954  0.4285 -0.8022 -1.2434
 9806TIP3   OH250832   4.113   5.977  12.446 -0.3804  0.1500 -0.1856
 9806TIP3    H150833   4.070   5.976  12.531  0.1457  1.0842  0.1129
 9806TIP3    H250834   4.180   6.045  12.454 -1.1516  1.1605 -1.7380
 9807TIP3   OH250835   1.703   4.983  11.258 -0.1114  0.0127  0.0636
 9807TIP3    H150836   1.629   4.984  11.319 -1.2463  0.2610 -1.2752
 9807TIP3    H250837   1.780   4.986  11.315 -1.1051 -0.4932  1.5075
 9808TIP3   OH250838   4.913   2.182   0.294  0.7265 -0.3193  0.1370
 9808TIP3    H150839   4.863   2.195   0.375  0.7636  1.9137 -0.1371
 9808TIP3    H250840   4.915   2.087   0.282 -0.1976 -0.6481  2.1732
 9809TIP3   OH250841   3.870   2.159   5.533 -0.1719  0.4088 -1.0593
 9809TIP3    H150842   3.961   2.156   5.501 -0.1582  1.2636 -1.1255
 9809TIP3    H250843   3.817   2.154   5.453 -0.1752  0.4732 -1.0609
 9810TIP3   OH250844   3.071   6.152  14.066 -0.3203  0.2485 -0.1991
 9810TIP3    H150845   3.159   6.123  14.088 -0.0656 -1.2611 -2.7427
 9810TIP3    H250846   3.024   6.153  14.149  1.7788 -0.0174  1.0599
 9811TIP3   OH250847   5.541   5.898   1.858  0.0644 -0.4989  0.2802
 9811TIP3    H150848   5.477   5.829   1.841 -1.7461  1.2152 -0.3661
 9811TIP3    H250849   5.620   5.852   1.887 -0.5080 -2.9128 -1.6491
 9812TIP3   OH250850   3.390   3.269  13.304 -0.1943  0.0524  0.4991
 9812TIP3    H150851   3.456   3.221  13.354 -0.6345 -0.4490  0.5987
 9812TIP3    H250852   3.423   3.359  13.302  0.3143 -0.1206  0.8529
 9813TIP3   OH250853   0.010   1.642  12.002 -0.4609  0.4412  0.0206
 9813TIP3    H150854  -0.046   1.637  12.080 -1.2702 -0.1922 -0.5775
 9813TIP3    H250855   0.064   1.564  12.006  0.1511  0.8764  0.4158
 9814TIP3   OH250856   0.335   6.413   5.266 -0.2606  0.2398  0.0844
 9814TIP3    H150857   0.284   6.470   5.324  0.4087  0.1010  0.8260
 9814TIP3    H250858   0.400   6.372   5.324 -0.6421 -1.1886 -0.4433
 9815TIP3   OH250859   5.301   6.081  15.386  0.2123 -0.0344  0.4292
 9815TIP3    H150860   5.260   6.165  15.364  1.7541  0.6506  0.0251
 9815TIP3    H250861   5.291   6.028  15.306  0.5495  0.3196  0.1445
 9816TIP3   OH250862   5.294   0.340  16.089 -0.1670  0.6002 -0.0234
 9816TIP3    H150863   5.344   0.260  16.073 -0.1573  0.9375 -1.8981
 9816TIP3    H250864   5.239   0.320  16.164  0.0594 -1.0698 -0.2728
 9817TIP3   OH250865   5.409   4.771   5.806 -0.1092 -0.3480  0.1434
 9817TIP3    H150866   5.315   4.766   5.786  0.2496 -0.1799 -1.7396
 9817TIP3    H250867   5.431   4.685   5.840 -0.4978 -1.1893 -1.6378
 9818TIP3   OH250868   4.458   6.236   3.245 -0.2634 -0.1208  0.3329
 9818TIP3    H150869   4.517   6.217   3.173 -3.1253 -0.0737 -2.2145
 9818TIP3    H250870   4.474   6.329   3.265  0.4981 -0.1158 -0.2578
 9819TIP3   OH250871   2.731   1.608  11.317 -0.1324 -0.3013  0.4599
 9819TIP3    H150872   2.679   1.676  11.276 -0.5386  0.1677  1.7203
 9819TIP3    H250873   2.804   1.594  11.256 -1.4073 -0.6002 -1.0684
 9820TIP3   OH250874   0.165   4.002   1.808 -0.3920  0.1745 -0.0875
 9820TIP3    H150875   0.128   3.962   1.729 -0.9000  0.2790  0.0901
 9820TIP3    H250876   0.154   4.096   1.794  1.4914  0.3287 -0.8446
 9821TIP3   OH250877   4.798   3.454   4.634 -0.0136  0.2225 -0.5131
 9821TIP3    H150878   4.767   3.544   4.641  0.7944  0.4114  1.2512
 9821TIP3    H250879   4.726   3.401   4.668 -0.0158  0.3106 -0.3797
 9822TIP3   OH250880   1.283   4.679  13.836 -0.3944  0.0842 -0.1523
 9822TIP3    H150881   1.216   4.685  13.767 -1.1866  3.4566  0.6892
 9822TIP3    H250882   1.266   4.596  13.880 -2.9880  0.0815 -1.0141
 9823TIP3   OH250883   3.691   1.122   1.360 -0.2244 -0.0763 -0.3723
 9823TIP3    H150884   3.683   1.058   1.289  0.9357 -1.0926  0.3683
 9823TIP3    H250885   3.741   1.194   1.322 -2.4368  0.9540 -1.5272
 9824TIP3   OH250886   0.910   1.949   1.347 -0.7583  0.2812  0.3002
 9824TIP3    H150887   0.880   2.038   1.331 -0.0896  0.2688 -1.1094
 9824TIP3    H250888   0.841   1.909   1.401  0.1582  2.4506  3.3380
 9825TIP3   OH250889   0.547   2.564  15.320 -0.0417  0.0850 -0.1855
 9825TIP3    H150890   0.626   2.617  15.307 -0.1814  1.5442  3.4474
 9825TIP3    H250891   0.578   2.485  15.364 -0.4750  0.4014  0.7298
 9826TIP3   OH250892   2.374   2.041  11.102 -0.0718 -0.1418  0.2191
 9826TIP3    H150893   2.416   2.055  11.187  1.9103 -0.5326 -0.6401
 9826TIP3    H250894   2.388   1.948  11.084 -1.5770 -0.3426  0.0117
 9827TIP3   OH250895   3.809   1.827  12.660  0.1702  0.0177 -0.1293
 9827TIP3    H150896   3.718   1.834  12.630  0.3540  1.2305 -0.4301
 9827TIP3    H250897   3.855   1.786  12.587 -0.5423 -2.8885  0.9086
 9828TIP3   OH250898   1.676   0.144  14.209 -0.6845  0.1161 -0.0737
 9828TIP3    H150899   1.590   0.146  14.168 -0.9275 -1.9079  0.2142
 9828TIP3    H250900   1.658   0.127  14.301 -0.0105  1.2808  0.2952
 9829TIP3   OH250901   1.517   5.752   1.721  0.3533 -0.5872  0.5235
 9829TIP3    H150902   1.569   5.680   1.686 -1.5484 -1.5126 -0.4923
 9829TIP3    H250903   1.540   5.827   1.666  0.5955 -0.9768  0.0885
 9830TIP3   OH250904   0.254   0.604   3.606 -0.2662 -0.1365  0.0855
 9830TIP3    H150905   0.227   0.569   3.521  0.2909  0.9441 -0.5642
 9830TIP3    H250906   0.172   0.631   3.647 -0.7019 -2.0616  0.5764
 9831TIP3   OH250907   0.008   4.725   2.264 -0.0058 -0.0906 -0.2007
 9831TIP3    H150908  -0.027   4.701   2.178 -2.8571 -0.7543  0.9955
 9831TIP3    H250909  -0.063   4.704   2.325  1.3530  1.6547  2.1802
 9832TIP3   OH250910   5.985   2.431  12.172  0.3851  0.1975 -0.1256
 9832TIP3    H150911   5.934   2.399  12.247  0.2563  1.1191  0.1940
 9832TIP3    H250912   5.945   2.388  12.096  0.9454 -1.2767  0.3696
 9833TIP3   OH250913   3.441   5.330  15.263 -0.3423  0.4529 -0.1915
 9833TIP3    H150914   3.474   5.279  15.189 -0.0795 -0.0495  0.2637
 9833TIP3    H250915   3.346   5.314  15.261 -0.2410 -0.2040  0.0538
 9834TIP3   OH250916   1.419   2.690   5.352 -0.5478 -0.0443 -0.0192
 9834TIP3    H150917   1.381   2.682   5.439  1.1472 -0.7200  0.6884
 9834TIP3    H250918   1.344   2.680   5.292 -1.6063 -0.3978  1.3223
 9835TIP3   OH250919   6.671   0.847  17.056 -0.1020 -0.3083 -0.5695
 9835TIP3    H150920   6.750   0.882  17.015  0.2109  0.5808  0.7598
 9835TIP3    H250921   6.632   0.791  16.988  1.1626 -0.0285 -1.5604
 9836TIP3   OH250922   3.339   3.408   6.133 -0.8370  0.3278 -0.3889
 9836TIP3    H150923   3.339   3.399   6.038 -3.1649 -2.0055 -0.3037
 9836TIP3    H250924   3.406   3.346   6.163  1.0552  2.2421 -0.4836
 9837TIP3   OH250925   6.683   5.875  11.787  0.2292  0.1303  0.4636
 9837TIP3    H150926   6.756   5.814  11.780 -0.6141 -1.0474  1.4928
 9837TIP3    H250927   6.706   5.933  11.859  0.8005  0.7454 -0.1892
 9838TIP3   OH250928   3.322   2.193   3.549 -0.4334  0.0234  0.0347
 9838TIP3    H150929   3.306   2.281   3.516  0.2671  0.7165  1.4376
 9838TIP3    H250930   3.403   2.165   3.507 -1.1004 -0.3058 -1.0548
 9839TIP3   OH250931   1.186   2.617   6.501 -0.3843  0.0572  1.0155
 9839TIP3    H150932   1.236   2.628   6.581 -0.8334  0.4939  1.2446
 9839TIP3    H250933   1.169   2.523   6.495 -0.2447  0.0101  1.3647
 9840TIP3   OH250934   1.416   3.099  13.951 -0.2099  0.4763 -0.6059
 9840TIP3    H150935   1.464   3.179  13.929 -0.0431  0.2030 -1.2946
 9840TIP3    H250936   1.455   3.032  13.893  1.0715 -0.5780  1.3604
 9841TIP3   OH250937   3.687   5.608   0.793 -0.1038 -0.5748 -0.2890
 9841TIP3    H150938   3.758   5.579   0.736 -0.0520  2.3049 -1.8625
 9841TIP3    H250939   3.730   5.657   0.863 -0.4208  1.5132 -1.4547
 9842TIP3   OH250940   2.984   0.675   5.735  0.1179 -0.2040 -0.1078
 9842TIP3    H150941   2.999   0.646   5.825  1.6060  0.7017 -0.0312
 9842TIP3    H250942   3.067   0.714   5.708  0.1308 -1.6298 -2.3497
 9843TIP3   OH250943   3.386   5.601   2.512  0.6416 -0.2661  0.2432
 9843TIP3    H150944   3.472   5.561   2.526  0.6062  0.0559  1.5352
 9843TIP3    H250945   3.325   5.546   2.561  0.5505  1.1273  1.8134
 9844TIP3   OH250946   1.903   1.890   1.719 -0.2295  0.3424 -0.4631
 9844TIP3    H150947   1.910   1.972   1.768  2.4805  1.1336 -1.9503
 9844TIP3    H250948   1.933   1.823   1.780  0.4138  0.9088 -0.1405
 9845TIP3   OH250949   0.755   6.010  12.616  0.4748  0.0786 -0.7958
 9845TIP3    H150950   0.692   6.079  12.595  4.0121  3.6653 -0.6728
 9845TIP3    H250951   0.790   5.983  12.530 -0.1970 -0.9372 -0.7701
 9846TIP3   OH250952   5.403   2.713  15.649  0.3122  0.0422 -0.3521
 9846TIP3    H150953   5.378   2.801  15.621  0.1690  0.1297  0.0400
 9846TIP3    H250954   5.488   2.698  15.607 -0.1463 -0.0510 -1.2663
 9847TIP3   OH250955   4.076   4.981  12.759 -0.0861 -0.5241  0.0026
 9847TIP3    H150956   3.990   4.961  12.723 -0.0311  0.6992 -0.8825
 9847TIP3    H250957   4.067   5.069  12.796  0.7756 -0.3645 -0.1295
 9848TIP3   OH250958   3.932   2.248   0.095  0.3356 -0.0968 -0.1142
 9848TIP3    H150959   3.929   2.339   0.125  0.9271 -0.2615  0.4692
 9848TIP3    H250960   4.021   2.237   0.060  0.1232 -0.3247 -0.5812
 9849TIP3   OH250961   6.673   2.816   3.997 -0.4563  0.0703 -0.1953
 9849TIP3    H150962   6.735   2.744   4.009  0.0748  0.6937  0.9936
 9849TIP3    H250963   6.725   2.895   4.014 -1.8395  0.5587  2.2494
 9850TIP3   OH250964   2.188   4.649  14.200 -0.0405 -0.0882  0.1010
 9850TIP3    H150965   2.098   4.618  14.202  0.1479 -0.6804 -0.1460
 9850TIP3    H250966   2.236   4.579  14.156  0.5207  0.2679  0.1336
 9851TIP3   OH250967   3.382   1.383  11.666  0.8457  0.7256 -0.5363
 9851TIP3    H150968   3.362   1.368  11.759 -1.4759  1.4223 -0.8628
 9851TIP3    H250969   3.440   1.310  11.642 -1.4753 -1.6809  0.5777
 9852TIP3   OH250970   5.850   1.799   1.227  0.0183  1.1229 -0.1024
 9852TIP3    H150971   5.918   1.822   1.165  3.1392 -0.8938  2.2791
 9852TIP3    H250972   5.880   1.834   1.310 -2.3012  0.8078  0.9423
 9853TIP3   OH250973   5.007   2.617  12.626  0.3328  0.1650 -0.3243
 9853TIP3    H150974   4.973   2.664  12.702  1.2436  2.1167 -1.0465
 9853TIP3    H250975   5.100   2.601  12.646  0.5913  0.7316 -1.0230
 9854TIP3   OH250976   3.466   5.601   2.008 -0.4414  0.1231 -0.3878
 9854TIP3    H150977   3.407   5.550   1.952  2.6931 -1.2495 -2.7918
 9854TIP3    H250978   3.481   5.682   1.960  2.1516 -0.9982 -1.6807
 9855TIP3   OH250979   5.907   2.468   4.005  0.1105 -0.3611  0.3803
 9855TIP3    H150980   5.829   2.494   4.054  0.0567 -0.7307  0.4907
 9855TIP3    H250981   5.943   2.550   3.971  0.0007 -0.1315  0.8167
 9856TIP3   OH250982   2.875   0.422   1.059 -0.9686  0.1134  0.4156
 9856TIP3    H150983   2.915   0.377   1.134 -1.4365 -0.0516  0.5676
 9856TIP3    H250984   2.804   0.474   1.097 -1.4577 -0.2736  0.0436
 9857TIP3   OH250985   2.043   1.178  13.917  0.0266  0.2766  0.2584
 9857TIP3    H150986   2.124   1.217  13.884  0.1763 -1.1472 -1.2194
 9857TIP3    H250987   1.974   1.236  13.887  0.3875  0.5665 -0.0179
 9858TIP3   OH250988   5.063   1.437   6.215  0.0401 -0.4940 -0.4465
 9858TIP3    H150989   5.159   1.433   6.215  0.1017  0.3903  0.8445
 9858TIP3    H250990   5.043   1.531   6.219 -0.8605 -0.7107  0.4143
 9859TIP3   OH250991   3.559   2.135  14.682 -0.0041  0.1114 -0.4901
 9859TIP3    H150992   3.484   2.077  14.672 -1.0082  1.4581 -1.0169
 9859TIP3    H250993   3.554   2.165  14.773  0.4126 -0.4582 -0.2717
 9860TIP3   OH250994   0.099   6.611   1.888  0.1013  0.0314 -0.4488
 9860TIP3    H150995   0.175   6.589   1.835  1.5309  0.2641  1.3954
 9860TIP3    H250996   0.050   6.529   1.896  1.2699 -0.6262  0.0528
 9861TIP3   OH250997   2.363   5.341   5.296 -0.5805 -0.5286 -0.1396
 9861TIP3    H150998   2.325   5.428   5.311  0.1872  0.4217 -3.1050
 9861TIP3    H250999   2.408   5.320   5.378  1.0525  2.8606 -0.0029
 9862TIP3   OH251000   0.810   5.200   2.353  0.0165  0.3733 -0.1808
 9862TIP3    H151001   0.844   5.222   2.440  0.5996 -1.0592 -0.0176
 9862TIP3    H251002   0.718   5.177   2.368  0.0979  0.1952  0.0515
 9863TIP3   OH251003   1.071   1.656  12.354  0.5549  0.2088 -0.1791
 9863TIP3    H151004   1.001   1.600  12.386 -0.4123  0.1451 -2.2786
 9863TIP3    H251005   1.124   1.599  12.299  1.2799  0.6772  0.0200
 9864TIP3   OH251006   5.578   6.268   6.705  0.6882  0.6163 -0.0887
 9864TIP3    H151007   5.538   6.187   6.737  2.5696 -0.2792  0.1266
 9864TIP3    H251008   5.582   6.258   6.610  1.3741  0.1991 -0.0269
 9865TIP3   OH251009   5.842   5.039  11.384 -0.6558  0.2383  0.4213
 9865TIP3    H151010   5.811   5.069  11.470  0.0494 -0.6139  0.9918
 9865TIP3    H251011   5.905   4.970  11.404 -1.0051 -0.4673 -0.8057
 9866TIP3   OH251012   4.059   6.613  14.190 -0.4822  0.6270  0.3584
 9866TIP3    H151013   4.091   6.523  14.196 -0.5080  0.5463 -0.6134
 9866TIP3    H251014   3.964   6.605  14.185 -0.4208  0.5465 -1.8440
 9867TIP3   OH251015   0.592   3.369  13.196 -0.0071 -0.2746  0.0153
 9867TIP3    H151016   0.634   3.448  13.232  2.1773 -1.3829  0.0645
 9867TIP3    H251017   0.623   3.364  13.106 -2.2734  0.3116 -0.8548
 9868TIP3   OH251018   0.467   6.300   3.657  0.1826 -0.0708  0.1916
 9868TIP3    H151019   0.487   6.345   3.574  0.2643 -2.5507 -1.2384
 9868TIP3    H251020   0.551   6.265   3.686 -0.2157 -1.1793  0.0559
 9869TIP3   OH251021   4.053   1.473  16.080  0.2300 -0.1766  0.2377
 9869TIP3    H151022   4.100   1.556  16.082  0.0010 -0.0546  1.0113
 9869TIP3    H251023   4.099   1.418  16.143  0.4681 -0.6905 -0.3755
 9870TIP3   OH251024   0.020   5.803  16.862  0.1027  0.2878 -0.3221
 9870TIP3    H151025  -0.058   5.775  16.813 -0.5137 -0.2187  0.9053
 9870TIP3    H251026   0.032   5.894  16.837 -2.2165  1.0620  1.0930
 9871TIP3   OH251027   3.218   4.266  12.977 -0.5922  0.0101  0.7384
 9871TIP3    H151028   3.190   4.350  13.015 -0.5832  0.9197 -1.1444
 9871TIP3    H251029   3.260   4.220  13.050 -2.8697  0.5150  2.5156
 9872TIP3   OH251030   4.072   2.265  13.816  0.4631  0.3556  0.0749
 9872TIP3    H151031   4.033   2.208  13.750 -1.4543  1.5910  0.0650
 9872TIP3    H251032   4.073   2.212  13.896  1.6171 -0.7042 -0.6002
 9873TIP3   OH251033   1.917   3.803   4.978  0.4986  0.4530  0.2799
 9873TIP3    H151034   1.931   3.851   4.896 -1.1429 -0.0718 -0.3292
 9873TIP3    H251035   2.004   3.801   5.018  0.8154  3.2082 -0.0462
 9874TIP3   OH251036   0.296   6.136   5.089 -0.1126 -0.0650 -0.1554
 9874TIP3    H151037   0.313   6.120   5.182 -1.2311 -0.2868  0.0377
 9874TIP3    H251038   0.381   6.125   5.046  0.8739  2.1831  1.0848
 9875TIP3   OH251039   2.731   6.511   3.933 -0.7255 -0.1018  0.7650
 9875TIP3    H151040   2.757   6.581   3.992  0.2159 -2.4155  3.2931
 9875TIP3    H251041   2.772   6.534   3.849 -1.7163  3.0487  1.0026
 9876TIP3   OH251042   6.664   3.070  16.831  0.0719  0.2001  0.8025
 9876TIP3    H151043   6.635   3.154  16.794 -2.6576 -0.1445  1.8920
 9876TIP3    H251044   6.682   3.090  16.923  1.8681  0.0427  0.5153
 9877TIP3   OH251045   1.787   5.022   4.535 -0.4569 -0.0158 -0.8688
 9877TIP3    H151046   1.725   5.052   4.468 -0.2930 -1.0785 -1.5068
 9877TIP3    H251047   1.819   4.938   4.503  0.3364 -0.0993  0.0954
 9878TIP3   OH251048   6.057   4.121  16.989  0.1204  0.3191  0.4781
 9878TIP3    H151049   6.027   4.205  16.956  1.7153  0.4717 -0.6800
 9878TIP3    H251050   6.139   4.105  16.943  1.0296 -0.7851  2.3804
 9879TIP3   OH251051   0.341   3.077  12.074  0.0829 -0.0808  0.8601
 9879TIP3    H151052   0.351   3.121  11.990 -3.2326 -1.1216 -0.2311
 9879TIP3    H251053   0.342   3.148  12.138  1.4768  0.8465 -0.1332
 9880TIP3   OH251054   3.052   1.035  12.148  0.1557 -0.4404  0.0501
 9880TIP3    H151055   3.057   1.066  12.238 -0.5318 -0.9203  0.2572
 9880TIP3    H251056   3.104   1.098  12.098 -0.8463  0.7856  0.5297
 9881TIP3   OH251057   4.874   1.883   3.042 -0.4958  0.1582 -0.3135
 9881TIP3    H151058   4.821   1.821   3.093  0.8329 -1.5307 -0.9062
 9881TIP3    H251059   4.904   1.948   3.106 -1.2597 -0.2418  0.4706
 9882TIP3   OH251060   1.064   2.292  11.299  0.7068  0.7427 -0.0483
 9882TIP3    H151061   1.022   2.280  11.214  0.9322  0.5020 -0.1239
 9882TIP3    H251062   1.157   2.304  11.279  0.7863  0.5141  0.1761
 9883TIP3   OH251063   0.828   2.827  11.557 -0.6296 -0.2701  0.4509
 9883TIP3    H151064   0.856   2.851  11.645  1.3443 -2.6184  0.5482
 9883TIP3    H251065   0.741   2.789  11.569 -0.8794  0.5039  1.1871
 9884TIP3   OH251066   1.403   3.579   3.064 -0.1219  0.0342  0.2172
 9884TIP3    H151067   1.455   3.589   3.144 -0.1533 -1.2509  0.4120
 9884TIP3    H251068   1.467   3.581   2.993 -0.0031  0.3037  0.3317
 9885TIP3   OH251069   6.202   3.026   4.761  1.0356 -0.1193  0.4602
 9885TIP3    H151070   6.126   3.057   4.712  0.6752 -1.1399  0.3479
 9885TIP3    H251071   6.170   3.013   4.850  1.3939  0.6073  0.7016
 9886TIP3   OH251072   0.243   2.184   1.565  0.5387  0.0020  0.2457
 9886TIP3    H151073   0.207   2.107   1.608  2.0451 -1.3709 -0.8339
 9886TIP3    H251074   0.338   2.172   1.571  0.7996  1.5400 -0.3882
 9887TIP3   OH251075   0.452   1.214   1.296  0.2700 -0.4269  0.4637
 9887TIP3    H151076   0.401   1.247   1.370 -1.5297 -0.3512 -0.7496
 9887TIP3    H251077   0.507   1.288   1.270 -2.5536  1.2690 -1.2123
 9888TIP3   OH251078   2.945   3.857  13.499  0.0485 -0.2728  0.0528
 9888TIP3    H151079   2.871   3.879  13.443 -0.8367 -0.9232  0.9395
 9888TIP3    H251080   3.000   3.802  13.444 -0.0595  0.2961 -0.6472
 9889TIP3   OH251081   0.233   2.599  16.975 -0.0981 -0.1166  0.6166
 9889TIP3    H151082   0.295   2.541  16.931 -2.1298 -0.7582 -1.6098
 9889TIP3    H251083   0.280   2.682  16.983  2.3356 -1.5190  2.5033
 9890TIP3   OH251084   5.431   1.910  13.095  0.2307 -0.2859  0.5085
 9890TIP3    H151085   5.520   1.874  13.091  0.3548  0.0540  0.1229
 9890TIP3    H251086   5.406   1.903  13.187  0.0998 -1.7158  0.3807
 9891TIP3   OH251087   6.569   0.968   4.643 -0.1321 -0.8886  0.1032
 9891TIP3    H151088   6.506   1.039   4.655 -0.0393 -0.9125  0.7809
 9891TIP3    H251089   6.652   1.013   4.629 -0.2089 -0.8590 -0.2533
 9892TIP3   OH251090   1.169   0.032   0.766  0.0681  0.0636  0.1349
 9892TIP3    H151091   1.210   0.062   0.685  0.3338 -1.1759 -0.1967
 9892TIP3    H251092   1.242   0.015   0.826 -0.1440  1.7006  0.9408
 9893TIP3   OH251093   3.419   2.555  12.555 -0.1490 -0.2330 -0.1513
 9893TIP3    H151094   3.325   2.572  12.550 -0.1129  0.4599  1.1026
 9893TIP3    H251095   3.432   2.476  12.503 -1.2222  0.3700 -1.3828
 9894TIP3   OH251096   2.101   2.325  14.399  0.4755  0.0272 -0.0614
 9894TIP3    H151097   2.066   2.365  14.320 -1.4471  1.6103  1.4536
 9894TIP3    H251098   2.117   2.399  14.458  3.0448 -0.9781  0.6578
 9895TIP3   OH251099   6.331   3.948   5.385  0.3489  0.5070  0.3379
 9895TIP3    H151100   6.397   3.974   5.450 -0.7063  0.7524  1.3295
 9895TIP3    H251101   6.247   3.972   5.424 -0.3652 -0.1134 -0.7606
 9896TIP3   OH251102   4.052   6.479  13.315  0.4892  0.3754 -0.1171
 9896TIP3    H151103   3.975   6.535  13.307  0.3167 -0.0445 -2.0688
 9896TIP3    H251104   4.019   6.390  13.306  0.5755 -0.3143  4.2954
 9897TIP3   OH251105   3.541   2.374   3.831  0.0075 -0.0911  0.4500
 9897TIP3    H151106   3.469   2.395   3.771 -2.7815 -2.8590  2.5391
 9897TIP3    H251107   3.569   2.459   3.865 -1.9933  1.1318 -0.7455
 9898TIP3   OH251108   4.119   5.672   6.181 -0.0149 -0.8920 -0.4176
 9898TIP3    H151109   4.189   5.731   6.209 -0.0721 -0.3893 -1.3101
 9898TIP3    H251110   4.114   5.607   6.251 -0.4006  0.5215  0.9203
 9899TIP3   OH251111   5.791   3.572   5.656  0.3549  0.0915  0.2190
 9899TIP3    H151112   5.703   3.606   5.674  0.1024 -0.8378  0.8057
 9899TIP3    H251113   5.834   3.569   5.741  0.5306 -0.5882  0.1140
 9900TIP3   OH251114   4.682   5.946  15.200 -0.1617  0.4504 -0.2020
 9900TIP3    H151115   4.591   5.974  15.187 -0.5066 -0.1217  0.8990
 9900TIP3    H251116   4.696   5.950  15.294  0.7345 -0.1700 -0.2939
 9901TIP3   OH251117   3.132   0.113  16.210 -0.2261 -0.7913  0.2376
 9901TIP3    H151118   3.132   0.062  16.291 -0.7497  2.1106  2.2138
 9901TIP3    H251119   3.069   0.183  16.226  1.2253  1.1183 -1.8213
 9902TIP3   OH251120   4.364   4.638  14.785 -0.2381  0.7296  0.8395
 9902TIP3    H151121   4.426   4.615  14.715 -1.2264 -0.9369  0.4713
 9902TIP3    H251122   4.285   4.665  14.739 -0.4848  0.8325  1.3195
 9903TIP3   OH251123   1.713   3.298  16.227 -0.2585 -0.3949 -0.4434
 9903TIP3    H151124   1.630   3.324  16.268  1.0746  0.7822  1.6802
 9903TIP3    H251125   1.770   3.375  16.238  1.3556 -1.4512 -1.1343
 9904TIP3   OH251126   3.078   2.557   0.335 -0.3036 -0.1356 -0.4031
 9904TIP3    H151127   3.079   2.497   0.409  2.2736 -0.5747 -0.7057
 9904TIP3    H251128   3.102   2.642   0.372 -0.8559  0.0471 -0.4570
 9905TIP3   OH251129   2.780   6.590  13.342 -0.1143 -0.5256 -0.7336
 9905TIP3    H151130   2.806   6.630  13.260 -0.0518 -1.2168 -1.0635
 9905TIP3    H251131   2.854   6.534  13.365 -0.3590 -0.7532 -0.4916
 9906TIP3   OH251132   4.345   4.009   5.218  0.2320  0.2982 -0.3126
 9906TIP3    H151133   4.434   4.001   5.252  0.6609  1.5395 -1.0725
 9906TIP3    H251134   4.354   3.997   5.124 -0.5241 -0.2985 -0.3212
 9907TIP3   OH251135   0.278   0.620  16.586 -0.1495  0.0926  0.9009
 9907TIP3    H151136   0.303   0.598  16.676  0.8110 -0.4026  0.5244
 9907TIP3    H251137   0.347   0.679  16.556  0.7388 -1.4756 -0.2346
 9908TIP3   OH251138   0.157   2.209   0.500 -0.4136  0.2594  0.6636
 9908TIP3    H151139   0.132   2.183   0.589 -0.4158  0.8917  0.8532
 9908TIP3    H251140   0.251   2.225   0.505 -0.8153  2.7485  1.1915
 9909TIP3   OH251141   6.140   4.558   4.330 -0.9088 -0.6849 -0.4430
 9909TIP3    H151142   6.181   4.604   4.258  2.0562  0.8375  1.9652
 9909TIP3    H251143   6.199   4.485   4.349 -0.4197  0.1669  1.6520
 9910TIP3   OH251144   4.172   1.197   1.741  0.0739 -0.6132 -0.5665
 9910TIP3    H151145   4.109   1.269   1.735  0.6516 -0.0428  0.0871
 9910TIP3    H251146   4.151   1.141   1.666 -0.9204 -0.2040 -0.6169
 9911TIP3   OH251147   1.660   0.762  13.080  0.5531  0.5235  0.0476
 9911TIP3    H151148   1.667   0.719  13.166  0.8041 -1.2565 -0.8155
 9911TIP3    H251149   1.587   0.822  13.089 -0.5148 -0.8645  1.0347
 9912TIP3   OH251150   5.789   4.627   2.860 -0.2325  0.2214 -0.6955
 9912TIP3    H151151   5.802   4.676   2.779  1.4167  0.5069 -0.2976
 9912TIP3    H251152   5.771   4.693   2.927 -0.6617  0.0584 -0.6426
 9913TIP3   OH251153   1.966   0.416   3.580  0.1411 -0.7424 -0.1520
 9913TIP3    H151154   2.013   0.406   3.663 -0.9808 -0.6308  0.5230
 9913TIP3    H251155   1.965   0.329   3.542  0.0070 -0.9436  0.3158
 9914TIP3   OH251156   6.178   2.655  12.052  1.1886  0.8907  0.5758
 9914TIP3    H151157   6.184   2.569  12.094  0.0073  0.9309  0.8650
 9914TIP3    H251158   6.125   2.640  11.974 -1.5453  1.8152  2.1145
 9915TIP3   OH251159   4.503   2.529   0.275  0.4312 -0.8517 -0.2608
 9915TIP3    H151160   4.583   2.577   0.298  0.4161 -1.0132  0.1370
 9915TIP3    H251161   4.479   2.482   0.355 -1.1022  0.6568  0.2401
 9916TIP3   OH251162   1.376   6.602  10.562 -0.2622 -0.5178  0.0942
 9916TIP3    H151163   1.412   6.516  10.538 -2.2975 -1.9199  1.6639
 9916TIP3    H251164   1.406   6.616  10.652  2.2175  1.7550 -0.9628
 9917TIP3   OH251165   4.496   4.953   4.037 -0.3407  0.7961  0.0468
 9917TIP3    H151166   4.481   5.033   3.986 -0.2669  1.9783  1.7961
 9917TIP3    H251167   4.488   4.981   4.128 -1.2911 -1.4197  0.6945
 9918TIP3   OH251168   2.452   5.564   0.898  0.5381 -0.2230 -0.3786
 9918TIP3    H151169   2.447   5.589   0.805 -1.7444  1.9418  0.2407
 9918TIP3    H251170   2.476   5.645   0.943 -1.8588 -0.3361  1.2366
 9919TIP3   OH251171   5.320   6.451  16.888 -0.6655 -0.0692 -0.1222
 9919TIP3    H151172   5.306   6.397  16.810 -1.9761 -0.1325  0.1429
 9919TIP3    H251173   5.415   6.467  16.888 -0.1615 -2.5953 -0.0524
 9920TIP3   OH251174   1.294   3.524  12.934 -0.2729 -0.2692  0.9192
 9920TIP3    H151175   1.327   3.439  12.965  0.7297 -0.3992 -0.4262
 9920TIP3    H251176   1.248   3.503  12.852  0.9126  0.6030  0.0009
 9921TIP3   OH251177   6.245   0.810   3.315  0.5008 -0.7685  0.5733
 9921TIP3    H151178   6.334   0.844   3.312  0.0252  0.5299  0.5573
 9921TIP3    H251179   6.231   0.772   3.228  0.0402  1.7907 -0.5770
 9922TIP3   OH251180   1.423   3.497   3.615  0.1099  0.4084 -0.1364
 9922TIP3    H151181   1.336   3.512   3.651  0.5745  0.9042  0.8429
 9922TIP3    H251182   1.455   3.420   3.662  1.6593  2.4498  2.4294
 9923TIP3   OH251183   3.292   1.092   0.944  0.1844  0.5404 -0.1639
 9923TIP3    H151184   3.379   1.129   0.957  0.4555 -0.3907  0.8106
 9923TIP3    H251185   3.295   1.053   0.857  0.5880  0.9067 -0.3187
 9924TIP3   OH251186   4.803   0.330   1.943  0.4692 -0.3626 -0.3732
 9924TIP3    H151187   4.778   0.285   2.023 -0.7068  0.2071 -0.4089
 9924TIP3    H251188   4.722   0.333   1.891  0.5932  1.4893 -0.5117
 9925TIP3   OH251189   1.528   3.887   0.533 -0.2984  0.3451  0.2275
 9925TIP3    H151190   1.533   3.982   0.526 -0.9815  0.5048  1.6176
 9925TIP3    H251191   1.575   3.855   0.455  1.7401  1.7744  0.7860
 9926TIP3   OH251192   1.063   4.052  16.602 -0.1821 -0.2671  0.2181
 9926TIP3    H151193   0.989   3.992  16.607 -1.1270  0.9566  1.4791
 9926TIP3    H251194   1.129   4.014  16.661  0.1457 -1.2225 -0.7200
 9927TIP3   OH251195   5.716   4.842  11.696 -0.1768  0.3366  0.2653
 9927TIP3    H151196   5.799   4.804  11.668  0.0448  0.8394  0.2193
 9927TIP3    H251197   5.725   4.853  11.791 -0.6547 -0.7113  0.4396
 9928TIP3   OH251198   5.213   6.542   5.147 -0.4713  0.0956  0.0119
 9928TIP3    H151199   5.145   6.503   5.202  0.0254 -0.7607  0.0505
 9928TIP3    H251200   5.223   6.631   5.181 -0.6700 -0.1900  0.8646
 9929TIP3   OH251201   6.585   2.487  14.520 -0.1123  0.3614  0.3527
 9929TIP3    H151202   6.582   2.409  14.577  1.7940 -0.7322 -0.9569
 9929TIP3    H251203   6.623   2.555  14.576 -0.8222  0.1007  1.1942
 9930TIP3   OH251204   1.038   4.438  12.354 -0.2439  0.6517 -0.0606
 9930TIP3    H151205   1.039   4.389  12.436 -0.8905  0.2909 -0.2641
 9930TIP3    H251206   1.130   4.464  12.341 -0.1175  0.6191  0.7110
 9931TIP3   OH251207   3.778   5.563  13.375  0.7149  0.2882  0.3562
 9931TIP3    H151208   3.803   5.488  13.321 -0.8745 -0.1947  0.2440
 9931TIP3    H251209   3.712   5.609  13.324 -0.3423  0.1912  1.5659
 9932TIP3   OH251210   0.041   5.216   5.538  0.4339  0.2357  0.5656
 9932TIP3    H151211  -0.005   5.291   5.499  1.5273  0.4762 -0.3171
 9932TIP3    H251212   0.132   5.245   5.546  1.1161 -1.3414 -0.8479
 9933TIP3   OH251213   1.234   3.612  15.215  0.5865  0.4130  0.3731
 9933TIP3    H151214   1.267   3.701  15.210 -0.6236  0.8230 -2.2807
 9933TIP3    H251215   1.139   3.622  15.226  0.4311 -0.5091 -0.0037
 9934TIP3   OH251216   3.835   1.256   5.486 -0.2383 -0.1705 -0.0306
 9934TIP3    H151217   3.917   1.238   5.440 -0.1356 -0.6238  0.3292
 9934TIP3    H251218   3.824   1.183   5.547 -1.2846 -0.5047 -0.5932
 9935TIP3   OH251219   4.174   1.799  13.927  0.2845  0.1139 -0.1369
 9935TIP3    H151220   4.261   1.787  13.890  0.7638 -1.5954  1.4136
 9935TIP3    H251221   4.125   1.721  13.901  0.0501 -0.2053  1.2064
 9936TIP3   OH251222   5.470   4.976   5.255  0.3917  0.5582 -0.1991
 9936TIP3    H151223   5.515   4.939   5.179 -1.1398  0.9894 -1.3652
 9936TIP3    H251224   5.398   4.915   5.272  1.9084 -0.6893  2.2874
 9937TIP3   OH251225   1.260   2.347   5.501  0.0931 -0.1125 -0.0704
 9937TIP3    H151226   1.201   2.421   5.487 -1.7160 -1.8692 -2.4190
 9937TIP3    H251227   1.212   2.287   5.558  2.0457  0.8996  2.8897
 9938TIP3   OH251228   6.595   1.380   0.617  0.0633  0.0799  0.4980
 9938TIP3    H151229   6.611   1.295   0.658  0.3925  0.3581  0.9533
 9938TIP3    H251230   6.670   1.393   0.559  0.2033  0.2265  0.7099
 9939TIP3   OH251231   3.996   1.477  14.343  0.7536 -0.5894 -0.7419
 9939TIP3    H151232   3.954   1.435  14.418  2.2121  0.0079  0.4609
 9939TIP3    H251233   3.962   1.567  14.344  1.9934 -0.1008  0.2424
 9940TIP3   OH251234   6.517   1.627  15.882  0.8913  0.0396  0.1806
 9940TIP3    H151235   6.561   1.548  15.913  0.0497 -1.9427 -3.1128
 9940TIP3    H251236   6.427   1.599  15.864  0.2307  2.0842 -0.0149
 9941TIP3   OH251237   3.629   2.399  15.973  0.5300  0.0515 -0.4124
 9941TIP3    H151238   3.593   2.314  15.997  0.3740  0.9678  3.2619
 9941TIP3    H251239   3.717   2.380  15.942 -0.6330 -1.6270 -3.0263
 9942TIP3   OH251240   3.603   2.270  11.511 -0.1860 -0.0374 -0.4659
 9942TIP3    H151241   3.540   2.342  11.511  0.6259  0.7016 -1.5465
 9942TIP3    H251242   3.625   2.258  11.419  1.6510  0.0873 -0.0748
 9943TIP3   OH251243   1.949   4.595  13.799 -0.3200 -0.1344  0.1269
 9943TIP3    H151244   1.873   4.622  13.851 -0.4982  0.1194 -0.2564
 9943TIP3    H251245   2.007   4.552  13.861 -0.3282  0.5627  0.6337
 9944TIP3   OH251246   2.450   6.756  15.679 -0.1679 -0.3170 -0.4097
 9944TIP3    H151247   2.407   6.678  15.715 -0.9475  0.5310  0.5362
 9944TIP3    H251248   2.519   6.720  15.623  0.3762 -1.7140  1.0535
 9945TIP3   OH251249   1.765   3.876   5.185  0.5116  0.0044 -0.2717
 9945TIP3    H151250   1.683   3.913   5.153  0.2108  0.7634  1.2896
 9945TIP3    H251251   1.804   3.835   5.108 -0.6929  0.7810 -1.3400
 9946TIP3   OH251252   6.435   2.383   2.529  0.8292  0.1680  0.4690
 9946TIP3    H151253   6.420   2.306   2.584  1.1245 -0.5127 -0.3781
 9946TIP3    H251254   6.352   2.429   2.529  0.6367 -0.1685  0.9622
 9947TIP3   OH251255   6.255   1.940  17.036  0.3331 -0.3873 -0.0801
 9947TIP3    H151256   6.345   1.907  17.039  0.0346 -1.6230 -2.3304
 9947TIP3    H251257   6.249   1.984  16.951 -0.6455  1.5206  0.9008
 9948TIP3   OH251258   0.178   2.109   2.503 -0.4505 -0.2243 -0.2461
 9948TIP3    H151259   0.225   2.156   2.435 -1.5143 -0.1897 -0.9727
 9948TIP3    H251260   0.092   2.151   2.508 -0.8732 -1.0862  0.1632
 9949TIP3   OH251261   6.058   4.531   0.603  0.2888  0.1332 -0.7815
 9949TIP3    H151262   6.141   4.554   0.645 -1.1863  1.1748  1.8061
 9949TIP3    H251263   6.036   4.608   0.550 -0.2411  0.9834  0.6274
 9950TIP3   OH251264   6.190   3.967  15.153 -0.4718  0.2960  0.1918
 9950TIP3    H151265   6.149   4.039  15.200 -1.3694 -0.2894  0.3385
 9950TIP3    H251266   6.192   3.895  15.217  0.1086  0.0925 -0.0511
 9951TIP3   OH251267   1.026   0.082  11.820 -0.5854  0.5379 -0.6525
 9951TIP3    H151268   1.118   0.070  11.793 -0.7772 -1.8696 -0.4290
 9951TIP3    H251269   0.982   0.113  11.741  0.0943 -0.0154 -1.2622
 9952TIP3   OH251270   1.265   6.756  12.611  0.3637  0.4562  0.2101
 9952TIP3    H151271   1.219   6.838  12.592 -0.3630  0.0971  0.4150
 9952TIP3    H251272   1.311   6.773  12.694 -1.0576  0.1549  1.0888
 9953TIP3   OH251273   3.268   0.729   4.685  0.1748 -0.6323  0.1959
 9953TIP3    H151274   3.334   0.783   4.641 -1.4653  0.9023 -0.5106
 9953TIP3    H251275   3.253   0.773   4.769 -0.4634 -0.5242  0.0330
 9954TIP3   OH251276   4.521   5.410   0.101 -0.4665 -0.3106 -0.4181
 9954TIP3    H151277   4.581   5.343   0.070 -0.7135 -0.0634 -1.4621
 9954TIP3    H251278   4.434   5.379   0.074 -0.5997  0.3337 -0.7553
 9955TIP3   OH251279   4.867   3.735  13.593 -0.0150  0.6839  0.0786
 9955TIP3    H151280   4.899   3.654  13.634  1.9522 -0.3107 -3.0721
 9955TIP3    H251281   4.896   3.805  13.651  0.9016 -0.7077  1.3740
 9956TIP3   OH251282   2.922   6.782   5.749  0.3412  1.1383 -0.5001
 9956TIP3    H151283   2.893   6.786   5.658  2.6170 -2.6598 -1.6153
 9956TIP3    H251284   3.016   6.768   5.744  0.1436 -2.8530  2.1073
 9957TIP3   OH251285   5.808   3.697   1.448  0.4808 -0.0362  0.4918
 9957TIP3    H151286   5.793   3.663   1.360  0.4865  0.9828  0.0772
 9957TIP3    H251287   5.901   3.684   1.463  1.0420  2.0947 -0.7177
 9958TIP3   OH251288   2.086   6.170  11.514 -0.5362 -0.4991 -0.4629
 9958TIP3    H151289   2.173   6.178  11.554  0.0279 -0.2077 -1.7136
 9958TIP3    H251290   2.030   6.229  11.565  0.2514  0.1320 -0.3206
 9959TIP3   OH251291   6.359   4.656  13.044 -0.2865  0.3186  0.6353
 9959TIP3    H151292   6.429   4.638  13.107  0.5102  0.6658 -0.1330
 9959TIP3    H251293   6.378   4.597  12.970 -0.0281  1.3665 -0.1479
 9960TIP3   OH251294   4.507   6.461  11.198 -0.0775  0.1049  0.1294
 9960TIP3    H151295   4.468   6.394  11.254 -0.4970 -0.1047 -0.4009
 9960TIP3    H251296   4.451   6.463  11.121  0.7654  0.0492 -0.4992
 9961TIP3   OH251297   3.452   0.298   0.728  0.6462 -0.0830 -0.0895
 9961TIP3    H151298   3.471   0.213   0.768  0.6914  0.1252  0.3414
 9961TIP3    H251299   3.374   0.329   0.773  0.9589  0.3564  0.1602
 9962TIP3   OH251300   1.778   0.536  16.860 -0.3305  0.0001 -0.4050
 9962TIP3    H151301   1.745   0.459  16.906  0.4426 -0.9531 -1.4120
 9962TIP3    H251302   1.707   0.600  16.866 -1.2214 -1.0020 -0.0938
 9963TIP3   OH251303   2.773   6.253  15.330 -0.3034  0.2073  0.0767
 9963TIP3    H151304   2.756   6.347  15.334 -0.9507  0.1255 -0.6168
 9963TIP3    H251305   2.868   6.247  15.315 -0.1787  0.7295  0.5956
 9964TIP3   OH251306   0.848   0.164   0.437 -0.4158 -0.2584 -0.0947
 9964TIP3    H151307   0.848   0.209   0.522  0.2663  2.6528 -1.5046
 9964TIP3    H251308   0.898   0.084   0.452 -2.0205 -0.8892  2.6765
 9965TIP3   OH251309   2.550   6.349  12.195 -0.0072 -0.1793 -0.2695
 9965TIP3    H151310   2.603   6.390  12.127 -0.1778 -1.3051 -1.1151
 9965TIP3    H251311   2.468   6.398  12.195  0.1393  0.0696 -0.6250
 9966TIP3   OH251312   5.308   2.291   1.438 -0.0691 -0.4370 -0.4167
 9966TIP3    H151313   5.215   2.285   1.456 -0.1535 -0.3242 -0.8062
 9966TIP3    H251314   5.350   2.257   1.517 -0.4517 -2.2800 -0.9671
 9967TIP3   OH251315   6.601   0.690  11.995 -0.3360 -0.8196 -0.3918
 9967TIP3    H151316   6.557   0.606  12.012 -1.9762  0.1088  0.1486
 9967TIP3    H251317   6.585   0.707  11.902  0.3920 -1.3003 -0.6156
 9968TIP3   OH251318   4.226   2.340   3.681  0.2826  0.2406 -0.3799
 9968TIP3    H151319   4.183   2.425   3.680 -1.6131 -0.6244  0.7005
 9968TIP3    H251320   4.182   2.290   3.611 -1.4072 -1.0145  1.4552
 9969TIP3   OH251321   3.452   0.169  12.286  0.6911  0.4066 -0.5538
 9969TIP3    H151322   3.452   0.089  12.340 -0.6474  0.8692  0.1596
 9969TIP3    H251323   3.440   0.137  12.196  0.3219 -0.2121 -0.2923
 9970TIP3   OH251324   4.966   3.916  15.187  0.8111 -0.1378 -0.3583
 9970TIP3    H151325   4.875   3.930  15.160  0.9730  3.1365  0.3657
 9970TIP3    H251326   4.959   3.878  15.275  0.0612  1.0584  0.1301
 9971TIP3   OH251327   3.214   5.117  15.637 -0.0908  0.8926  0.1997
 9971TIP3    H151328   3.138   5.123  15.696 -1.7720  1.7516 -1.9036
 9971TIP3    H251329   3.195   5.041  15.581  1.3926  0.1801  0.6117
 9972TIP3   OH251330   6.274   0.212  15.633 -0.1649  0.2045 -0.1024
 9972TIP3    H151331   6.315   0.173  15.555  0.4123 -0.7903  0.6880
 9972TIP3    H251332   6.249   0.300  15.604 -1.1164 -0.5688 -1.7918
 9973TIP3   OH251333   5.891   2.579  15.070  0.0211 -0.0433  0.0954
 9973TIP3    H151334   5.806   2.580  15.028  0.1803 -0.6941 -0.2536
 9973TIP3    H251335   5.888   2.650  15.134 -0.0854  1.2139 -1.2742
 9974TIP3   OH251336   6.313   5.687   4.448  0.2589  0.4161  0.1381
 9974TIP3    H151337   6.314   5.737   4.530 -0.5725 -1.1368  1.1541
 9974TIP3    H251338   6.381   5.621   4.460 -1.0119 -0.9064  0.3327
 9975TIP3   OH251339   6.215   5.384   4.944  0.7670  0.3516 -0.0789
 9975TIP3    H151340   6.125   5.415   4.938  0.8514  0.5455 -0.4190
 9975TIP3    H251341   6.234   5.382   5.038  0.4936  0.5518 -0.0179
 9976TIP3   OH251342   6.697   3.107   4.079 -0.4668 -0.1380  0.5535
 9976TIP3    H151343   6.652   3.122   3.996 -1.1852 -2.9206  0.3669
 9976TIP3    H251344   6.649   3.163   4.141 -1.9634 -0.3869 -0.3177
 9977TIP3   OH251345   1.593   0.882  16.314  0.0361 -0.3751 -0.0446
 9977TIP3    H151346   1.584   0.971  16.349  0.9063 -0.1648 -0.3439
 9977TIP3    H251347   1.513   0.838  16.341 -0.4982  0.5587 -0.0616
 9978TIP3   OH251348   5.221   6.750  10.603 -0.2123 -0.3575  0.0834
 9978TIP3    H151349   5.153   6.693  10.566 -0.0144  0.2169 -1.1982
 9978TIP3    H251350   5.303   6.715  10.568 -0.1222  0.9779 -1.1045
 9979TIP3   OH251351   3.808   4.118  14.510 -0.3726 -0.2926 -0.1920
 9979TIP3    H151352   3.840   4.028  14.512 -0.3175 -0.2689  0.3171
 9979TIP3    H251353   3.714   4.110  14.492  0.1130 -0.2851 -3.2083
 9980TIP3   OH251354   4.337   3.692   0.081  0.5890  0.5144 -0.2002
 9980TIP3    H151355   4.424   3.652   0.083  0.1724 -0.4199 -0.1033
 9980TIP3    H251356   4.278   3.620   0.061 -0.5564  0.3623  3.0473
 9981TIP3   OH251357   0.907   2.380  16.472 -0.7177 -0.0240 -0.0908
 9981TIP3    H151358   0.897   2.474  16.456 -1.0214 -0.0846 -0.2572
 9981TIP3    H251359   0.977   2.375  16.538  0.5932  0.2333 -1.3883
 9982TIP3   OH251360   1.157   4.895  14.271 -0.6412 -0.3428  0.2912
 9982TIP3    H151361   1.122   4.905  14.359 -0.8203  0.8282  0.0954
 9982TIP3    H251362   1.080   4.895  14.214 -0.5187 -0.9655  0.1151
 9983TIP3   OH251363   2.545   3.173  11.900  0.4214  0.5785  0.0961
 9983TIP3    H151364   2.634   3.183  11.933  0.2579 -0.7073  1.0366
 9983TIP3    H251365   2.489   3.193  11.976 -0.0293 -0.0859 -0.0451
 9984TIP3   OH251366   0.461   3.428   4.344 -0.2677  0.4864 -0.3350
 9984TIP3    H151367   0.423   3.504   4.388 -1.5641 -1.4605  2.2452
 9984TIP3    H251368   0.389   3.391   4.293 -0.0648  0.2023 -0.4175
 9985TIP3   OH251369   3.301   2.075  14.721 -0.4369 -0.2359  0.6651
 9985TIP3    H151370   3.221   2.074  14.669  0.1322  1.3844 -0.3009
 9985TIP3    H251371   3.276   2.119  14.802 -1.0290 -1.6776  1.2915
 9986TIP3   OH251372   4.640   5.506  15.658 -0.4094  0.4218  0.5325
 9986TIP3    H151373   4.583   5.547  15.723  0.4288  0.3749  1.3278
 9986TIP3    H251374   4.597   5.423  15.637 -0.6827  0.4269  1.0568
 9987TIP3   OH251375   4.434   3.053   1.930  0.1501 -0.1025  0.2100
 9987TIP3    H151376   4.354   3.073   1.979  0.3282 -1.6515  1.1847
 9987TIP3    H251377   4.403   3.010   1.850 -0.0017 -1.7876  1.1245
 9988TIP3   OH251378   4.774   4.351   5.368  0.2488 -0.3462 -0.1198
 9988TIP3    H151379   4.731   4.326   5.286  1.0288 -1.2314 -0.2681
 9988TIP3    H251380   4.744   4.441   5.383 -1.0838 -0.6832 -0.5853
 9989TIP3   OH251381   6.667   0.554  16.689  0.0950  0.2051  0.0498
 9989TIP3    H151382   6.573   0.550  16.668 -0.1629  0.6931  1.0314
 9989TIP3    H251383   6.672   0.530  16.781  0.8952  0.5504  0.1069
 9990TIP3   OH251384   4.732   3.998   3.468 -0.1793 -0.6257  0.0200
 9990TIP3    H151385   4.775   4.061   3.526  0.6889  0.0193 -1.2814
 9990TIP3    H251386   4.639   4.022   3.472  0.2228  1.4580 -1.2050
 9991TIP3   OH251387   1.122   5.131   3.809 -1.2134 -0.3805 -0.0499
 9991TIP3    H151388   1.170   5.208   3.779 -1.2283  0.1302  1.1591
 9991TIP3    H251389   1.147   5.062   3.748  0.0476  0.1939 -0.2224
 9992TIP3   OH251390   1.104   5.772   6.517  0.2612  0.1608  0.2932
 9992TIP3    H151391   1.140   5.685   6.532 -0.2016  0.1347  1.3099
 9992TIP3    H251392   1.034   5.758   6.453  1.8363  0.1832 -1.5438
 9993TIP3   OH251393   1.280   4.216  15.030 -0.0669  0.4997  0.0313
 9993TIP3    H151394   1.359   4.205  15.082 -0.1077  1.3932  0.2978
 9993TIP3    H251395   1.221   4.147  15.060 -0.1146  1.0496  1.2353
 9994TIP3   OH251396   1.342   5.208  15.341 -0.3235  0.0450  0.1044
 9994TIP3    H151397   1.384   5.240  15.262 -0.7727  0.6285  0.0959
 9994TIP3    H251398   1.400   5.139  15.373  0.4019  0.5273 -0.1505
 9995TIP3   OH251399   0.148   1.911   0.241 -0.2483 -0.1083  0.0204
 9995TIP3    H151400   0.173   2.003   0.230  1.3989 -0.4927  0.1862
 9995TIP3    H251401   0.232   1.864   0.243 -0.8802 -1.3087  2.8076
 9996TIP3   OH251402   3.187   3.639   4.219  0.2423  0.2850 -0.0364
 9996TIP3    H151403   3.260   3.630   4.280  1.4608 -0.4236 -1.5364
 9996TIP3    H251404   3.166   3.732   4.219 -0.2440  0.2161  1.9393
 9997TIP3   OH251405   2.143   3.810   1.469 -0.0491 -0.0693 -0.3900
 9997TIP3    H151406   2.116   3.758   1.545 -0.8414 -1.2205 -1.4111
 9997TIP3    H251407   2.130   3.901   1.496  0.3467 -0.4257  1.0834
 9998TIP3   OH251408   1.783   5.793   3.768  0.1528  0.0620 -0.2129
 9998TIP3    H151409   1.758   5.882   3.741 -1.0667 -0.1312  0.2300
 9998TIP3    H251410   1.836   5.761   3.694 -0.8242  0.5389 -1.1517
 9999TIP3   OH251411   0.596   3.925  14.186 -0.5290  0.5481 -0.2995
 9999TIP3    H151412   0.636   3.848  14.227 -0.3829  0.6390 -0.2724
 9999TIP3    H251413   0.502   3.906  14.188 -0.5350  0.5964  0.1830
10000TIP3   OH251414   2.478   2.395  13.128 -0.3851  0.0615  0.7594
10000TIP3    H151415   2.563   2.359  13.155 -0.4905  0.8371  2.2807
10000TIP3    H251416   2.491   2.423  13.038  0.3952 -1.5813  0.3350
10001TIP3   OH251417   0.969   6.149  15.078  0.2863  0.4521  0.4835
10001TIP3    H151418   1.058   6.134  15.108 -0.0934 -0.5849  1.1639
10001TIP3    H251419   0.914   6.108  15.145 -0.6235 -1.2489 -1.1758
10002TIP3   OH251420   5.742   1.095   0.901  0.2546 -0.4312 -0.2485
10002TIP3    H151421   5.745   1.012   0.947 -2.7944 -0.5040  0.0420
10002TIP3    H251422   5.729   1.072   0.809 -1.5947 -0.3684 -0.0482
10003TIP3   OH251423   2.250   4.296   4.389 -0.2319 -0.1365  0.3237
10003TIP3    H151424   2.345   4.287   4.379 -0.1492  1.1788 -0.3134
10003TIP3    H251425   2.219   4.319   4.302 -1.1424 -0.5026  0.5406
10004TIP3   OH251426   1.594   5.503   5.328  0.1771 -0.1401  0.2904
10004TIP3    H151427   1.582   5.551   5.410 -1.7852  0.0736 -0.0721
10004TIP3    H251428   1.544   5.422   5.340 -0.1183 -0.1184 -0.6779
10005TIP3   OH251429   6.358   0.329  13.809  0.4681 -0.1002 -0.3551
10005TIP3    H151430   6.283   0.359  13.758  0.1628  0.5887  0.4688
10005TIP3    H251431   6.327   0.327  13.900  1.6237  0.9043  0.1037
10006TIP3   OH251432   1.129   0.252  11.068  0.3903 -0.5383 -0.2754
10006TIP3    H151433   1.152   0.160  11.070  0.0930 -0.6108 -0.1464
10006TIP3    H251434   1.039   0.254  11.035 -0.2436 -0.4249  1.3811
10007TIP3   OH251435   3.025   0.841  14.410  0.4950  0.1277 -0.3039
10007TIP3    H151436   3.104   0.789  14.399  0.6736  0.3940 -0.2868
10007TIP3    H251437   2.955   0.776  14.419  0.7203 -0.1087 -0.2365
10008TIP3   OH251438   0.280   5.795  13.096  0.1630 -0.1813 -0.0959
10008TIP3    H151439   0.279   5.795  13.191 -0.0288 -0.2053 -0.0979
10008TIP3    H251440   0.237   5.713  13.071  1.3947 -0.8311 -0.1915
10009TIP3   OH251441   6.348   1.473   4.920 -0.1578 -0.3874  0.1468
10009TIP3    H151442   6.395   1.401   4.879  2.7473  0.4501  1.7103
10009TIP3    H251443   6.267   1.434   4.952 -0.0336 -2.2380 -1.5999
10010TIP3   OH251444   1.057   3.204   2.378  0.3886  0.3481  0.1957
10010TIP3    H151445   1.077   3.287   2.422  1.6146  1.1387 -1.7170
10010TIP3    H251446   1.007   3.230   2.300  1.4002 -0.6248 -0.8075
10011TIP3   OH251447   4.303   3.994   3.904  0.5075 -0.0858  0.4598
10011TIP3    H151448   4.388   4.030   3.882  0.0489  0.9200  0.2852
10011TIP3    H251449   4.247   4.070   3.919 -1.4049 -0.5291 -3.2388
10012TIP3   OH251450   3.394   3.456  12.099 -0.2034 -0.3337  0.1654
10012TIP3    H151451   3.443   3.443  12.018  0.5808 -0.0266  0.5873
10012TIP3    H251452   3.361   3.369  12.121  0.9559 -0.7337  0.3905
10013TIP3   OH251453   4.138   2.535  15.110 -0.0580  0.6750 -0.7076
10013TIP3    H151454   4.109   2.451  15.146 -1.1378  1.0254 -0.7365
10013TIP3    H251455   4.134   2.523  15.015 -1.4507  1.1463 -0.7318
10014TIP3   OH251456   0.214   0.660   4.665  0.4669  0.9237 -0.6791
10014TIP3    H151457   0.160   0.583   4.646 -0.3168  1.1035  0.7366
10014TIP3    H251458   0.177   0.729   4.609 -0.1095  0.7706 -0.4971
10015TIP3   OH251459   2.187   0.424  17.120 -0.0721 -0.1860  0.3951
10015TIP3    H151460   2.220   0.334  17.118 -0.6310 -0.3889 -0.1509
10015TIP3    H251461   2.176   0.447  17.027 -2.7407 -0.6156  0.5358
10016TIP3   OH251462   4.089   0.489   3.043 -0.2600  0.3421  0.5110
10016TIP3    H151463   4.077   0.411   2.988  1.9936  0.7510 -0.6467
10016TIP3    H251464   4.014   0.544   3.021 -2.1863 -1.6324  1.7134
10017TIP3   OH251465   5.437   6.779  12.655  0.0965 -0.0981  0.5687
10017TIP3    H151466   5.405   6.697  12.618 -0.2413 -0.4095  1.5290
10017TIP3    H251467   5.389   6.847  12.607  0.2820 -0.4576 -0.1373
10018TIP3   OH251468   5.638   2.562  11.030 -0.1937 -0.1724 -0.3422
10018TIP3    H151469   5.655   2.469  11.042  3.2161  0.3272 -0.2540
10018TIP3    H251470   5.666   2.580  10.940  0.3487  0.9810  0.0386
10019TIP3   OH251471   6.522   0.831   2.510  0.1613  0.1715 -0.0487
10019TIP3    H151472   6.499   0.901   2.570  0.6237 -0.2500  0.6315
10019TIP3    H251473   6.467   0.846   2.433  0.0354  1.0908  0.2173
10020TIP3   OH251474   5.515   5.941  11.664  0.1770 -0.1392 -0.2529
10020TIP3    H151475   5.595   5.938  11.611  1.3061  1.1294  1.3114
10020TIP3    H251476   5.445   5.919  11.602  1.7294 -1.5005 -1.6120
10021TIP3   OH251477   3.070   6.025  16.257 -0.0918  0.3351 -0.3649
10021TIP3    H151478   3.147   5.998  16.206  0.0429  0.3068 -0.1496
10021TIP3    H251479   3.076   6.120  16.260  0.5243  0.2800  0.5532
10022TIP3   OH251480   0.369   1.695   5.450 -0.7543  0.3719  0.9246
10022TIP3    H151481   0.434   1.765   5.457 -0.3109 -0.0854  1.5623
10022TIP3    H251482   0.393   1.634   5.520  0.2344 -1.5596 -1.0069
10023TIP3   OH251483   1.021   4.838   2.705  0.0327 -0.2942  0.3159
10023TIP3    H151484   1.016   4.794   2.790  3.4061 -1.3540  0.1044
10023TIP3    H251485   1.057   4.772   2.646  0.3838  1.2348 -1.2756
10024TIP3   OH251486   0.097   4.994   4.436 -0.4403 -0.0703  0.1723
10024TIP3    H151487   0.081   4.978   4.529 -0.3032  0.4766  0.2915
10024TIP3    H251488   0.072   4.912   4.393  2.8273 -1.7074  1.0267
10025TIP3   OH251489   2.162   4.933  16.400  0.2167 -0.2201 -0.0231
10025TIP3    H151490   2.161   4.937  16.304 -0.3558 -0.0137 -0.0123
10025TIP3    H251491   2.192   5.020  16.427  0.1139 -0.1896 -0.0085
10026TIP3   OH251492   5.498   6.571   2.092 -0.1637 -0.1501 -0.4128
10026TIP3    H151493   5.525   6.552   2.002  1.4680  1.6591 -0.3812
10026TIP3    H251494   5.549   6.649   2.116 -0.2724 -0.7885  2.2006
10027TIP3   OH251495   3.500   4.486  15.878  0.3566  0.2806  0.3877
10027TIP3    H151496   3.577   4.520  15.923  1.2664  0.4222 -1.1806
10027TIP3    H251497   3.505   4.391  15.889  0.7546  0.2923  0.3318
10028TIP3   OH251498   2.473   0.326   1.669  0.4481 -0.3788 -0.0829
10028TIP3    H151499   2.410   0.260   1.640 -0.3034  1.1200 -2.0592
10028TIP3    H251500   2.419   0.392   1.712  1.2619 -1.2322  2.4714
10029TIP3   OH251501   5.252   5.739   4.651 -0.3108 -0.1240  0.0754
10029TIP3    H151502   5.159   5.753   4.631 -0.0949  0.9180 -0.2379
10029TIP3    H251503   5.297   5.814   4.612  0.7647 -1.0119 -0.4480
10030TIP3   OH251504   1.700   0.675  15.971  0.0062  0.1017  0.7669
10030TIP3    H151505   1.730   0.749  15.919  2.3335 -0.8797  0.6000
10030TIP3    H251506   1.705   0.600  15.911  0.8157 -0.7152  1.8141
10031TIP3   OH251507   1.003   2.993  16.622  0.0840  0.3959 -0.5355
10031TIP3    H151508   1.048   2.928  16.568  2.5808  1.2003  0.4309
10031TIP3    H251509   0.945   2.941  16.678  1.1306 -0.9014 -0.6118
10032TIP3   OH251510   5.840   2.346   2.074  0.1216 -0.1509  0.0898
10032TIP3    H151511   5.935   2.344   2.084  0.0542  0.5614  0.9976
10032TIP3    H251512   5.820   2.434   2.042 -0.3045  0.0862  0.9598
10033TIP3   OH251513   2.425   5.957   1.916 -0.1988 -0.1759  1.1701
10033TIP3    H151514   2.443   5.984   2.006 -0.8211  1.7571  0.7582
10033TIP3    H251515   2.505   5.913   1.888 -0.2673 -1.5038  2.8932
10034TIP3   OH251516   6.083   1.484   4.383 -0.5305 -0.3936 -0.0552
10034TIP3    H151517   5.988   1.488   4.382 -0.7075 -2.6588  1.3332
10034TIP3    H251518   6.110   1.532   4.304 -2.7359  0.9654 -0.0585
10035TIP3   OH251519   4.777   4.641  16.502  0.0775 -0.3074 -0.1331
10035TIP3    H151520   4.854   4.608  16.456 -0.5365 -2.6213  0.3948
10035TIP3    H251521   4.719   4.673  16.433  1.9433  2.7621 -0.4953
10036TIP3   OH251522   0.401   5.743  14.595 -0.5919 -0.2240 -0.1973
10036TIP3    H151523   0.411   5.833  14.564 -0.2248 -0.2260 -0.0947
10036TIP3    H251524   0.307   5.727  14.594 -0.7366  0.4824  0.6818
10037TIP3   OH251525   0.123   4.311  10.964 -0.1533  0.4866  0.5341
10037TIP3    H151526   0.095   4.271  10.882 -0.9005  0.2967  0.8691
10037TIP3    H251527   0.182   4.381  10.939  1.0955 -0.7363 -0.0885
10038TIP3   OH251528   0.544   1.426   5.098  0.0473 -0.0043  0.3026
10038TIP3    H151529   0.563   1.442   5.190 -1.0604 -0.9760  0.7238
10038TIP3    H251530   0.470   1.365   5.099  0.7107 -0.8800 -1.2364
10039TIP3   OH251531   1.164   3.254   0.857  0.0835 -0.0570 -0.0574
10039TIP3    H151532   1.107   3.181   0.881  0.8629 -0.1183  1.7921
10039TIP3    H251533   1.246   3.236   0.902  0.0794  2.2598  1.0305
10040TIP3   OH251534   2.969   4.662   0.246 -0.0467  0.1119  0.3636
10040TIP3    H151535   3.038   4.650   0.181 -1.3671 -2.5813 -0.6887
10040TIP3    H251536   3.013   4.649   0.330  0.9622 -0.4672 -0.2327
10041TIP3   OH251537   5.014   5.526   1.730 -0.5420 -0.2467  0.1565
10041TIP3    H151538   4.980   5.592   1.789 -1.5605 -0.4042 -0.2362
10041TIP3    H251539   5.103   5.555   1.710 -0.3456  0.0423  1.3936
10042TIP3   OH251540   6.018   2.706   1.782 -0.0604  0.3202 -0.1282
10042TIP3    H151541   5.975   2.711   1.697 -2.0185 -2.2990  0.5687
10042TIP3    H251542   6.106   2.674   1.763 -0.2211  0.5031 -1.2223
10043TIP3   OH251543   0.036   4.455  15.535  0.2978  0.2078 -0.7873
10043TIP3    H151544   0.027   4.361  15.554 -0.0962  0.2115 -0.9458
10043TIP3    H251545   0.007   4.499  15.614  2.2516  0.1906  0.0026
10044TIP3   OH251546   2.400   4.028  12.015 -0.1934 -0.1811  0.1916
10044TIP3    H151547   2.340   3.954  12.020 -0.4930  0.0288 -0.2653
10044TIP3    H251548   2.465   4.011  12.084 -0.7772 -0.4036  0.6955
10045TIP3   OH251549   4.706   5.732  15.461  0.4577  0.1179 -0.4034
10045TIP3    H151550   4.729   5.657  15.515 -0.6987 -0.7234 -1.0232
10045TIP3    H251551   4.746   5.713  15.376 -1.2557 -0.6859 -1.0783
10046TIP3   OH251552   3.087   5.157   3.464 -0.1483 -0.6316  0.7555
10046TIP3    H151553   3.130   5.134   3.546  1.6446  0.8195  0.2985
10046TIP3    H251554   3.079   5.252   3.466  2.4647 -0.1725 -1.7722
10047TIP3   OH251555   1.114   3.210   1.253 -0.1369 -0.2729 -0.5804
10047TIP3    H151556   1.117   3.265   1.174 -2.0409 -1.9258 -1.8908
10047TIP3    H251557   1.184   3.146   1.240  1.1169  0.8723  0.2575
10048TIP3   OH251558   0.321   5.345  14.601 -0.7487 -0.3670 -0.4784
10048TIP3    H151559   0.270   5.405  14.654  0.4251 -0.6916  1.0927
10048TIP3    H251560   0.326   5.265  14.653  2.0002 -0.0826 -0.1611
10049TIP3   OH251561   1.316   2.223   0.674  0.8118 -0.6755 -0.2770
10049TIP3    H151562   1.276   2.144   0.638 -3.6805  1.7690 -1.3748
10049TIP3    H251563   1.360   2.263   0.599  0.6173 -0.7579 -0.4389
10050TIP3   OH251564   2.862   2.893   5.669 -0.2644 -0.6534  0.2771
10050TIP3    H151565   2.940   2.853   5.630 -0.2401  0.3029 -0.7348
10050TIP3    H251566   2.801   2.901   5.595 -0.1311  1.4391  0.3336
10051TIP3   OH251567   0.678   3.866  11.803 -0.0795  0.3050  0.1926
10051TIP3    H151568   0.684   3.772  11.822  2.0997  0.6270  1.5175
10051TIP3    H251569   0.644   3.905  11.883 -0.8486  0.6922 -0.3071
10052TIP3   OH251570   2.499   2.427  14.767  0.2733  0.4604  0.3614
10052TIP3    H151571   2.553   2.501  14.741  1.6899 -0.6494  0.0026
10052TIP3    H251572   2.509   2.364  14.696  1.1527 -1.0739  1.7538
10053TIP3   OH251573   6.023   2.448  12.851  0.0454  0.0230  0.1919
10053TIP3    H151574   6.055   2.449  12.941 -0.9279  0.6025  0.5439
10053TIP3    H251575   5.928   2.461  12.859 -0.3250 -1.7202 -0.8038
10054TIP3   OH251576   5.979   1.790  12.996  0.0566  0.2487 -0.2102
10054TIP3    H151577   5.947   1.700  12.991  0.1818  0.2632 -1.5641
10054TIP3    H251578   6.009   1.810  12.908  2.5511  0.7213  0.6810
10055TIP3   OH251579   4.663   6.678  12.006  0.0665  0.1232 -0.2638
10055TIP3    H151580   4.731   6.699  12.069 -2.1069  2.1433  1.6069
10055TIP3    H251581   4.650   6.583  12.014  0.4986  0.1950  1.6719
10056TIP3   OH251582   6.673   4.259  11.203 -0.8110  0.1513  0.0120
10056TIP3    H151583   6.591   4.276  11.249 -0.5134 -0.0429  0.6175
10056TIP3    H251584   6.645   4.221  11.119 -1.3612  0.8072 -0.1169
10057TIP3   OH251585   4.901   0.377  12.092  0.2210  0.1533  0.1087
10057TIP3    H151586   4.870   0.375  12.002  0.7364 -0.4925 -0.0644
10057TIP3    H251587   4.967   0.308  12.096  1.5544  1.4126  0.4945
10058TIP3   OH251588   3.274   3.953   5.405 -0.1115 -0.4727 -0.5360
10058TIP3    H151589   3.358   3.906   5.402 -1.5728 -3.4520  1.1146
10058TIP3    H251590   3.291   4.029   5.460  1.6322 -0.6940 -0.6993
10059TIP3   OH251591   2.823   3.917   3.939  0.1166 -0.1953  0.4343
10059TIP3    H151592   2.844   3.977   4.010  1.0293 -0.3380  0.2973
10059TIP3    H251593   2.873   3.949   3.864  1.1724 -1.4865  0.5383
10060TIP3   OH251594   1.818   3.998  14.589  0.5676 -0.2405  0.1650
10060TIP3    H151595   1.854   4.016  14.503 -2.7257 -4.0064 -2.3601
10060TIP3    H251596   1.881   3.939  14.630  0.4582 -1.4799 -1.3754
10061TIP3   OH251597   5.634   1.917  15.166  0.2054  0.5411  0.1614
10061TIP3    H151598   5.565   1.900  15.230  1.2368 -1.3917  0.8486
10061TIP3    H251599   5.674   1.831  15.150  1.1238  1.2658 -1.7667
10062TIP3   OH251600   3.852   4.040  13.940 -0.0031  0.1373 -0.1273
10062TIP3    H151601   3.835   4.087  13.858 -0.1346 -0.9859 -0.7642
10062TIP3    H251602   3.946   4.052  13.955 -0.4105  2.4935  0.9529
10063TIP3   OH251603   4.619   5.891   4.748 -0.1318  0.3456  0.3894
10063TIP3    H151604   4.685   5.822   4.754  1.2940  1.6006 -0.0128
10063TIP3    H251605   4.624   5.921   4.657 -1.8495 -0.0480  0.1254
10064TIP3   OH251606   4.318   1.268  13.593  0.3819  0.4988  1.0027
10064TIP3    H151607   4.230   1.264  13.556 -0.1268  1.1982  2.0787
10064TIP3    H251608   4.312   1.333  13.663  2.0246  1.3134  0.4318
10065TIP3   OH251609   2.228   0.251   2.070  0.1342  0.0510  0.1008
10065TIP3    H151610   2.263   0.163   2.060 -1.5065 -0.7057  0.6451
10065TIP3    H251611   2.151   0.240   2.126 -0.7913  1.6488 -0.7868
10066TIP3   OH251612   4.279   4.688   6.003 -0.0224  0.5434  0.0929
10066TIP3    H151613   4.353   4.739   5.970  0.2262  0.5350  0.6207
10066TIP3    H251614   4.319   4.612   6.045 -0.3563  0.2856 -0.0534
10067TIP3   OH251615   1.490   0.978  11.620 -0.2446 -0.4870  0.4954
10067TIP3    H151616   1.411   0.943  11.579  0.4188 -0.1118 -1.1772
10067TIP3    H251617   1.562   0.930  11.579  0.5082  0.7137  0.3520
10068TIP3   OH251618   4.711   4.833  17.088 -0.6378  0.5684  0.3063
10068TIP3    H151619   4.705   4.738  17.078  2.1566  0.2039  1.1419
10068TIP3    H251620   4.779   4.860  17.026 -2.0648  2.2156 -0.6303
10069TIP3   OH251621   4.760   1.453  16.538 -0.0853 -0.4727  0.1264
10069TIP3    H151622   4.844   1.497  16.553 -1.0055  1.6070 -0.5046
10069TIP3    H251623   4.749   1.456  16.443  0.0811 -2.6852 -0.0113
10070TIP3   OH251624   1.909   1.615  17.162 -0.3097 -0.2825 -0.0948
10070TIP3    H151625   1.997   1.598  17.129 -0.1756 -0.8007  0.5218
10070TIP3    H251626   1.901   1.710  17.161  0.8710 -0.1350  1.4260
10071TIP3   OH251627   2.233   6.737  11.482 -0.0550 -0.4592  0.0149
10071TIP3    H151628   2.299   6.668  11.492  2.0950  1.4645 -0.1119
10071TIP3    H251629   2.173   6.723  11.555  0.6667 -2.0647  0.3522
10072TIP3   OH251630   1.156   6.587  11.350 -0.1322  0.2501  0.3388
10072TIP3    H151631   1.199   6.510  11.386  0.4989  0.6384  0.4481
10072TIP3    H251632   1.181   6.658  11.410 -0.4440  0.5913  0.0692
10073TIP3   OH251633   6.030   2.778   3.061 -0.7539  0.1793 -0.1382
10073TIP3    H151634   5.973   2.703   3.042  0.4867 -0.8404  0.0373
10073TIP3    H251635   6.104   2.768   3.001  1.3383 -0.9584  2.3867
10074TIP3   OH251636   1.853   0.642   3.074 -0.4215  0.2229  0.0584
10074TIP3    H151637   1.805   0.710   3.026  0.9316  0.6685 -0.7205
10074TIP3    H251638   1.871   0.574   3.009  1.1116  0.6634 -0.0219
10075TIP3   OH251639   3.840   6.520   3.847 -0.0653  0.4295  0.0214
10075TIP3    H151640   3.774   6.515   3.777 -0.6951  4.6671  0.0558
10075TIP3    H251641   3.923   6.531   3.800 -0.4758  3.1726 -0.2646
10076TIP3   OH251642   4.154   0.111  12.453 -0.6694  0.0073  0.2046
10076TIP3    H151643   4.066   0.072  12.449 -0.4017 -0.5423 -0.3653
10076TIP3    H251644   4.214   0.037  12.444 -0.1356  0.3285  0.9829
10077TIP3   OH251645   0.184   5.510   3.720 -0.3439  0.3417 -0.1369
10077TIP3    H151646   0.109   5.481   3.771 -0.0412 -1.9974 -0.8631
10077TIP3    H251647   0.251   5.443   3.736  0.6581  0.9452 -1.5451
10078TIP3   OH251648   0.109   1.450   3.597 -0.0229 -0.1513 -0.0639
10078TIP3    H151649   0.164   1.527   3.584 -1.6556  1.2558  0.9191
10078TIP3    H251650   0.057   1.444   3.517 -0.6542  0.4237  0.3016
10079TIP3   OH251651   6.009   5.827  12.219  0.1424  0.2678  0.1335
10079TIP3    H151652   5.962   5.744  12.228 -0.6735  0.4167 -2.2064
10079TIP3    H251653   6.025   5.836  12.125 -0.8879  3.3339  0.1392
10080TIP3   OH251654   3.140   0.853  13.370 -0.2338 -0.6435  0.5079
10080TIP3    H151655   3.151   0.758  13.374 -1.4127 -0.7430  2.8208
10080TIP3    H251656   3.048   0.866  13.345 -0.8010 -0.2086  2.6162
10081TIP3   OH251657   4.417   6.600  17.081  0.4594  0.4805  0.7546
10081TIP3    H151658   4.368   6.648  17.147  1.0686 -0.3673  1.8628
10081TIP3    H251659   4.367   6.610  17.000 -1.1328  0.2615  1.6829
10082TIP3   OH251660   0.613   0.791   3.517  0.0331 -0.4911 -0.6362
10082TIP3    H151661   0.594   0.812   3.609  1.0753 -0.5709 -0.3994
10082TIP3    H251662   0.674   0.859   3.489  1.7242 -1.8872 -0.5048
10083TIP3   OH251663   3.185   3.518   1.187 -0.1465 -0.1079  0.0319
10083TIP3    H151664   3.277   3.543   1.187 -0.4495  1.2487 -2.1309
10083TIP3    H251665   3.138   3.601   1.188 -1.3007 -0.6963 -1.6749
10084TIP3   OH251666   6.556   6.203  15.324  0.0386 -0.2408  0.2559
10084TIP3    H151667   6.495   6.133  15.301 -1.4763  1.1742 -0.2063
10084TIP3    H251668   6.585   6.238  15.240  0.5570 -0.1026  0.4869
10085TIP3   OH251669   6.249   6.643  16.817 -0.2748 -0.0916  0.4237
10085TIP3    H151670   6.287   6.718  16.863  1.9846 -0.7835 -0.1874
10085TIP3    H251671   6.291   6.643  16.731 -0.3702 -1.9170  0.3333
10086TIP3   OH251672   4.970   6.116   5.244  0.2013  0.0233 -0.1491
10086TIP3    H151673   4.929   6.155   5.167  0.7767 -1.5960 -1.3518
10086TIP3    H251674   4.966   6.021   5.228 -0.1620 -0.4044  2.0912
10087TIP3   OH251675   4.754   2.425  15.371 -0.1191  0.5875  0.1784
10087TIP3    H151676   4.695   2.357  15.403 -2.8608  2.1770 -1.1134
10087TIP3    H251677   4.716   2.507  15.402  1.4195  1.7131 -0.7512
10088TIP3   OH251678   5.185   6.413   7.149 -0.0435  0.6730 -0.0553
10088TIP3    H151679   5.269   6.389   7.110  0.1543  1.3300 -0.0455
10088TIP3    H251680   5.134   6.451   7.077  0.7144  2.8903  0.4870
10089TIP3   OH251681   5.051   0.063   3.146 -0.2013  0.1914 -0.2906
10089TIP3    H151682   5.141   0.075   3.178  0.4373  0.0735 -1.9393
10089TIP3    H251683   5.014   0.152   3.148  0.2869  0.4059 -0.5435
10090TIP3   OH251684   4.222   0.315  15.671 -0.4121  0.1345 -0.0356
10090TIP3    H151685   4.204   0.372  15.597 -1.3256 -0.3809 -0.2145
10090TIP3    H251686   4.312   0.337  15.697  0.1317 -0.0668 -1.6357
10091TIP3   OH251687   5.880   2.007  15.880 -0.2007  0.4230 -0.5746
10091TIP3    H151688   5.931   2.074  15.925  0.7121  0.1556 -1.1711
10091TIP3    H251689   5.943   1.965  15.821 -1.0133 -0.2249 -1.0031
10092TIP3   OH251690   1.136   3.155   0.609 -0.1642  0.1077  0.2979
10092TIP3    H151691   1.171   3.166   0.697  0.4653  0.1662  0.0435
10092TIP3    H251692   1.049   3.117   0.623  1.1733 -3.0721  0.8837
10093TIP3   OH251693   5.981   4.784  15.839 -0.2627  0.5201  0.1194
10093TIP3    H151694   5.923   4.776  15.763 -1.3089  0.9433  0.8498
10093TIP3    H251695   6.060   4.826  15.804 -1.2204  1.8769 -0.5284
10094TIP3   OH251696   3.538   4.331   2.700 -0.0169  0.3726 -0.0047
10094TIP3    H151697   3.476   4.398   2.729  0.3838  1.6720 -1.9422
10094TIP3    H251698   3.567   4.361   2.613  0.8771 -1.8608 -0.5523
10095TIP3   OH251699   6.479   1.537  13.795 -0.1543  0.2648  1.0950
10095TIP3    H151700   6.527   1.455  13.784 -0.8179 -0.0131  0.0157
10095TIP3    H251701   6.444   1.533  13.884  1.1858  0.1428  1.6276
10096TIP3   OH251702   1.741   3.418  12.955  0.4687 -0.1445 -0.1164
10096TIP3    H151703   1.720   3.325  12.966  1.2449 -0.3373 -0.1845
10096TIP3    H251704   1.791   3.421  12.872 -0.0627  0.4144 -0.4226
10097TIP3   OH251705   6.521   4.557   4.080 -0.8615  0.6113  0.1666
10097TIP3    H151706   6.516   4.643   4.122 -1.3005  0.9890 -0.6138
10097TIP3    H251707   6.612   4.549   4.051 -0.4797  0.2138  1.4246
10098TIP3   OH251708   5.649   2.582  14.576  0.0119  0.3891 -0.2291
10098TIP3    H151709   5.624   2.673  14.589  1.3930  0.9402 -1.2155
10098TIP3    H251710   5.682   2.579  14.486  0.3274 -1.0043 -0.0821
10099TIP3   OH251711   1.193   2.489   4.358  0.1756  0.4384  0.6623
10099TIP3    H151712   1.127   2.517   4.421 -0.2520 -0.2808  0.5459
10099TIP3    H251713   1.162   2.404   4.326 -0.0589  1.1380 -1.1229
10100TIP3   OH251714   2.390   5.880  15.482  0.0268 -0.1894  0.0847
10100TIP3    H151715   2.440   5.956  15.453  0.6869 -0.7583 -0.3087
10100TIP3    H251716   2.385   5.824  15.404  1.2828 -1.4513  0.8690
10101TIP3   OH251717   4.197   5.073  15.090  0.2630  0.3245  0.1709
10101TIP3    H151718   4.139   5.014  15.041 -1.8644  1.0416  1.6851
10101TIP3    H251719   4.249   5.015  15.145  2.4779 -0.4794 -2.5463
10102TIP3   OH251720   3.018   4.847   2.923  0.4985  0.1473  0.1086
10102TIP3    H151721   3.045   4.788   2.853  1.4764  1.3122 -0.5431
10102TIP3    H251722   2.928   4.822   2.943  0.3952 -0.5775 -1.1720
10103TIP3   OH251723   6.153   2.814   1.366  0.6781 -0.3639 -0.5399
10103TIP3    H151724   6.245   2.794   1.348  0.6932 -0.8758  0.0354
10103TIP3    H251725   6.153   2.906   1.391  1.2168 -0.6300  0.5323
10104TIP3   OH251726   1.488   5.032  12.859  0.1765 -0.1522  0.1547
10104TIP3    H151727   1.530   5.043  12.774 -1.3118  0.6097 -0.5130
10104TIP3    H251728   1.557   4.998  12.916  1.9379  1.8484 -0.6546
10105TIP3   OH251729   6.743   2.477   2.197  0.0879 -0.6071  0.2493
10105TIP3    H151730   6.828   2.521   2.193  0.1316 -0.3723  2.7610
10105TIP3    H251731   6.711   2.480   2.106  2.2149  0.3147 -0.5393
10106TIP3   OH251732   5.594   1.101  16.348 -0.6441 -0.4749  0.0774
10106TIP3    H151733   5.520   1.097  16.288 -0.9879 -0.1391  0.4766
10106TIP3    H251734   5.661   1.151  16.301 -1.6065  1.4753  0.6958
10107TIP3   OH251735   6.507   3.459   1.452 -0.3086  0.3525 -0.1922
10107TIP3    H151736   6.569   3.528   1.430  0.8670  0.2670  2.5170
10107TIP3    H251737   6.477   3.480   1.540 -1.3537 -1.5982 -0.0265
10108TIP3   OH251738   5.987   6.597  14.732  0.1540  0.3390  0.0415
10108TIP3    H151739   6.080   6.576  14.727  0.0476  0.0916 -1.1765
10108TIP3    H251740   5.948   6.526  14.783  0.3624 -0.5205 -0.9685
10109TIP3   OH251741   0.518   0.100  12.088 -0.3309  0.5611  0.4173
10109TIP3    H151742   0.535   0.074  11.998 -0.1842  2.6698 -0.2225
10109TIP3    H251743   0.425   0.125  12.088 -0.0589  1.6273  0.5364
10110TIP3   OH251744   2.719   3.800  17.095 -0.1733 -0.0183 -0.0885
10110TIP3    H151745   2.781   3.857  17.048 -0.0311 -0.8198 -0.9043
10110TIP3    H251746   2.758   3.713  17.090 -0.3973 -0.1968  1.1352
10111TIP3   OH251747   1.639   3.700   3.811  0.0066  0.2427  0.0615
10111TIP3    H151748   1.708   3.752   3.771  0.0559 -0.4728 -0.8433
10111TIP3    H251749   1.593   3.760   3.869  0.4696  1.1079 -0.4538
10112TIP3   OH251750   5.204   6.181   2.302 -0.2019 -0.0781 -0.3627
10112TIP3    H151751   5.189   6.209   2.211 -1.1170  0.8670  0.0645
10112TIP3    H251752   5.117   6.174   2.340  0.2330  2.4094  1.2764
10113TIP3   OH251753   6.296   0.394   1.753 -0.2124  0.7684 -0.2442
10113TIP3    H151754   6.268   0.413   1.664 -0.3257 -0.1023 -0.4003
10113TIP3    H251755   6.217   0.402   1.806 -0.6871 -1.1042 -0.5971
10114TIP3   OH251756   5.558   6.488   4.065  0.2364  0.1607  0.0490
10114TIP3    H151757   5.504   6.559   4.100 -0.0467 -0.4899  0.9963
10114TIP3    H251758   5.537   6.485   3.972  0.7231  1.7060 -0.1280
10115TIP3   OH251759   1.466   1.046   1.337  0.1406  0.3407  0.7305
10115TIP3    H151760   1.402   0.991   1.382  2.4224 -1.2644  2.1739
10115TIP3    H251761   1.430   1.057   1.249 -2.1989 -0.3050  1.5308
10116TIP3   OH251762   2.251   6.551  17.014  0.2276 -0.3049 -0.4972
10116TIP3    H151763   2.223   6.474  17.063  0.1700  0.5544  0.8567
10116TIP3    H251764   2.189   6.557  16.941 -1.0339 -0.3810  0.5441
10117TIP3   OH251765   3.303   5.249  11.094 -0.2369 -0.6812 -0.0574
10117TIP3    H151766   3.260   5.332  11.073 -0.9865 -0.7340  1.2195
10117TIP3    H251767   3.251   5.183  11.049 -0.7253 -0.6262  0.4276
10118TIP3   OH251768   0.898   4.985  11.593  0.5635  0.3586 -0.0866
10118TIP3    H151769   0.814   4.952  11.562  0.0006  0.9710  0.7191
10118TIP3    H251770   0.890   5.080  11.587  1.0340  0.4362  0.3889
10119TIP3   OH251771   2.465   1.816   5.038  0.0351  0.1246  0.2761
10119TIP3    H151772   2.503   1.817   5.125  0.1770 -2.1283  0.3010
10119TIP3    H251773   2.503   1.892   4.994  1.0544  0.4848  1.7215
10120TIP3   OH251774   4.184   0.948  11.031 -0.1244 -0.6211 -0.4959
10120TIP3    H151775   4.162   1.030  10.987 -0.7480 -0.9878 -0.8846
10120TIP3    H251776   4.187   0.883  10.961 -0.4302 -1.0820 -0.0864
10121TIP3   OH251777   1.942   4.057  14.339  0.2219  0.4593  0.4885
10121TIP3    H151778   2.002   4.126  14.366  0.1211  0.1199  1.6719
10121TIP3    H251779   1.998   3.988  14.304  0.6820 -0.3149  2.5847
10122TIP3   OH251780   2.276   5.971   0.497  0.0125  0.0735  0.7222
10122TIP3    H151781   2.220   6.005   0.428 -0.0267 -0.1271  0.6552
10122TIP3    H251782   2.358   5.949   0.453 -0.6112 -1.7690  0.3714
10123TIP3   OH251783   1.621   2.530   5.089 -1.0379 -0.1481 -0.2869
10123TIP3    H151784   1.527   2.546   5.098 -1.2551 -0.6668 -1.4500
10123TIP3    H251785   1.650   2.508   5.177 -1.9866  0.1199  0.1078
10124TIP3   OH251786   0.519   2.886   2.105  0.7424  0.2004 -0.6446
10124TIP3    H151787   0.480   2.952   2.162 -0.3976 -0.5731 -0.5036
10124TIP3    H251788   0.612   2.887   2.127  0.4067  0.2705  0.8883
10125TIP3   OH251789   1.106   2.417  12.532  0.6590 -0.3259  0.0142
10125TIP3    H151790   1.151   2.408  12.616 -0.3676  0.1231  0.6259
10125TIP3    H251791   1.111   2.510  12.511 -0.4655 -0.1657  0.3833
10126TIP3   OH251792   0.625   2.734  14.476  0.1459  0.8838  0.2019
10126TIP3    H151793   0.690   2.792  14.516 -0.5851  1.8340  0.0551
10126TIP3    H251794   0.545   2.787  14.473 -0.1826  0.3404 -1.1983
10127TIP3   OH251795   5.004   4.705   6.276  0.4170  0.6895  0.1173
10127TIP3    H151796   5.092   4.685   6.308  0.5741  1.7965  0.4040
10127TIP3    H251797   4.952   4.627   6.297  1.0762  0.4568  0.9107
10128TIP3   OH251798   2.771   5.220   2.030  0.0444  0.0406 -0.0377
10128TIP3    H151799   2.688   5.267   2.024 -0.3768 -0.5460  0.8637
10128TIP3    H251800   2.806   5.219   1.941 -1.6586 -1.0290 -0.7483
10129TIP3   OH251801   6.083   4.803  11.680 -0.3254  0.0178 -0.3483
10129TIP3    H151802   6.040   4.799  11.594  0.2276  1.1921 -0.7031
10129TIP3    H251803   6.067   4.892  11.710 -0.1654 -0.2678  0.6002
10130TIP3   OH251804   6.765   0.670   5.626 -0.1803 -0.6596 -0.9781
10130TIP3    H151805   6.746   0.615   5.702 -1.0297 -0.0459 -0.7403
10130TIP3    H251806   6.858   0.654   5.608 -0.1946 -1.4991 -0.3807
10131TIP3   OH251807   2.616   6.488   1.995 -0.3067  0.3848  0.2348
10131TIP3    H151808   2.619   6.393   2.008  0.3610  0.3650 -0.0018
10131TIP3    H251809   2.676   6.524   2.060 -0.0655  0.5950 -0.1006
10132TIP3   OH251810   1.987   6.209   4.179  0.2375  0.0496 -0.2098
10132TIP3    H151811   2.021   6.241   4.096  0.2178  0.8050  0.0678
10132TIP3    H251812   1.957   6.120   4.160 -3.2619  1.3930 -2.0108
10133TIP3   OH251813   3.580   1.815  13.895 -0.1620 -0.1010 -0.1336
10133TIP3    H151814   3.504   1.777  13.939 -0.2193 -1.3452 -1.2442
10133TIP3    H251815   3.618   1.743  13.845  2.4728  0.1672  1.3067
10134TIP3   OH251816   4.598   2.632  14.301  0.3054 -0.9102  0.3547
10134TIP3    H151817   4.635   2.546  14.322  0.2587 -0.8876  0.5263
10134TIP3    H251818   4.518   2.637  14.354  0.9088 -0.2769  1.2287
10135TIP3   OH251819   5.836   4.249   4.116  0.0920  0.3700 -0.3648
10135TIP3    H151820   5.758   4.203   4.147 -0.0366  0.1542 -0.9806
10135TIP3    H251821   5.826   4.338   4.148  0.5955 -0.1422  1.2792
10136TIP3   OH251822   0.435   6.254  12.772  0.7109  0.5411 -0.7412
10136TIP3    H151823   0.411   6.332  12.822 -2.0512 -1.3731  1.2368
10136TIP3    H251824   0.485   6.200  12.833 -1.4720 -1.2027 -0.3569
10137TIP3   OH251825   1.583   1.940  16.017  0.2998  0.6456 -0.2251
10137TIP3    H151826   1.585   1.845  16.007  0.1713  0.7927 -2.0697
10137TIP3    H251827   1.494   1.965  15.992  0.5380  1.3029 -0.4339
10138TIP3   OH251828   4.478   3.879  11.481 -0.6404  0.4099  0.2371
10138TIP3    H151829   4.546   3.869  11.415  0.0648  2.4375  0.5776
10138TIP3    H251830   4.500   3.816  11.549 -0.1569 -0.1907 -0.4549
10139TIP3   OH251831   5.971   0.648   3.151  0.3361 -0.2441 -0.0356
10139TIP3    H151832   5.977   0.718   3.087  0.4482  0.3169  0.5791
10139TIP3    H251833   5.921   0.685   3.223 -2.2772 -1.7543 -0.9515
10140TIP3   OH251834   5.208   1.379  15.419 -0.3326  0.2081 -0.5689
10140TIP3    H151835   5.158   1.370  15.338 -0.2876 -1.2581 -0.4705
10140TIP3    H251836   5.141   1.387  15.487 -0.4229 -0.4292 -0.5744
10141TIP3   OH251837   1.925   2.357  16.138 -0.2844  0.2487  0.0222
10141TIP3    H151838   1.899   2.338  16.048  0.1313 -0.2462 -0.0016
10141TIP3    H251839   1.878   2.293  16.191 -2.4568  2.0827  0.4396
10142TIP3   OH251840   4.195   3.048  10.339  0.1092  0.5463  0.3521
10142TIP3    H151841   4.171   3.005  10.258  2.8316 -0.3093 -0.0866
10142TIP3    H251842   4.209   3.140  10.315  0.3804  0.4009 -0.0546
10143TIP3   OH251843   2.900   6.525   6.432  0.5286 -0.1633 -0.2381
10143TIP3    H151844   2.886   6.432   6.449 -0.8435  0.2870  1.3155
10143TIP3    H251845   2.814   6.566   6.446  1.3083  1.4694  0.0590
10144TIP3   OH251846   1.749   0.322  17.132  0.0828  0.4301  0.4005
10144TIP3    H151847   1.673   0.363  17.092  0.1771 -1.9335 -2.6090
10144TIP3    H251848   1.713   0.267  17.202 -0.5532  1.6878  1.0945
10145TIP3   OH251849   1.987   3.745  12.178 -0.4510  0.0203  0.2847
10145TIP3    H151850   1.951   3.785  12.258  0.2162  1.0767  0.0816
10145TIP3    H251851   1.910   3.710  12.132 -1.1782  1.6710  0.1678
10146TIP3   OH251852   4.453   2.977  14.032 -0.0733 -0.3015 -0.2249
10146TIP3    H151853   4.522   2.982  14.098  1.2116 -0.5152 -1.4826
10146TIP3    H251854   4.461   2.888  13.996  1.4328  0.7684 -2.8238
10147TIP3   OH251855   3.898   5.829  15.128 -0.1131 -0.2794  0.2184
10147TIP3    H151856   3.809   5.863  15.127 -0.1546 -0.2838  1.7624
10147TIP3    H251857   3.889   5.736  15.107 -0.4642 -0.2872  0.4085
10148TIP3   OH251858   2.278   1.094  12.921  0.3775 -0.1134  0.5976
10148TIP3    H151859   2.206   1.157  12.921 -0.2108 -0.7688  0.9594
10148TIP3    H251860   2.290   1.072  12.829  0.1099  0.0057  0.5324
10149TIP3   OH251861   5.787   2.461  14.786  0.1582  0.5039  0.8447
10149TIP3    H151862   5.777   2.492  14.697 -1.5085 -0.0124  0.8299
10149TIP3    H251863   5.879   2.433  14.791 -0.0051 -0.5720 -1.0719
10150TIP3   OH251864   3.912   1.976   4.391 -0.0636 -0.0216 -0.0302
10150TIP3    H151865   3.826   1.963   4.350  0.1325  1.0826 -0.8235
10150TIP3    H251866   3.900   1.943   4.480 -1.6729  1.1316  0.2392
10151TIP3   OH251867   4.128   4.593  14.931  0.0240  0.4722  0.5537
10151TIP3    H151868   4.215   4.618  14.900  0.6055 -0.5328  1.3306
10151TIP3    H251869   4.086   4.555  14.854  1.0789 -1.0402  0.6794
10152TIP3   OH251870   4.131   3.394  16.249 -0.4013 -0.3433 -0.2583
10152TIP3    H151871   4.218   3.355  16.256  0.6706  0.4800 -5.1462
10152TIP3    H251872   4.080   3.330  16.200 -2.1768 -0.1352  1.1917
10153TIP3   OH251873   6.282   6.472  12.570 -0.2391  0.2658  0.4355
10153TIP3    H151874   6.240   6.386  12.578 -1.0530  0.4374 -1.4332
10153TIP3    H251875   6.262   6.516  12.653 -2.2845 -0.3068  0.2983
10154TIP3   OH251876   0.271   5.178   3.598  1.0443 -0.4310 -0.5949
10154TIP3    H151877   0.327   5.252   3.618 -0.0222  0.1264  0.4841
10154TIP3    H251878   0.201   5.214   3.543 -0.0246 -0.3782  0.7412
10155TIP3   OH251879   2.787   0.917   4.490  0.8631  0.2452  0.1832
10155TIP3    H151880   2.760   0.856   4.558  0.9404  1.7970  1.6753
10155TIP3    H251881   2.879   0.896   4.474  0.5866 -0.7623 -0.1752
10156TIP3   OH251882   3.044   4.655   0.542 -1.0246 -0.0764 -0.4155
10156TIP3    H151883   3.027   4.653   0.636 -2.5546  0.1022 -0.6605
10156TIP3    H251884   3.034   4.747   0.518 -0.8335 -0.1502 -0.7849
10157TIP3   OH251885   0.666   2.245  13.445 -0.0040  0.0154  0.1367
10157TIP3    H151886   0.723   2.219  13.371  0.0353 -0.6421  0.3872
10157TIP3    H251887   0.601   2.302  13.406 -0.4014 -0.8780 -0.5555
10158TIP3   OH251888   4.493   4.257  15.505 -0.1368 -0.1202  0.1453
10158TIP3    H151889   4.434   4.324  15.469 -0.1992 -0.2811 -0.0556
10158TIP3    H251890   4.448   4.175  15.486 -0.9979 -0.1399  2.0726
10159TIP3   OH251891   3.930   3.937   4.117 -0.4172  0.1055  0.6089
10159TIP3    H151892   4.021   3.919   4.094 -0.8401  0.0411 -1.1397
10159TIP3    H251893   3.884   3.940   4.034 -1.7341  1.7702  1.3289
10160TIP3   OH251894   6.793   0.666  14.275 -0.2829  0.4702 -0.1431
10160TIP3    H151895   6.876   0.683  14.231 -0.1061  0.7893  0.3111
10160TIP3    H251896   6.784   0.736  14.339 -1.4969  1.1462 -1.0000
10161TIP3   OH251897   0.819   4.503   3.450  0.1215 -0.2602 -0.0368
10161TIP3    H151898   0.847   4.591   3.426  0.4402 -0.6607 -1.2572
10161TIP3    H251899   0.784   4.467   3.368 -1.2217 -0.8183  0.7471
10162TIP3   OH251900   2.202   0.803   3.051  0.6900  0.1224 -0.3458
10162TIP3    H151901   2.178   0.896   3.046  2.0517  0.4886 -0.6553
10162TIP3    H251902   2.171   0.775   3.137  0.5773  0.9754 -0.0904
10163TIP3   OH251903   2.819   0.011  11.954  0.1516  0.1006 -0.2847
10163TIP3    H151904   2.884  -0.053  11.980 -0.2836 -0.4394 -0.4843
10163TIP3    H251905   2.787   0.049  12.036 -0.6208 -0.9888 -0.0500
10164TIP3   OH251906   0.229   4.889  13.113 -0.4690 -0.3243  0.4558
10164TIP3    H151907   0.270   4.906  13.198  2.7588  0.7874 -1.1281
10164TIP3    H251908   0.235   4.794  13.102  1.1906 -0.2803  0.6161
10165TIP3   OH251909   6.501   5.983   4.658  0.6164 -0.1064  0.0445
10165TIP3    H151910   6.430   5.931   4.695  0.4210  1.2099  1.6561
10165TIP3    H251911   6.544   5.925   4.596 -1.9135 -0.9291 -1.0933
10166TIP3   OH251912   5.029   2.577   2.245 -0.5018 -0.1993 -0.2667
10166TIP3    H151913   5.029   2.615   2.158 -0.6792 -0.6667 -0.4746
10166TIP3    H251914   4.942   2.539   2.256 -0.8618  0.8113  0.5472
10167TIP3   OH251915   4.532   6.113  16.463  0.2953  0.4561  0.4389
10167TIP3    H151916   4.546   6.135  16.371  0.2329  0.5260  0.4454
10167TIP3    H251917   4.613   6.139  16.506  0.9119 -0.9727  0.1727
10168TIP3   OH251918   2.287   2.294  15.655 -0.4544 -0.1576 -0.2837
10168TIP3    H151919   2.333   2.237  15.716  0.3244  1.3359  0.5627
10168TIP3    H251920   2.348   2.365  15.637 -1.6745  0.8278 -0.7070
10169TIP3   OH251921   5.143   4.717  16.011  0.0573 -0.4205  0.4060
10169TIP3    H151922   5.237   4.722  16.032  0.6478 -1.5692 -1.7024
10169TIP3    H251923   5.135   4.768  15.930 -1.6301  1.6690  1.7854
10170TIP3   OH251924   3.340   2.442  13.058  0.1207 -0.1705  0.0133
10170TIP3    H151925   3.275   2.465  12.991 -0.2359 -1.2009 -0.0111
10170TIP3    H251926   3.421   2.484  13.028  0.1607 -1.2261 -1.5074
10171TIP3   OH251927   0.574   2.763   2.751  0.3643 -0.1375 -0.8479
10171TIP3    H151928   0.630   2.828   2.793  0.2404 -0.7678  0.3350
10171TIP3    H251929   0.497   2.758   2.808  0.5280 -1.5595 -0.7085
10172TIP3   OH251930   2.886   5.187  12.113 -0.4798 -0.1294 -0.5031
10172TIP3    H151931   2.950   5.168  12.182 -1.3528  2.7257  1.2459
10172TIP3    H251932   2.930   5.250  12.056 -1.8550  2.7846  1.3572
10173TIP3   OH251933   5.679   5.126   1.702  0.3898 -0.5900  0.3035
10173TIP3    H151934   5.676   5.138   1.607 -1.0183 -0.4471  0.3434
10173TIP3    H251935   5.737   5.195   1.734  0.9813 -0.7238 -0.4597
10174TIP3   OH251936   5.372   2.365   4.893  0.0451 -0.0753 -0.0889
10174TIP3    H151937   5.435   2.293   4.892  0.0251 -0.1026  0.5745
10174TIP3    H251938   5.404   2.425   4.825 -0.1031 -0.8359 -0.8490
10175TIP3   OH251939   3.893   4.486  10.905  0.2491 -0.4362  0.0632
10175TIP3    H151940   3.977   4.448  10.880 -0.2867  0.4507 -3.5899
10175TIP3    H251941   3.906   4.580  10.899 -0.8178 -0.2667  0.1619
10176TIP3   OH251942   6.595   3.448  13.701 -0.3519 -0.0581 -0.5401
10176TIP3    H151943   6.564   3.382  13.639 -0.6658 -0.6253  0.1892
10176TIP3    H251944   6.533   3.441  13.775  0.9524 -0.5528  0.5426
10177TIP3   OH251945   3.494   0.926   6.174  0.5236  0.5663 -0.3695
10177TIP3    H151946   3.412   0.884   6.199  1.5905 -0.2754  2.0517
10177TIP3    H251947   3.517   0.981   6.249  2.2697  0.5979 -0.8797
10178TIP3   OH251948   0.005   3.889   5.772  0.6162 -0.4284 -0.2314
10178TIP3    H151949   0.071   3.852   5.714  1.3046 -2.5289  1.7253
10178TIP3    H251950  -0.027   3.815   5.823 -1.5002  0.9483  0.5900
10179TIP3   OH251951   0.884   0.003  12.420 -0.1368 -0.2413  0.1666
10179TIP3    H151952   0.909  -0.086  12.445  1.2168  0.2424  0.6435
10179TIP3    H251953   0.801  -0.007  12.374  0.9110 -1.9908 -1.5323
10180TIP3   OH251954   6.340   0.864  10.785  0.5776  0.2196  0.8704
10180TIP3    H151955   6.286   0.921  10.731  1.0617 -0.7503 -0.7108
10180TIP3    H251956   6.302   0.777  10.773  2.7126 -0.5912 -0.7465
10181TIP3   OH251957   1.577   1.532   4.819  0.0934  0.4061 -0.3086
10181TIP3    H151958   1.655   1.530   4.874  0.2408 -0.4913 -0.5283
10181TIP3    H251959   1.519   1.595   4.862  0.6763  0.6008  0.2130
10182TIP3   OH251960   4.212   4.266  15.368  0.5854  0.2420  0.0948
10182TIP3    H151961   4.119   4.247  15.386  0.2951  2.0069  0.6639
10182TIP3    H251962   4.217   4.276  15.273  0.3587 -0.5753 -0.0148
10183TIP3   OH251963   6.189   3.726   3.349 -0.2125  0.1470 -0.0118
10183TIP3    H151964   6.162   3.817   3.360 -1.8137 -0.4088  1.0763
10183TIP3    H251965   6.284   3.730   3.345 -0.1890  1.7956  0.9924
10184TIP3   OH251966   3.860   0.071   6.145 -0.6181  0.0973 -0.0577
10184TIP3    H151967   3.820  -0.014   6.166 -0.8308  0.4662  1.0613
10184TIP3    H251968   3.954   0.053   6.144 -0.7128 -0.4325 -1.1556
10185TIP3   OH251969   3.068   4.929  16.765  0.2452 -0.3818 -0.2475
10185TIP3    H151970   3.053   4.977  16.847 -0.1397  0.7960 -0.9816
10185TIP3    H251971   2.981   4.913  16.730  0.4304  1.2379 -1.5854
10186TIP3   OH251972   0.071   4.859  15.866  0.1885  0.1903  0.4077
10186TIP3    H151973   0.154   4.863  15.914  1.3546 -0.5149 -1.4299
10186TIP3    H251974   0.047   4.951  15.851  1.4930  0.4236 -0.3973
10187TIP3   OH251975   3.141   6.088  14.993 -0.2018 -0.0095 -0.3292
10187TIP3    H151976   3.202   6.099  14.920  2.1077 -0.4496  1.4067
10187TIP3    H251977   3.084   6.016  14.967  0.5399 -0.1283 -1.7066
10188TIP3   OH251978   2.280   3.580  11.930  0.3339 -0.3339  0.0868
10188TIP3    H151979   2.365   3.604  11.895 -0.2541 -0.0939 -1.2178
10188TIP3    H251980   2.217   3.612  11.866 -0.6703 -1.9859  0.1813
10189TIP3   OH251981   4.368   0.238  11.744  0.5844  0.1383 -0.3163
10189TIP3    H151982   4.434   0.171  11.763  0.0074  0.1400  1.9670
10189TIP3    H251983   4.285   0.199  11.773  0.0341  1.3073 -0.2749
10190TIP3   OH251984   6.115   3.285   3.190  0.1185  0.1910 -0.0618
10190TIP3    H151985   6.129   3.193   3.212  0.0835 -0.3307 -2.0321
10190TIP3    H251986   6.202   3.324   3.197 -0.2856  0.7944  3.6862
10191TIP3   OH251987   0.602   5.299  13.107 -0.1908 -0.5290 -0.2096
10191TIP3    H151988   0.607   5.300  13.203  0.5875  1.8111 -0.2252
10191TIP3    H251989   0.637   5.384  13.080  1.2947 -1.8150 -2.6747
10192TIP3   OH251990   2.302   6.283  11.656  0.5866  0.1690  0.0646
10192TIP3    H151991   2.310   6.368  11.614  1.5500  0.1388  0.1588
10192TIP3    H251992   2.382   6.236  11.632  0.6492 -0.2479  1.0255
10193TIP3   OH251993   1.571   4.643   0.896  0.3423  0.1476 -0.1847
10193TIP3    H151994   1.647   4.699   0.911  0.9054 -0.2844 -1.3069
10193TIP3    H251995   1.553   4.651   0.802 -1.6018  0.9804  0.2099
10194TIP3   OH251996   6.028   4.614  15.410  0.7721  0.0145 -0.2516
10194TIP3    H151997   5.938   4.646  15.408 -0.6188 -3.4327  0.2164
10194TIP3    H251998   6.048   4.591  15.319 -0.0287 -2.0333  0.0472
10195TIP3   OH251999   5.133   5.856  11.238  0.4445  0.2580 -0.1285
10195TIP3    H152000   5.116   5.772  11.282 -0.1967  1.1343  1.3765
10195TIP3    H252001   5.055   5.870  11.184  1.4094 -1.0174 -1.9288
10196TIP3   OH252002   4.198   1.921  13.435 -0.1575 -0.5681  0.3133
10196TIP3    H152003   4.271   1.967  13.477 -1.1834  0.3226  1.2060
10196TIP3    H252004   4.238   1.846  13.391  1.0449 -1.2945  2.5103
10197TIP3   OH252005   5.340   6.763  15.539 -0.5047  0.2785  0.5179
10197TIP3    H152006   5.409   6.825  15.564  1.2944 -0.9545 -1.1529
10197TIP3    H252007   5.304   6.798  15.457 -0.4148 -0.1745  0.2812
10198TIP3   OH252008   3.083   0.101   6.571 -0.0546  0.1916 -0.6451
10198TIP3    H152009   3.098   0.013   6.537 -3.1750 -0.1289 -1.5476
10198TIP3    H252010   3.162   0.123   6.620  1.5147 -2.3877 -1.8658
10199TIP3   OH252011   2.097   1.766  14.723 -0.5770  0.1248  0.0791
10199TIP3    H152012   2.153   1.714  14.780 -1.5973 -2.3488 -1.0487
10199TIP3    H252013   2.145   1.769  14.640 -1.5692 -1.0645 -0.5596
10200TIP3   OH252014   6.080   0.088   1.217  0.2784  0.3465  0.0662
10200TIP3    H152015   6.042   0.066   1.132 -0.3620 -1.3635  0.7292
10200TIP3    H252016   6.025   0.041   1.280 -0.2855  2.8520  1.5907
10201TIP3   OH252017   5.352   3.243   5.235  0.1427 -0.3728  0.3871
10201TIP3    H152018   5.329   3.336   5.236  0.5368 -0.1283 -2.8594
10201TIP3    H252019   5.288   3.204   5.176  1.2609 -1.7794  0.0616
10202TIP3   OH252020   2.600   2.193   4.570 -0.7274 -0.0336  0.1089
10202TIP3    H152021   2.538   2.199   4.643  1.9536  0.0420  2.5906
10202TIP3    H252022   2.600   2.280   4.531 -0.5800  0.6440  1.5395
10203TIP3   OH252023   4.888   0.588   1.837  0.1059  0.2366  0.1800
10203TIP3    H152024   4.873   0.497   1.863 -1.8647  0.2438 -0.7865
10203TIP3    H252025   4.980   0.605   1.861 -0.1438 -1.2547  2.4834
10204TIP3   OH252026   6.452   4.925  12.245  0.4152  0.0664  0.1900
10204TIP3    H152027   6.370   4.973  12.237  0.8045  1.2472  2.4884
10204TIP3    H252028   6.429   4.846  12.295  0.8252  1.0208  1.9733
10205TIP3   OH252029   5.559   2.524  16.271  0.3088 -0.2188 -0.0402
10205TIP3    H152030   5.641   2.494  16.311  0.2057 -0.0952  0.2694
10205TIP3    H252031   5.552   2.474  16.190 -0.5830 -2.0914  1.1232
10206TIP3   OH252032   2.132   5.447   1.495 -0.5164  0.0434 -0.7463
10206TIP3    H152033   2.119   5.529   1.447 -0.3545  1.0898  0.8994
10206TIP3    H252034   2.215   5.413   1.463  0.0750  1.2249 -0.5523
10207TIP3   OH252035   0.788   5.022  16.142  0.1003 -0.3220 -0.1113
10207TIP3    H152036   0.794   4.984  16.229 -0.4939  0.3327  0.2298
10207TIP3    H252037   0.762   4.950  16.085  0.5621 -0.7671  0.2373
10208TIP3   OH252038   1.373   2.290  12.180  0.3892  0.7379  0.3101
10208TIP3    H152039   1.353   2.209  12.133 -0.4920  1.3131 -0.3286
10208TIP3    H252040   1.417   2.346  12.116  1.7803  0.4619  0.9908
10209TIP3   OH252041   0.458   6.452   3.216  0.5315 -0.0153 -0.4118
10209TIP3    H152042   0.504   6.508   3.154  0.8938 -1.2746 -1.3109
10209TIP3    H252043   0.376   6.430   3.173 -0.2352  0.9174  0.5190
10210TIP3   OH252044   0.806   5.372  10.893  0.9486  0.1262 -0.0176
10210TIP3    H152045   0.750   5.444  10.921  1.4054  0.1600  0.8332
10210TIP3    H252046   0.892   5.412  10.877  1.2882 -0.2766  0.7734
10211TIP3   OH252047   2.695   1.014   2.678  0.0752  0.0212  0.0367
10211TIP3    H152048   2.624   1.064   2.718 -0.0594  0.2309 -0.4540
10211TIP3    H252049   2.657   0.928   2.663  0.1539 -0.0846  0.4396
10212TIP3   OH252050   3.378   4.040  12.949 -0.0085 -0.1498 -0.0577
10212TIP3    H152051   3.430   4.118  12.933  0.8201 -0.8444 -0.8716
10212TIP3    H252052   3.324   4.030  12.871 -1.3226  0.5033  0.7345
10213TIP3   OH252053   0.202   1.435  14.134  0.2731  0.0497 -0.1178
10213TIP3    H152054   0.165   1.444  14.047 -0.3266  1.0581  0.2298
10213TIP3    H252055   0.242   1.348  14.134 -0.1598 -0.1630 -1.2239
10214TIP3   OH252056   2.251   4.248   0.661  0.1752  0.0585  0.5015
10214TIP3    H152057   2.271   4.323   0.606  1.5460  0.1984  1.1498
10214TIP3    H252058   2.174   4.275   0.711 -1.6134 -0.3690 -1.8440
10215TIP3   OH252059   4.526   1.678   3.750 -0.0141  0.1463  0.4086
10215TIP3    H152060   4.478   1.662   3.669  1.4076 -1.7140 -0.1495
10215TIP3    H252061   4.460   1.665   3.819 -0.3653 -2.6894 -0.3121
10216TIP3   OH252062   6.531   2.229   5.672 -0.0287  0.2872 -0.1895
10216TIP3    H152063   6.548   2.135   5.668 -0.6395  0.0325  1.9103
10216TIP3    H252064   6.436   2.236   5.662 -0.0568  0.5968  0.2492
10217TIP3   OH252065   0.795   0.689  15.808 -0.0447 -0.3530  1.1547
10217TIP3    H152066   0.815   0.649  15.723 -1.7852  0.7494  0.1884
10217TIP3    H252067   0.866   0.658  15.865  0.3270 -2.3841 -0.2714
10218TIP3   OH252068   4.612   1.571  11.348  0.5491  0.1426  0.0899
10218TIP3    H152069   4.560   1.650  11.361  0.6696  0.0651  1.1158
10218TIP3    H252070   4.697   1.592  11.387  0.5251 -0.5457  0.5307
10219TIP3   OH252071   2.111   3.744  10.953  0.0151  0.6074 -0.3960
10219TIP3    H152072   2.016   3.746  10.939  0.1837  0.2051 -1.6470
10219TIP3    H252073   2.124   3.670  11.013 -0.2362 -1.0096 -2.2513
10220TIP3   OH252074   0.055   3.158  11.354  0.2492 -0.2090 -0.5466
10220TIP3    H152075  -0.006   3.142  11.282  0.5757 -1.3931 -0.5898
10220TIP3    H252076   0.138   3.179  11.311  0.0756  0.6372 -0.4907
10221TIP3   OH252077   5.981   1.415  11.382 -0.2910  0.2741 -0.1836
10221TIP3    H152078   6.068   1.420  11.423  0.3851  1.1100 -1.6350
10221TIP3    H252079   5.927   1.474  11.435  0.2461  0.4063  0.2382
10222TIP3   OH252080   3.578   2.210   3.138  0.2680 -0.3427 -0.6081
10222TIP3    H152081   3.576   2.131   3.085  0.8814 -0.9634  0.2612
10222TIP3    H252082   3.670   2.238   3.137  0.0092  0.5408 -1.1575
10223TIP3   OH252083   4.690   6.342  11.987 -0.9720 -0.0739 -0.2281
10223TIP3    H152084   4.727   6.271  12.040  0.4430  1.4412  0.9027
10223TIP3    H252085   4.679   6.303  11.900 -0.1466 -1.6610  0.3294
10224TIP3   OH252086   1.948   6.113   2.623 -0.8564  1.1328 -0.3606
10224TIP3    H152087   1.995   6.068   2.553 -1.1954 -0.0198  0.1175
10224TIP3    H252088   1.856   6.107   2.598 -1.1972 -1.1637  1.1362
10225TIP3   OH252089   4.335   5.526   4.380  0.2991 -0.4571 -0.2179
10225TIP3    H152090   4.295   5.560   4.300  0.5157 -1.3781 -0.7255
10225TIP3    H252091   4.271   5.463   4.414  0.4740 -0.5150  0.0050
10226TIP3   OH252092   5.845   6.738  13.393 -0.7832 -0.2903  0.6615
10226TIP3    H152093   5.909   6.739  13.464  0.5778 -0.4586 -0.5163
10226TIP3    H252094   5.767   6.778  13.431  0.3607  0.9509  1.8531
10227TIP3   OH252095   1.964   3.742  13.008 -0.6590 -0.8051 -0.0248
10227TIP3    H152096   2.017   3.693  13.072  0.4488 -1.1976 -1.1994
10227TIP3    H252097   1.905   3.795  13.062  3.3132  2.4891  1.6469
10228TIP3   OH252098   5.308   3.633   2.291 -0.0779 -0.5317 -0.7432
10228TIP3    H152099   5.280   3.719   2.261 -0.2532 -0.2896  0.0808
10228TIP3    H252100   5.400   3.644   2.313 -0.0311 -0.6226 -0.8953
10229TIP3   OH252101   4.074   1.929  10.654  0.4305 -0.2307  0.1565
10229TIP3    H152102   4.150   1.982  10.629  1.2102 -0.7569  1.3308
10229TIP3    H252103   3.999   1.978  10.620  1.2325  0.8247 -0.1541
10230TIP3   OH252104   5.263   3.462  16.551  0.2289  0.1620 -0.0449
10230TIP3    H152105   5.239   3.373  16.529  1.5269 -0.5077  1.1060
10230TIP3    H252106   5.328   3.487  16.484  1.0346 -0.3474  0.5287
10231TIP3   OH252107   0.296   6.182  15.660  0.0929  0.2101  0.4072
10231TIP3    H152108   0.353   6.247  15.620  1.1533 -1.6215 -1.2486
10231TIP3    H252109   0.329   6.172  15.749 -0.3919  2.2105  0.8593
10232TIP3   OH252110   3.568   5.874   2.630  0.0942  0.2443  0.2556
10232TIP3    H152111   3.572   5.953   2.683 -0.6335  0.5405 -0.1209
10232TIP3    H252112   3.573   5.802   2.694 -1.2412  0.5899  0.7772
10233TIP3   OH252113   0.403   2.552  13.100 -0.5667 -0.5624  0.2739
10233TIP3    H152114   0.345   2.602  13.157 -0.9315 -1.0515  0.3430
10233TIP3    H252115   0.352   2.475  13.076  0.4361 -1.5518  1.2067
10234TIP3   OH252116   4.794   5.051   2.727  0.2499 -0.1828 -0.0746
10234TIP3    H152117   4.829   5.104   2.798 -0.0589 -0.7734  0.5298
10234TIP3    H252118   4.723   5.000   2.767  1.6958 -2.3912 -0.1781
10235TIP3   OH252119   5.560   4.789   4.261 -0.7491 -0.8713  0.0291
10235TIP3    H152120   5.649   4.810   4.290 -0.1040 -1.2821 -1.5460
10235TIP3    H252121   5.568   4.780   4.166 -2.7192  0.2674 -0.2883
10236TIP3   OH252122   1.451   4.017  12.398  0.7548 -0.3031  0.5533
10236TIP3    H152123   1.366   4.011  12.442  0.1226 -1.6771 -0.7826
10236TIP3    H252124   1.515   4.008  12.468 -0.2048  0.1641  1.5100
10237TIP3   OH252125   1.938   2.270  13.482  0.4581  0.0772  0.0006
10237TIP3    H152126   1.929   2.204  13.550 -0.7926 -0.9212 -1.0823
10237TIP3    H252127   2.028   2.303  13.493  0.8990 -1.3287  0.9807
10238TIP3   OH252128   2.805   2.286  11.964 -0.6878 -0.0546 -0.0341
10238TIP3    H152129   2.716   2.261  11.943 -0.3182 -0.8365 -0.7359
10238TIP3    H252130   2.812   2.273  12.059 -0.8633 -1.5610 -0.1951
10239TIP3   OH252131   6.666   3.067  13.529 -0.0632 -0.1171  0.1735
10239TIP3    H152132   6.618   3.013  13.466  0.6317 -0.3540 -0.1650
10239TIP3    H252133   6.757   3.036  13.523 -0.1135 -0.7036  1.8899
10240TIP3   OH252134   1.812   1.925  16.229  0.7244 -0.2074  0.0169
10240TIP3    H152135   1.811   1.913  16.134  2.6551 -2.2013  0.1727
10240TIP3    H252136   1.904   1.940  16.251  0.2722  0.5069  1.5556
10241TIP3   OH252137   5.228   0.510   6.105 -0.1073 -0.3244  0.0540
10241TIP3    H152138   5.317   0.493   6.135 -1.1870 -2.4075  2.3981
10241TIP3    H252139   5.172   0.457   6.161 -2.8056  0.0466 -2.0269
10242TIP3   OH252140   3.096   3.289  10.909 -0.2551 -0.9412  0.0305
10242TIP3    H152141   3.033   3.217  10.903 -3.3168  1.5990 -1.2011
10242TIP3    H252142   3.046   3.362  10.945  2.1873  1.1132 -0.4399
10243TIP3   OH252143   2.838   5.906   1.680 -0.2719 -0.1603 -0.4627
10243TIP3    H152144   2.806   5.994   1.698 -1.0215 -0.6202  0.6504
10243TIP3    H252145   2.911   5.917   1.621 -1.3440  1.0938 -1.6083
10244TIP3   OH252146   3.420   4.712  17.012 -0.5199 -0.2551  0.3725
10244TIP3    H152147   3.499   4.765  17.022 -0.8053  0.1220  0.6365
10244TIP3    H252148   3.451   4.631  16.972 -0.3974  1.0008 -2.3028
10245TIP3   OH252149   2.738   2.026  13.355  0.3091 -0.0137 -0.3071
10245TIP3    H152150   2.661   2.067  13.394  1.0142 -0.2191  1.3958
10245TIP3    H252151   2.712   1.935  13.338  0.0875 -0.0048 -0.0106
10246TIP3   OH252152   0.469   1.878  16.393  0.2582  0.0957 -0.0813
10246TIP3    H152153   0.394   1.912  16.344 -0.0123 -0.2860  0.0619
10246TIP3    H252154   0.468   1.784  16.377  0.6786  0.0823 -0.0361
10247TIP3   OH252155   4.853   5.121  13.402  0.4686  0.3269 -0.2189
10247TIP3    H152156   4.800   5.044  13.421  0.1490  0.7971  0.8936
10247TIP3    H252157   4.889   5.105  13.315  0.6823 -1.2216  0.1360
10248TIP3   OH252158   4.473   4.212   2.529 -1.0279  0.0230 -0.4359
10248TIP3    H152159   4.430   4.153   2.467 -1.0648  0.2795 -0.6543
10248TIP3    H252160   4.462   4.169   2.614 -0.7863 -0.4357 -0.6351
10249TIP3   OH252161   0.539   5.562   3.028  0.0020  0.4624 -0.0712
10249TIP3    H152162   0.517   5.642   2.980  1.1463  0.6014 -0.4037
10249TIP3    H252163   0.574   5.593   3.111  0.0820  0.2951 -0.0417
10250TIP3   OH252164   5.506   3.335   0.762  0.6846  0.4843  0.6969
10250TIP3    H152165   5.537   3.252   0.796 -1.9776 -0.5613  0.8227
10250TIP3    H252166   5.513   3.396   0.836 -1.0914 -0.7012  1.9165
10251TIP3   OH252167   2.064   5.966   0.710 -0.6706 -0.0520 -0.4344
10251TIP3    H152168   2.130   5.957   0.641 -0.6041 -0.0538 -0.3703
10251TIP3    H252169   1.995   6.020   0.670 -0.0016  1.1243 -0.0621
10252TIP3   OH252170   6.056   2.303   0.403  0.1018 -0.0773  0.4856
10252TIP3    H152171   6.118   2.237   0.374 -0.3241 -0.0214 -0.6127
10252TIP3    H252172   5.991   2.254   0.453 -0.2755 -0.5352 -0.4208
10253TIP3   OH252173   6.474   0.254   2.447 -1.0818 -0.6294  0.4823
10253TIP3    H152174   6.400   0.241   2.387 -0.6359 -0.0711 -0.1941
10253TIP3    H252175   6.469   0.346   2.472  0.0822 -0.2767 -0.5114
10254TIP3   OH252176   1.779   1.546   5.244  0.1141 -0.4497  0.0158
10254TIP3    H152177   1.711   1.581   5.302  1.3006  0.4016  0.9334
10254TIP3    H252178   1.754   1.576   5.157 -0.3662  0.3827  0.4304
10255TIP3   OH252179   0.105   0.524   1.167 -0.8077 -0.3040  0.1881
10255TIP3    H152180   0.073   0.482   1.246  1.9319 -2.4509  0.3080
10255TIP3    H252181   0.141   0.607   1.197  0.0570 -1.0250  1.1935
10256TIP3   OH252182   1.096   1.875   0.048 -0.0719  0.2838 -0.0436
10256TIP3    H152183   1.139   1.799   0.088  0.4608  0.8489  0.4903
10256TIP3    H252184   1.150   1.895  -0.029  0.4413  0.7913  0.4405
10257TIP3   OH252185   3.068   0.621   3.070 -0.2612 -0.4925 -0.3518
10257TIP3    H152186   3.154   0.588   3.044 -0.7311 -0.9428 -1.3952
10257TIP3    H252187   3.027   0.650   2.989 -1.0350 -0.1263  0.1523
10258TIP3   OH252188   4.978   5.081  12.314  0.1884 -0.4222 -0.1584
10258TIP3    H152189   4.963   5.046  12.402 -0.7971 -0.2635 -0.2504
10258TIP3    H252190   5.021   5.010  12.267 -2.1450 -1.7457 -0.4696
10259TIP3   OH252191   0.863   5.028  12.694 -0.5387  0.2124 -0.5331
10259TIP3    H152192   0.948   5.071  12.701 -0.3777 -0.1240 -0.4071
10259TIP3    H252193   0.819   5.073  12.621  0.4674 -0.8347 -1.8247
10260TIP3   OH252194   3.770   0.371  15.814  0.1094 -0.6003  0.0184
10260TIP3    H152195   3.783   0.303  15.748  0.9279 -2.1227  1.6502
10260TIP3    H252196   3.717   0.328  15.882  1.3359  0.0957  1.4659
10261TIP3   OH252197   1.276   1.462  10.749  0.2232  0.9389  0.0264
10261TIP3    H152198   1.298   1.540  10.698 -0.6439  0.3716 -1.2585
10261TIP3    H252199   1.324   1.392  10.705 -0.9789  0.3514 -0.3713
10262TIP3   OH252200   3.135   5.327   4.962 -0.1352 -0.5256 -0.9792
10262TIP3    H152201   3.066   5.273   4.924 -1.0590  0.8101 -1.2409
10262TIP3    H252202   3.107   5.417   4.947  1.5990  0.0557 -0.9587
10263TIP3   OH252203   5.082   5.492  11.162  0.0016  0.6808 -0.2264
10263TIP3    H152204   5.012   5.534  11.112  0.1675  1.4346  0.1539
10263TIP3    H252205   5.162   5.535  11.131  0.2415  0.2109 -0.2662
10264TIP3   OH252206   3.246   1.030   4.697 -0.4570  0.3380  0.4042
10264TIP3    H152207   3.156   1.044   4.725 -0.6553  2.3130 -1.0681
10264TIP3    H252208   3.257   1.084   4.619  1.2317 -1.9217 -1.0703
10265TIP3   OH252209   6.679   4.745   3.033 -0.2149  0.6323 -0.2103
10265TIP3    H152210   6.658   4.818   3.091 -1.3446  0.0056  0.2046
10265TIP3    H252211   6.594   4.715   3.001  0.3882  1.1380 -2.4331
10266TIP3   OH252212   3.969   0.956  15.106  0.1963  0.2713  0.4437
10266TIP3    H152213   3.995   1.047  15.094  2.1421  0.1313  2.8461
10266TIP3    H252214   3.973   0.918  15.018  0.4126  2.2283 -0.4357
10267TIP3   OH252215   3.087   3.038  11.479 -0.4859 -0.3138 -0.3630
10267TIP3    H152216   3.060   3.093  11.553  0.1782 -1.2294  0.5973
10267TIP3    H252217   3.031   2.960  11.486  0.7771 -1.2115  0.2921
10268TIP3   OH252218   1.808   6.275  16.579  0.1062 -0.5589  0.1868
10268TIP3    H152219   1.719   6.309  16.567 -0.1938 -0.9910  1.0703
10268TIP3    H252220   1.863   6.334  16.527 -0.7446 -0.5921 -0.7941
10269TIP3   OH252221   0.346   2.408   1.175  0.4358  0.1029 -0.1848
10269TIP3    H152222   0.260   2.366   1.175 -0.2018  1.3372 -1.2739
10269TIP3    H252223   0.367   2.420   1.083  1.8551 -0.2867  0.0635
10270TIP3   OH252224   2.363   5.367  11.395 -0.3553 -0.2027 -0.0936
10270TIP3    H152225   2.268   5.366  11.383 -0.5806 -0.9535  1.4856
10270TIP3    H252226   2.376   5.395  11.485  0.8252 -1.7657  0.2719
10271TIP3   OH252227   1.370   6.049  12.228 -0.0194  0.3021  0.3241
10271TIP3    H152228   1.348   6.140  12.249 -3.0362 -0.4977  1.1320
10271TIP3    H252229   1.370   6.005  12.313 -0.1797 -0.7259 -0.1929
10272TIP3   OH252230   5.176   5.601  16.971 -0.2763 -0.0300 -0.7216
10272TIP3    H152231   5.146   5.550  16.896  1.3724 -0.3019 -1.2377
10272TIP3    H252232   5.098   5.612  17.026 -0.9596 -2.0383 -1.2074
10273TIP3   OH252233   6.399   3.717  11.395  0.1344  0.2843 -0.0347
10273TIP3    H152234   6.389   3.784  11.327 -1.6951 -0.5276 -0.6255
10273TIP3    H252235   6.331   3.739  11.459  1.1683  0.4334  1.0461
10274TIP3   OH252236   3.116   0.238   1.491 -0.1007  0.1487 -0.4247
10274TIP3    H152237   3.120   0.146   1.464 -2.5678  0.0776 -0.8220
10274TIP3    H252238   3.121   0.235   1.587 -1.1982 -0.5464 -0.3616
10275TIP3   OH252239   0.238   4.925   3.682  0.4859 -0.0685 -0.2252
10275TIP3    H152240   0.281   5.010   3.669 -0.1963  0.3401  0.1216
10275TIP3    H252241   0.194   4.934   3.766  3.3423 -2.0032  1.6840
10276TIP3   OH252242   6.570   3.082  14.583  0.3354 -0.4544  0.1885
10276TIP3    H152243   6.550   3.117  14.671  0.2841  0.4166 -0.1590
10276TIP3    H252244   6.567   3.159  14.526  1.9615 -0.7438 -0.3288
10277TIP3   OH252245   5.333   4.530  12.836 -0.0992  0.1468 -0.5105
10277TIP3    H152246   5.361   4.442  12.861  0.7030  0.9933  1.7992
10277TIP3    H252247   5.362   4.539  12.745  0.7732 -1.5795 -0.4427
10278TIP3   OH252248   5.466   3.927   3.304 -0.1011  0.2787  0.0047
10278TIP3    H152249   5.559   3.934   3.328 -0.1927  0.2126  0.3814
10278TIP3    H252250   5.425   4.003   3.346 -0.0401  0.9293 -1.0601
10279TIP3   OH252251   0.869   0.525  16.991 -0.3083  0.0002 -0.7075
10279TIP3    H152252   0.875   0.461  16.920 -1.5762  0.6539 -1.4463
10279TIP3    H252253   0.804   0.489  17.051  0.9852 -0.7009  0.3281
10280TIP3   OH252254   6.266   5.102   5.645  0.0935  0.5427  0.3799
10280TIP3    H152255   6.354   5.073   5.622 -0.1408 -0.4164  0.6774
10280TIP3    H252256   6.236   5.150   5.567  0.6179  0.2891  0.0141
10281TIP3   OH252257   1.216   3.115   4.106  0.9188  0.0994  0.4401
10281TIP3    H152258   1.143   3.064   4.070  1.1574 -0.5083  0.8133
10281TIP3    H252259   1.239   3.175   4.035  0.5143 -0.1786  0.0606
10282TIP3   OH252260   1.821   0.911   2.935 -0.0199  0.3862  0.2538
10282TIP3    H152261   1.731   0.878   2.946  0.2384  0.1008  1.8291
10282TIP3    H252262   1.810   0.997   2.894 -0.9224 -0.1786 -0.7414
10283TIP3   OH252263   4.151   2.700   1.700  0.6946  0.0107 -0.2774
10283TIP3    H152264   4.222   2.636   1.690  1.4243  0.9092 -1.0597
10283TIP3    H252265   4.072   2.647   1.708  1.5726 -1.0522  1.9946
10284TIP3   OH252266   2.572   4.729  11.336 -1.0187 -0.3990 -0.2523
10284TIP3    H152267   2.540   4.721  11.246 -0.8410 -0.3246 -0.3235
10284TIP3    H252268   2.499   4.765  11.385 -1.7378 -2.1647  0.0126
10285TIP3   OH252269   3.385   4.783   5.321  0.0445  0.3962 -0.5215
10285TIP3    H152270   3.441   4.709   5.296  0.0733  0.2714 -0.0993
10285TIP3    H252271   3.317   4.785   5.254  0.9089  0.9511 -1.4083
10286TIP3   OH252272   3.948   2.444  16.626  0.0215  0.4153  0.2130
10286TIP3    H152273   3.907   2.362  16.655  0.5287  0.2606  0.5102
10286TIP3    H252274   3.926   2.507  16.694 -0.1919  0.4700  0.0913
10287TIP3   OH252275   3.075   5.698   6.656  0.4053 -0.4646 -0.1827
10287TIP3    H152276   3.082   5.745   6.573 -0.2320 -1.1280 -0.6126
10287TIP3    H252277   3.027   5.618   6.635 -0.8390 -0.0791  1.0424
10288TIP3   OH252278   2.775   1.481  15.568 -0.3425 -0.5464 -0.2698
10288TIP3    H152279   2.863   1.505  15.539 -0.7674  0.7509 -0.5857
10288TIP3    H252280   2.785   1.395  15.607  1.4201  0.2763  1.2716
10289TIP3   OH252281   2.294   5.437  13.859 -0.2505 -0.5430 -0.7743
10289TIP3    H152282   2.251   5.360  13.898 -1.7909 -0.0425 -1.4433
10289TIP3    H252283   2.326   5.406  13.774  0.7705 -0.9158 -0.2740
10290TIP3   OH252284   6.324   1.887   5.482 -0.6880  0.1861  0.5571
10290TIP3    H152285   6.245   1.888   5.535 -0.6077  1.8222  0.7120
10290TIP3    H252286   6.315   1.964   5.425  1.1667  0.9404  1.2008
10291TIP3   OH252287   5.513   6.123  13.445 -0.7736 -0.0197  0.6972
10291TIP3    H152288   5.598   6.168  13.451  0.0021 -1.4927  1.1971
10291TIP3    H252289   5.506   6.097  13.353 -0.7509  0.1982  0.6314
10292TIP3   OH252290   4.071   0.813   6.928  0.1814  0.2584  0.2985
10292TIP3    H152291   4.079   0.718   6.937  1.3814  0.4732  1.8760
10292TIP3    H252292   4.147   0.840   6.877  0.0403  0.4195  0.1699
10293TIP3   OH252293   5.999   0.125  12.761  0.0102  0.9012 -0.1047
10293TIP3    H152294   6.066   0.096  12.821  2.6695  0.4432 -3.0304
10293TIP3    H252295   5.957   0.044  12.731  0.7262  0.8318 -0.9782
10294TIP3   OH252296   3.493   1.729  16.475  0.1094  0.1488  0.0398
10294TIP3    H152297   3.547   1.706  16.400  0.9052  0.5359  0.4764
10294TIP3    H252298   3.435   1.654  16.487 -0.5804  0.4261 -1.4398
10295TIP3   OH252299   2.850   6.212  15.637 -0.0361 -0.0322 -0.6164
10295TIP3    H152300   2.807   6.179  15.558 -1.3875 -0.0937  0.1265
10295TIP3    H252301   2.786   6.269  15.678  0.5141 -0.2596  0.6118
10296TIP3   OH252302   1.633   4.847  11.785  0.7808 -0.0297 -0.1736
10296TIP3    H152303   1.650   4.833  11.692  0.8274 -1.2333  0.0066
10296TIP3    H252304   1.686   4.781  11.830 -0.6884 -0.7261  0.6201
10297TIP3   OH252305   1.985   5.797  14.932  0.3883  0.0095 -0.0782
10297TIP3    H152306   1.956   5.746  14.857  1.7630 -0.5534 -0.2578
10297TIP3    H252307   1.963   5.888  14.910 -1.0573 -0.3695 -0.2526
10298TIP3   OH252308   2.984   1.282  17.003 -0.0494  0.0589 -0.2578
10298TIP3    H152309   2.915   1.224  17.034  0.3648  0.1588  0.9114
10298TIP3    H252310   3.019   1.239  16.925 -0.6579 -0.5606 -0.1985
10299TIP3   OH252311   5.643   3.834  14.813  0.3933  0.1270 -0.0298
10299TIP3    H152312   5.689   3.894  14.872  0.1227  0.2474  0.0579
10299TIP3    H252313   5.568   3.804  14.863  1.9369 -2.3823  0.9612
10300TIP3   OH252314   0.395   0.329   0.058 -0.3895  0.1066  0.2057
10300TIP3    H152315   0.367   0.274   0.132 -2.6420  2.6686  1.4321
10300TIP3    H252316   0.397   0.269  -0.017 -1.7608 -1.8372  1.6149
10301TIP3   OH252317   4.097   5.726   0.688  0.3646 -0.1327 -0.3294
10301TIP3    H152318   4.054   5.643   0.670  1.1441 -0.5042 -0.4916
10301TIP3    H252319   4.051   5.789   0.632  0.0334 -0.5225 -0.5025
10302TIP3   OH252320   3.762   0.908   3.637 -0.0520  0.3963  0.1980
10302TIP3    H152321   3.795   0.986   3.593  1.0570 -1.6318 -2.8722
10302TIP3    H252322   3.676   0.893   3.599  0.7031 -1.0929 -1.0301
10303TIP3   OH252323   0.014   2.377   5.803  0.4090  0.2994 -0.2480
10303TIP3    H152324   0.047   2.288   5.809  0.2088  0.2945  1.1551
10303TIP3    H252325  -0.052   2.383   5.872 -1.0755  0.9245 -1.6575
10304TIP3   OH252326   2.614   2.711   5.747 -0.8569  0.2129  0.5002
10304TIP3    H152327   2.667   2.779   5.789  0.5513  1.0224 -2.3392
10304TIP3    H252328   2.656   2.629   5.774 -1.2072  0.5519  2.1777
10305TIP3   OH252329   1.766   2.635  16.568 -0.3833 -0.4244 -0.0860
10305TIP3    H152330   1.772   2.705  16.503 -2.1010 -1.3209 -1.2718
10305TIP3    H252331   1.707   2.671  16.635 -2.4662 -1.1675 -1.4091
10306TIP3   OH252332   2.309   6.118  13.937  0.0084  0.1221  0.2176
10306TIP3    H152333   2.358   6.042  13.970 -2.7029 -1.1001  1.7282
10306TIP3    H252334   2.251   6.082  13.871 -0.2929  1.1727 -0.1028
10307TIP3   OH252335   1.186   0.096  13.239 -0.4955 -0.1912  0.2566
10307TIP3    H152336   1.172   0.177  13.288  0.7444  0.2900 -0.1541
10307TIP3    H252337   1.280   0.091  13.226 -0.6015 -1.4436 -0.1755
10308TIP3   OH252338   4.421   0.608  14.306 -0.2305  0.7616 -0.2642
10308TIP3    H152339   4.354   0.540  14.319  0.6733 -0.1508 -0.2442
10308TIP3    H252340   4.385   0.663  14.236 -0.5531 -0.3399 -1.0101
10309TIP3   OH252341   1.882   1.215   2.192 -0.1668 -0.4310 -0.2265
10309TIP3    H152342   1.830   1.171   2.125 -0.5436 -0.7395  0.2535
10309TIP3    H252343   1.948   1.150   2.217  0.2228 -0.1721 -0.5772
10310TIP3   OH252344   5.681   4.618   0.951  0.2761 -0.2227 -0.1364
10310TIP3    H152345   5.721   4.698   0.917  1.0379 -0.3385  0.4649
10310TIP3    H252346   5.647   4.643   1.037 -1.4036 -0.0028 -0.8262
10311TIP3   OH252347   5.800   5.699   5.536 -0.0270  0.0492  0.0280
10311TIP3    H152348   5.825   5.721   5.625 -0.8566  0.7456  0.1065
10311TIP3    H252349   5.872   5.646   5.503  0.6578  0.4517  0.8422
10312TIP3   OH252350   1.720   6.653  11.795 -0.3176 -0.5688 -0.2993
10312TIP3    H152351   1.653   6.692  11.851 -1.0269  0.1570 -1.6012
10312TIP3    H252352   1.771   6.597  11.853 -0.6181  0.6452  1.2008
10313TIP3   OH252353   3.368   1.714   2.985 -0.4885  0.4663  0.3437
10313TIP3    H152354   3.274   1.716   2.970 -0.5979  0.4148  0.9951
10313TIP3    H252355   3.391   1.621   2.982 -0.8516  0.2556  2.4214
10314TIP3   OH252356   1.125   6.705  13.998  0.4423 -0.6582 -0.2752
10314TIP3    H152357   1.194   6.770  14.005 -0.3408  0.1094  0.5934
10314TIP3    H252358   1.157   6.642  13.933  1.1718  0.6356 -1.2166
10315TIP3   OH252359   1.851   0.066  14.530  0.3437 -0.7892  0.5653
10315TIP3    H152360   1.783   0.106  14.584  0.9884 -1.0955  1.6397
10315TIP3    H252361   1.932   0.109  14.558  0.9109 -2.1051  1.0237
10316TIP3   OH252362   4.769   4.649  11.895 -0.0432  0.2408  0.0727
10316TIP3    H152363   4.801   4.585  11.832  1.8350  0.0800  1.1140
10316TIP3    H252364   4.813   4.731  11.870 -1.3422  0.8093 -0.4058
10317TIP3   OH252365   6.303   3.714   0.848 -0.0270 -0.3392 -0.2297
10317TIP3    H152366   6.328   3.693   0.758  1.3392  1.5067 -0.3559
10317TIP3    H252367   6.386   3.734   0.892 -0.8256  0.7466  0.8677
10318TIP3   OH252368   2.574   0.843  10.798  0.4548  0.1685  0.2907
10318TIP3    H152369   2.501   0.782  10.801 -2.1919  2.9973 -0.9182
10318TIP3    H252370   2.606   0.838  10.708  0.6610  0.1108  0.3673
10319TIP3   OH252371   0.052   3.897  13.115  0.3792  0.2654  0.2317
10319TIP3    H152372   0.096   3.844  13.049  0.0726 -0.1413  0.3530
10319TIP3    H252373   0.107   3.889  13.193  1.7401  2.2036 -0.4584
10320TIP3   OH252374   2.725   2.668  16.960  0.3907 -0.9860  0.3976
10320TIP3    H152375   2.659   2.608  16.993  2.5970 -3.5075  0.5464
10320TIP3    H252376   2.741   2.641  16.870 -0.4497  1.2103 -0.4940
10321TIP3   OH252377   6.457   0.372  13.293  0.3323  0.0056 -0.4168
10321TIP3    H152378   6.385   0.431  13.269 -1.7769 -1.9646  0.6788
10321TIP3    H252379   6.468   0.384  13.387 -0.0890 -1.2567 -0.1887
10322TIP3   OH252380   4.804   3.852   3.900 -0.4343 -0.0477 -0.1749
10322TIP3    H152381   4.820   3.825   3.809 -2.7240 -0.2758 -0.5555
10322TIP3    H252382   4.793   3.770   3.948 -0.7221  0.1024  0.0159
10323TIP3   OH252383   4.900   4.992  12.556 -0.5096 -0.1956 -0.3211
10323TIP3    H152384   4.812   4.994  12.518 -0.9421 -1.1838  0.5918
10323TIP3    H252385   4.889   5.028  12.644  0.7004  3.2024 -1.4192
10324TIP3   OH252386   0.303   6.565   0.977  0.8463 -0.0438  0.1303
10324TIP3    H152387   0.342   6.644   1.015  1.6640 -1.3080  2.0622
10324TIP3    H252388   0.368   6.535   0.913  0.1332  1.2638 -1.2991
10325TIP3   OH252389   5.741   0.493   3.633  0.7541 -0.0578 -0.3976
10325TIP3    H152390   5.685   0.502   3.710  0.5411  0.0980 -0.5694
10325TIP3    H252391   5.697   0.543   3.565  0.3374 -1.1274 -0.9439
10326TIP3   OH252392   0.378   1.519  15.283 -0.2310 -0.2351 -0.4761
10326TIP3    H152393   0.377   1.470  15.201  0.9983  1.7103 -1.7170
10326TIP3    H252394   0.324   1.467  15.343 -2.9907 -0.6397 -3.1198
10327TIP3   OH252395   1.359   5.651  12.353 -0.0823 -0.8816 -0.0154
10327TIP3    H152396   1.399   5.730  12.390  0.0223 -1.1973  0.5546
10327TIP3    H252397   1.429   5.609  12.303  0.0921 -1.0533  0.3765
10328TIP3   OH252398   3.749   2.798   1.162  0.1053 -0.6218 -0.0779
10328TIP3    H152399   3.819   2.777   1.100  0.0909 -0.9126  0.0015
10328TIP3    H252400   3.682   2.842   1.109 -0.3816 -1.8124 -0.5040
10329TIP3   OH252401   0.009   1.351   6.753 -0.0725 -0.3355  0.3295
10329TIP3    H152402  -0.041   1.430   6.771 -1.4799 -0.7506 -1.4329
10329TIP3    H252403  -0.037   1.310   6.680  1.1800 -2.2892  0.5668
10330TIP3   OH252404   4.748   6.785  16.786 -0.1939 -0.1716 -0.1896
10330TIP3    H152405   4.712   6.782  16.698 -3.5073  0.3509  1.0127
10330TIP3    H252406   4.758   6.879  16.805 -1.6118 -0.1672  0.6973
10331TIP3   OH252407   2.091   6.382   2.625  0.2697  0.2896 -0.3012
10331TIP3    H152408   2.049   6.298   2.641  1.1641  0.0199  0.7792
10331TIP3    H252409   2.087   6.393   2.530 -0.8047 -0.4566 -0.3640
10332TIP3   OH252410   2.288   1.054  12.643  0.8513 -0.2619 -0.0318
10332TIP3    H152411   2.371   1.011  12.622 -0.3978 -3.2614  0.7060
10332TIP3    H252412   2.235   1.044  12.565  0.6692  0.3197  0.0130
10333TIP3   OH252413   6.310   4.413   0.960 -0.5514 -0.5811  0.9961
10333TIP3    H152414   6.215   4.405   0.950 -0.4157  0.1473 -1.5809
10333TIP3    H252415   6.333   4.489   0.907  1.7808 -2.3086 -0.6841
10334TIP3   OH252416   0.735   3.891   1.038  0.3537  0.1899  0.1939
10334TIP3    H152417   0.737   3.987   1.044 -1.5377  0.4990 -2.3629
10334TIP3    H252418   0.677   3.864   1.109  1.0512  0.9068  1.0557
10335TIP3   OH252419   4.700   4.199   1.694 -0.1862  0.1094 -0.0268
10335TIP3    H152420   4.654   4.217   1.612  0.3281 -0.0823 -0.3635
10335TIP3    H252421   4.643   4.235   1.762 -0.9399 -0.3232 -0.4163
10336TIP3   OH252422   1.213   2.413  10.466 -0.1192  0.2397 -0.2350
10336TIP3    H152423   1.158   2.361  10.408  0.6391  0.0892 -0.8392
10336TIP3    H252424   1.153   2.448  10.532 -1.1063  0.9223 -1.4660
10337TIP3   OH252425   2.526   2.821  14.910  0.1869  0.0271  0.6863
10337TIP3    H152426   2.572   2.811  14.993  0.0929  0.7960  0.8377
10337TIP3    H252427   2.595   2.821  14.844  0.2743 -0.4062  0.7746
10338TIP3   OH252428   4.719   6.510   3.101 -0.2824  0.2696  0.4927
10338TIP3    H152429   4.804   6.511   3.057 -0.5968  0.0173 -0.1284
10338TIP3    H252430   4.715   6.594   3.147  0.7795 -0.1745  1.4555
10339TIP3   OH252431   4.366   6.689  11.075 -0.5160  0.3152 -0.4565
10339TIP3    H152432   4.388   6.620  11.138  2.1190  2.1306  0.8275
10339TIP3    H252433   4.393   6.653  10.990 -0.7687 -0.8514 -0.0607
10340TIP3   OH252434   1.505   5.772   2.733  0.4340  0.1052  0.3046
10340TIP3    H152435   1.601   5.780   2.730  0.6529 -0.3639  3.0653
10340TIP3    H252436   1.488   5.679   2.722  0.4035  0.0362  0.8845
10341TIP3   OH252437   3.124   6.255  16.066  0.3014 -0.1926 -0.3062
10341TIP3    H152438   3.051   6.251  16.004  0.0606 -0.6530 -0.0069
10341TIP3    H252439   3.086   6.297  16.144  1.1332  2.3349 -1.1529
10342TIP3   OH252440   0.061   6.323  16.357  0.6063  0.0986 -0.2463
10342TIP3    H152441   0.053   6.337  16.452  0.5334 -2.9164  0.2778
10342TIP3    H252442  -0.025   6.290  16.330  0.5047  1.2740 -1.4775
10343TIP3   OH252443   3.139   3.945  16.903 -0.9596 -0.5733 -0.0106
10343TIP3    H152444   3.187   4.027  16.914 -1.3051  0.0414 -2.4481
10343TIP3    H252445   3.207   3.877  16.902 -0.6871 -0.4076  2.2028
10344TIP3   OH252446   1.001   0.430  11.748 -0.0697  0.4068  0.2424
10344TIP3    H152447   0.934   0.444  11.681  0.0320 -0.2817 -0.0156
10344TIP3    H252448   1.084   0.437  11.700 -0.0127 -1.0639  0.0775
10345TIP3   OH252449   0.396   6.092   2.168  0.1709 -0.3005  0.7354
10345TIP3    H152450   0.375   6.126   2.255 -2.3310 -0.5003  0.2834
10345TIP3    H252451   0.327   6.128   2.111  1.7041 -0.2034 -1.1853
10346TIP3   OH252452   4.684   1.723  10.757 -0.2759 -0.2424 -0.2811
10346TIP3    H152453   4.768   1.707  10.799 -0.1090  1.6725  0.2093
10346TIP3    H252454   4.704   1.724  10.663  0.2866  0.3274 -0.1606
10347TIP3   OH252455   3.459   5.777  14.007 -0.4373 -0.5466  0.0502
10347TIP3    H152456   3.482   5.791  14.098  0.5127  0.1898 -0.2866
10347TIP3    H252457   3.448   5.682  13.998  0.5304 -0.7247  0.6785
10348TIP3   OH252458   2.868   4.288  16.580 -0.8550 -0.0247  0.1992
10348TIP3    H152459   2.951   4.332  16.559 -0.8063  0.0312  0.5170
10348TIP3    H252460   2.858   4.223  16.510  0.2032 -1.0528  0.9574
10349TIP3   OH252461   2.005   0.575   5.162  0.1531 -0.0177 -0.0924
10349TIP3    H152462   1.999   0.480   5.167  2.5477 -0.2137  0.3485
10349TIP3    H252463   2.008   0.594   5.068  2.4796 -0.7006 -0.2252
10350TIP3   OH252464   4.122   4.700  12.611 -0.1786  0.1664  0.5180
10350TIP3    H152465   4.028   4.719  12.612  0.4987  4.4046  0.8336
10350TIP3    H252466   4.142   4.674  12.701 -0.9799 -0.4530  0.5252
10351TIP3   OH252467   2.650   0.430   6.324 -0.2662 -0.0514 -0.0541
10351TIP3    H152468   2.575   0.372   6.323  0.4057 -0.9798  1.0128
10351TIP3    H252469   2.707   0.397   6.255  0.7643 -1.6102  1.4693
10352TIP3   OH252470   1.090   3.159   4.687  0.0125  0.4880 -0.0866
10352TIP3    H152471   1.166   3.113   4.722 -0.2171  1.1472  1.3867
10352TIP3    H252472   1.115   3.252   4.688 -0.1000  0.5543 -1.5003
10353TIP3   OH252473   2.658   2.603  11.931 -0.1893  0.0387  1.0547
10353TIP3    H152474   2.633   2.696  11.932  0.2553  0.1614  0.5106
10353TIP3    H252475   2.580   2.558  11.899  0.5141  0.5064 -1.5000
10354TIP3   OH252476   3.484   0.821   1.716  0.1524  0.5917  0.1313
10354TIP3    H152477   3.468   0.832   1.623 -2.0529  0.9849  0.5044
10354TIP3    H252478   3.574   0.789   1.722 -0.3955 -1.7138 -2.2681
10355TIP3   OH252479   5.541   0.062   0.243 -0.2414 -0.3901 -0.2880
10355TIP3    H152480   5.517   0.012   0.165  0.1457  0.4574 -0.9654
10355TIP3    H252481   5.494   0.145   0.234  0.5114  0.0659 -0.0906
10356TIP3   OH252482   0.172   2.738   5.172 -0.8146  0.0501  0.1409
10356TIP3    H152483   0.136   2.651   5.153 -1.0973  0.1712  0.1238
10356TIP3    H252484   0.104   2.782   5.222 -0.4865  0.1017  0.5470
10357TIP3   OH252485   5.389   0.137   3.516 -0.4161 -1.1546  0.1651
10357TIP3    H152486   5.363   0.119   3.425  1.4694 -0.3108 -0.5879
10357TIP3    H252487   5.484   0.137   3.514 -0.3040  1.1386  1.6648
10358TIP3   OH252488   3.939   3.704  16.838  0.6842  0.3846 -0.2533
10358TIP3    H152489   3.953   3.759  16.916 -0.3333  1.5663 -0.8743
10358TIP3    H252490   3.915   3.766  16.769 -1.8744 -0.9265 -0.6481
10359TIP3   OH252491   6.617   4.893  13.951 -0.2929  0.1936 -0.7113
10359TIP3    H152492   6.672   4.830  13.903 -0.2707  0.8633 -1.5810
10359TIP3    H252493   6.529   4.855  13.948 -0.0306 -0.4871 -0.0071
10360TIP3   OH252494   2.098   4.849  13.776 -0.3224 -0.3113  0.4805
10360TIP3    H152495   2.045   4.769  13.768 -1.1483  0.2214  0.5514
10360TIP3    H252496   2.062   4.895  13.851  1.0614 -0.5309  1.3261
10361TIP3   OH252497   0.111   0.049   3.190 -0.0492 -0.3562 -0.2198
10361TIP3    H152498   0.163  -0.027   3.162  2.2762  0.6955  0.9519
10361TIP3    H252499   0.104   0.104   3.112  0.5979 -0.5285 -0.4076
10362TIP3   OH252500   2.696   2.344  16.084  0.6151  0.0187  0.0773
10362TIP3    H152501   2.720   2.371  15.996  0.4012 -0.4517 -0.1262
10362TIP3    H252502   2.648   2.262  16.072 -1.9463  1.3688  0.3804
10363TIP3   OH252503   0.577   2.337  16.332  0.3688 -0.2680  0.0609
10363TIP3    H152504   0.503   2.300  16.283  0.7765  0.0070 -0.7672
10363TIP3    H252505   0.643   2.356  16.266  0.6413  0.8164  0.6198
10364TIP3   OH252506   0.020   0.325  14.158 -0.4644 -0.8790 -0.0341
10364TIP3    H152507   0.052   0.236  14.143  0.9441 -0.1181 -2.0821
10364TIP3    H252508   0.075   0.359  14.228  0.9373 -0.7352 -1.1643
10365TIP3   OH252509   5.200   5.145  15.668 -0.4079 -0.1106  0.4927
10365TIP3    H152510   5.145   5.201  15.613 -1.2324 -0.9498  0.4350
10365TIP3    H252511   5.184   5.056  15.636  1.1260 -0.3724  0.3625
10366TIP3   OH252512   2.184   0.455  15.774 -0.4424  0.4649  0.0151
10366TIP3    H152513   2.211   0.488  15.860 -1.6132  0.4238  0.4188
10366TIP3    H252514   2.228   0.371  15.766 -0.1405  0.5727  0.4818
10367TIP3   OH252515   4.752   0.119   0.092  0.0301 -0.2944  0.5822
10367TIP3    H152516   4.735   0.194   0.034  3.2437  1.0120  1.1584
10367TIP3    H252517   4.710   0.143   0.174 -2.0423 -0.8477 -0.2402
10368TIP3   OH252518   2.435   2.264  14.979  0.2417  0.1907 -0.4187
10368TIP3    H152519   2.517   2.269  15.028  0.3350 -1.8972 -0.2656
10368TIP3    H252520   2.445   2.328  14.909  1.0480  1.6024  0.9218
10369TIP3   OH252521   1.940   2.651  10.456 -0.2657 -0.4965 -0.0464
10369TIP3    H152522   1.894   2.693  10.384  0.2158  0.0175 -0.0584
10369TIP3    H252523   1.871   2.624  10.516 -0.5246  2.3152  1.0686
10370TIP3   OH252524   2.567   1.161  12.273 -0.1369 -0.7018 -0.4205
10370TIP3    H152525   2.583   1.069  12.251  2.7484 -0.4277  0.1117
10370TIP3    H252526   2.490   1.185  12.222  0.2056 -2.8864 -2.1333
10371TIP3   OH252527   5.003   0.944  13.400  0.1854  0.4561 -0.3132
10371TIP3    H152528   5.001   0.849  13.391 -1.0059  0.4396 -0.0258
10371TIP3    H252529   5.007   0.959  13.495 -0.4285  0.6913 -0.3209
10372TIP3   OH252530   2.088   5.116  15.399  0.0021 -0.3262 -0.7025
10372TIP3    H152531   2.146   5.191  15.392  1.9105 -1.5464  0.9411
10372TIP3    H252532   2.104   5.065  15.320  1.6430 -0.9287 -0.0122
10373TIP3   OH252533   5.433   2.807   2.300 -0.2480  0.6950  0.0608
10373TIP3    H152534   5.441   2.721   2.260  1.1818  0.8407 -0.0203
10373TIP3    H252535   5.391   2.861   2.234  0.3418  0.4591 -0.5130
10374TIP3   OH252536   4.797   2.294   1.180 -0.6598  0.8487 -0.6040
10374TIP3    H152537   4.797   2.373   1.126  1.2349  1.9157  0.8308
10374TIP3    H252538   4.759   2.322   1.263 -1.2239 -0.1200 -0.5208
10375TIP3   OH252539   5.463   5.205  16.558 -0.7953 -0.0890 -0.1077
10375TIP3    H152540   5.476   5.299  16.571 -0.2965 -0.2066  0.2848
10375TIP3    H252541   5.379   5.199  16.513 -0.7584  0.5549 -0.2869
10376TIP3   OH252542   6.433   3.460  15.594 -0.0693 -0.0508  0.2206
10376TIP3    H152543   6.384   3.512  15.658 -0.3404 -2.4964  2.1950
10376TIP3    H252544   6.365   3.412  15.546  0.1987 -1.6451  1.3250
10377TIP3   OH252545   3.768   1.185  16.286  0.0456 -0.3490 -0.5675
10377TIP3    H152546   3.799   1.095  16.292  2.5147  0.4203 -0.7362
10377TIP3    H252547   3.838   1.238  16.324 -0.5039  1.6418 -2.1176
10378TIP3   OH252548   4.939   0.325   3.037  0.1559  0.2577  0.5180
10378TIP3    H152549   4.987   0.347   2.958 -0.6994  2.0826  0.4606
10378TIP3    H252550   4.849   0.309   3.007 -0.3577  1.7674  1.1844
10379TIP3   OH252551   5.068   0.080   5.046  0.5339  0.4987  0.0240
10379TIP3    H152552   4.989   0.033   5.073  1.1272  1.0049  3.0238
10379TIP3    H252553   5.040   0.133   4.971 -1.7597  0.0911  0.5052
10380TIP3   OH252554   5.319   6.569  12.512  0.2176 -0.4563  0.0596
10380TIP3    H152555   5.308   6.557  12.417  1.5199 -0.7496 -0.0788
10380TIP3    H252556   5.304   6.482  12.549  1.0651 -0.6521 -0.0346
10381TIP3   OH252557   6.759   2.814   1.682  0.0998  0.2030 -0.1744
10381TIP3    H152558   6.769   2.882   1.616 -1.5356  1.7091  1.0329
10381TIP3    H252559   6.671   2.779   1.666 -0.0785  0.1730  0.8201
10382TIP3   OH252560   2.612   0.913   4.278  0.6758 -0.4331  0.1477
10382TIP3    H152561   2.604   1.003   4.247  0.8332 -0.1441  0.9235
10382TIP3    H252562   2.664   0.920   4.358  1.4630 -1.3256 -0.2795
10383TIP3   OH252563   3.584   2.266  17.104  0.0333  0.0546 -0.0399
10383TIP3    H152564   3.526   2.198  17.139  0.3780 -0.1346  0.1680
10383TIP3    H252565   3.607   2.319  17.180  1.7297 -1.0566  0.2571
10384TIP3   OH252566   1.679   3.671   2.487  0.0732 -0.2604  0.3790
10384TIP3    H152567   1.715   3.583   2.482 -1.7111 -0.9658 -1.4583
10384TIP3    H252568   1.753   3.729   2.469  0.7757 -1.5341 -0.9988
10385TIP3   OH252569   5.648   1.366   2.769  0.4636  0.2180  0.8394
10385TIP3    H152570   5.649   1.327   2.682 -0.2054  0.0020  0.9183
10385TIP3    H252571   5.579   1.432   2.765 -0.9355 -1.1062  1.7399
10386TIP3   OH252572   1.795   1.032   5.462  0.0838  0.4061 -0.1441
10386TIP3    H152573   1.793   1.109   5.406 -0.9287  1.0910  0.7894
10386TIP3    H252574   1.710   0.990   5.448  1.4417 -1.8677 -2.3692
10387TIP3   OH252575   6.225   0.480  15.622  0.0638 -0.4027  0.0632
10387TIP3    H152576   6.150   0.492  15.680  1.3145 -0.8381  1.8543
10387TIP3    H252577   6.279   0.558  15.636 -0.3669  0.2803 -1.7782
10388TIP3   OH252578   3.754   4.979  14.109  0.0500 -0.1703  0.7140
10388TIP3    H152579   3.740   4.884  14.107 -1.1377 -0.0002  0.1685
10388TIP3    H252580   3.836   4.990  14.157  2.0564 -1.6703 -2.0680
10389TIP3   OH252581   4.376   3.514   5.422 -0.3255 -0.1209  0.4528
10389TIP3    H152582   4.362   3.455   5.348 -2.3429  0.7086  0.0930
10389TIP3    H252583   4.470   3.525   5.427 -0.0693 -1.2383 -1.1550
10390TIP3   OH252584   3.358   2.391  14.860  0.3493 -0.2001  0.3446
10390TIP3    H152585   3.284   2.363  14.915 -0.5125 -0.2875 -0.8293
10390TIP3    H252586   3.331   2.476  14.825  0.8323 -0.2046 -0.0452
10391TIP3   OH252587   2.207   5.290   4.119 -0.5758 -0.0759 -0.4195
10391TIP3    H152588   2.231   5.315   4.030  1.3805 -2.0711 -0.5267
10391TIP3    H252589   2.271   5.224   4.144 -2.7208 -1.5779  1.4852
10392TIP3   OH252590   5.557   0.669  12.727 -0.3569  0.1884 -0.2518
10392TIP3    H152591   5.602   0.742  12.770  0.4300 -0.3471 -0.1388
10392TIP3    H252592   5.577   0.680  12.634 -0.2453  0.1189 -0.2353
10393TIP3   OH252593   3.837   5.505   1.633  0.0216 -0.5773  0.1834
10393TIP3    H152594   3.763   5.565   1.643  1.3123  1.1238  0.0524
10393TIP3    H252595   3.827   5.467   1.546 -1.2860 -1.2600  0.6078
10394TIP3   OH252596   3.726   6.091  14.862 -0.2490 -0.1815  0.1246
10394TIP3    H152597   3.769   6.026  14.806  0.9531  0.7462 -0.0729
10394TIP3    H252598   3.633   6.067  14.860  0.1936 -2.0712  0.3206
10395TIP3   OH252599   4.556   5.175  16.327  0.1570 -0.2656  0.0985
10395TIP3    H152600   4.620   5.247  16.326  0.0682 -0.1859  0.1585
10395TIP3    H252601   4.515   5.181  16.414 -1.1562  0.7580 -0.5594
10396TIP3   OH252602   2.515   4.273   5.602  0.0689 -0.0687 -0.4686
10396TIP3    H152603   2.425   4.242   5.601 -0.7501  1.9902  0.9438
10396TIP3    H252604   2.568   4.195   5.589 -1.8630 -1.6494  0.6066
10397TIP3   OH252605   6.127   5.430  15.217  0.2372 -0.1457  0.3335
10397TIP3    H152606   6.039   5.462  15.238  0.4429 -0.3110  1.4562
10397TIP3    H252607   6.119   5.398  15.127 -0.6809  0.4489  0.1895
10398TIP3   OH252608   0.341   0.635   0.851  0.0851 -0.0646 -0.0444
10398TIP3    H152609   0.281   0.707   0.866 -0.5515 -1.2362  4.3574
10398TIP3    H252610   0.285   0.560   0.829  0.3060 -0.2767  0.1017
10399TIP3   OH252611   2.245   3.875   0.352  0.4777  0.0589 -0.3308
10399TIP3    H152612   2.329   3.898   0.392 -0.5587 -0.4676  2.3268
10399TIP3    H252613   2.242   3.926   0.271  2.2946  1.9870  0.7323
10400TIP3   OH252614   1.667   5.017   2.541  0.3798 -0.2694 -0.3940
10400TIP3    H152615   1.759   5.044   2.547  0.0957  0.4735  1.1646
10400TIP3    H252616   1.619   5.084   2.589 -0.7136 -1.8711  0.8894
10401TIP3   OH252617   4.719   0.359  17.124  0.2244 -0.2168  0.0917
10401TIP3    H152618   4.670   0.386  17.046 -0.5983  0.6893  0.8969
10401TIP3    H252619   4.716   0.435  17.182  0.2122 -1.1058  1.3021
10402TIP3   OH252620   0.565   5.417  14.508 -0.1526  0.1634  0.0208
10402TIP3    H152621   0.613   5.414  14.590 -0.4640 -1.7840  0.1860
10402TIP3    H252622   0.474   5.399  14.533 -0.3450  0.1185 -0.6830
10403TIP3   OH252623   3.087   5.297  16.404  0.0685  0.0801 -0.1764
10403TIP3    H152624   3.150   5.322  16.472  2.2834  1.2795 -2.4807
10403TIP3    H252625   3.064   5.380  16.362 -0.4658 -0.7208 -1.5221
10404TIP3   OH252626   2.749   3.885   4.470 -0.1414  0.2964 -0.0215
10404TIP3    H152627   2.776   3.800   4.504  0.5440  0.2550 -0.6315
10404TIP3    H252628   2.807   3.900   4.395 -0.5514  1.0980 -0.1905
10405TIP3   OH252629   0.915   2.223   6.394 -0.2479 -0.0231 -0.8650
10405TIP3    H152630   0.992   2.254   6.347  0.1354  1.1902  0.4834
10405TIP3    H252631   0.891   2.296   6.452 -0.8827 -1.2892  0.5505
10406TIP3   OH252632   2.159   3.441  14.786 -0.2056 -0.4381  0.1485
10406TIP3    H152633   2.229   3.504  14.768 -0.6270 -0.1274 -0.4098
10406TIP3    H252634   2.193   3.358  14.754  0.3628 -0.5119  0.9067
10407TIP3   OH252635   0.117   0.719  13.200  0.4539  0.0418 -0.3505
10407TIP3    H152636   0.212   0.728  13.209  0.4424  0.4035 -0.5533
10407TIP3    H252637   0.092   0.656  13.267  0.5717  1.4274  1.0523
10408TIP3   OH252638   1.352   6.289  14.917  0.3492 -0.2616 -0.0149
10408TIP3    H152639   1.270   6.259  14.878  0.5367  1.0967 -1.5613
10408TIP3    H252640   1.328   6.365  14.969  0.5613 -0.1355 -0.1011
10409TIP3   OH252641   3.917   5.501   0.685 -0.1057 -0.3886 -0.3303
10409TIP3    H152642   3.890   5.447   0.611 -1.0784  0.4004 -0.5704
10409TIP3    H252643   3.937   5.439   0.755 -3.1581 -1.0857  0.0769
10410TIP3   OH252644   2.541   4.834   2.916  0.1542  0.5591 -0.0915
10410TIP3    H152645   2.578   4.857   3.001 -0.1980  0.9412 -0.0377
10410TIP3    H252646   2.454   4.799   2.936  1.2345 -2.3659 -0.0217
10411TIP3   OH252647   3.176   4.100   1.127  0.2392  0.7186 -0.3012
10411TIP3    H152648   3.181   4.007   1.146  0.7618  0.4674 -1.5582
10411TIP3    H252649   3.086   4.114   1.098  0.2879  0.5128 -0.5534
10412TIP3   OH252650   1.448   0.679   4.122 -0.1129  0.1810 -0.0068
10412TIP3    H152651   1.504   0.674   4.199  2.6309  0.4795 -1.8347
10412TIP3    H252652   1.506   0.660   4.048 -2.8893 -1.5993 -1.9698
10413TIP3   OH252653   3.726   2.770   0.538  0.4178 -0.3531  0.3526
10413TIP3    H152654   3.654   2.824   0.571 -0.5579 -1.4099  0.0558
10413TIP3    H252655   3.702   2.681   0.565  1.3294 -0.7946 -0.2554
10414TIP3   OH252656   4.428   5.024  13.943 -0.4583 -0.0300 -0.4211
10414TIP3    H152657   4.393   4.994  14.027  0.4449  2.1572  0.8392
10414TIP3    H252658   4.518   4.992  13.941  0.3610  1.9661  0.7213
10415TIP3   OH252659   0.144   0.444   2.788  0.0940  0.1287 -0.5236
10415TIP3    H152660   0.065   0.497   2.781  0.8301  1.4180  0.3842
10415TIP3    H252661   0.172   0.455   2.879 -0.0340 -2.3432 -0.1179
10416TIP3   OH252662   5.437   0.680   4.957 -0.2666 -0.5973  0.0836
10416TIP3    H152663   5.347   0.661   4.932  0.3630  0.4917 -3.6808
10416TIP3    H252664   5.485   0.599   4.942 -0.2557 -0.5345 -0.2344
10417TIP3   OH252665   3.716   0.442   0.625  0.5205  0.1508  0.5106
10417TIP3    H152666   3.642   0.389   0.594 -0.7197  2.0742 -0.0042
10417TIP3    H252667   3.677   0.527   0.646  1.7221 -0.1858  4.9883
10418TIP3   OH252668   4.057   0.719  12.973  0.1689  0.5176 -0.4033
10418TIP3    H152669   3.988   0.781  13.000  0.2957  0.7106 -0.5246
10418TIP3    H252670   4.093   0.687  13.056 -1.7403 -1.4924 -0.2480
10419TIP3   OH252671   0.114   6.049   3.005 -0.0840 -0.2307 -0.6493
10419TIP3    H152672   0.026   6.056   3.042 -0.8229  0.3465 -2.4159
10419TIP3    H252673   0.108   5.975   2.944  0.6593 -0.1798 -0.7916
10420TIP3   OH252674   1.804   5.585   1.088 -0.1710 -0.6424  0.9691
10420TIP3    H152675   1.740   5.611   1.021  1.0364  0.5986  0.2330
10420TIP3    H252676   1.765   5.508   1.130 -1.3865 -0.9116 -0.5469
10421TIP3   OH252677   3.729   3.078  11.301  0.6240  0.5642  0.2486
10421TIP3    H152678   3.789   3.145  11.270  1.2467 -0.0614  0.0689
10421TIP3    H252679   3.785   3.004  11.322  0.2368  0.9478  2.9119
10422TIP3   OH252680   4.987   3.134  17.031  0.0299 -0.0749  0.3593
10422TIP3    H152681   5.051   3.066  17.012 -0.7499 -0.8891  0.5548
10422TIP3    H252682   4.983   3.187  16.952 -0.6236 -1.3090 -0.4563
10423TIP3   OH252683   4.653   4.342  16.267 -0.2176 -0.4837 -0.4548
10423TIP3    H152684   4.702   4.368  16.189  0.4959 -0.5877 -0.0533
10423TIP3    H252685   4.596   4.417  16.286 -0.0735 -0.2803 -0.8164
10424TIP3   OH252686   1.488   3.912   3.314 -0.0286  0.2014  0.6300
10424TIP3    H152687   1.458   3.847   3.378  0.0088  1.6949  2.2357
10424TIP3    H252688   1.419   3.913   3.248 -0.3857 -0.9259  0.9562
10425TIP3   OH252689   1.643   3.400  16.937 -0.4809 -0.2448  0.1687
10425TIP3    H152690   1.612   3.316  16.970  4.4047 -1.9682  1.1078
10425TIP3    H252691   1.631   3.461  17.010 -0.2715 -1.1662  0.9888
10426TIP3   OH252692   0.799   4.303   4.097 -0.1827  0.0748 -0.0935
10426TIP3    H152693   0.754   4.238   4.151 -1.5494 -0.0812 -1.3594
10426TIP3    H252694   0.850   4.252   4.034  0.0761  0.2421 -0.0233
10427TIP3   OH252695   1.930   1.451  11.670  0.2946 -0.2629 -0.5197
10427TIP3    H152696   1.885   1.532  11.646 -0.4781 -0.9402 -1.4062
10427TIP3    H252697   1.862   1.398  11.711  0.3763 -1.1407 -1.5078
10428TIP3   OH252698   0.492   3.449   2.738  0.3960  0.0719 -0.0085
10428TIP3    H152699   0.545   3.390   2.684 -0.2243 -0.8291  0.3570
10428TIP3    H252700   0.402   3.428   2.714  0.1667  0.9304  0.0758
10429TIP3   OH252701   0.023   2.255  11.674 -0.0306  0.3739  0.4828
10429TIP3    H152702   0.021   2.198  11.751 -3.4003  1.8617  1.7042
10429TIP3    H252703  -0.043   2.218  11.615 -1.0947  1.9940  0.5908
10430TIP3   OH252704   2.588   5.769  15.699  0.0688 -0.2561  0.2747
10430TIP3    H152705   2.508   5.717  15.705  0.4481 -0.8521  0.2030
10430TIP3    H252706   2.646   5.732  15.765  0.2112  0.3156  0.4731
10431TIP3   OH252707   2.859   3.096   5.424  0.2923  0.3415 -0.3035
10431TIP3    H152708   2.855   3.099   5.519  0.8023 -1.3327 -0.1899
10431TIP3    H252709   2.950   3.075   5.404 -0.4195 -2.6097 -0.9696
10432TIP3   OH252710   2.865   6.788   2.298  0.4493  0.0881  0.0028
10432TIP3    H152711   2.845   6.872   2.339 -3.1035 -0.0376 -1.1378
10432TIP3    H252712   2.869   6.726   2.371  0.0183  0.7736  0.6195
10433TIP3   OH252713   4.880   4.267   2.814 -0.2353  0.7564  0.0553
10433TIP3    H152714   4.905   4.176   2.826 -0.4280  0.6023 -0.6710
10433TIP3    H252715   4.816   4.266   2.743 -1.1491  1.3202  0.8393
10434TIP3   OH252716   6.307   4.109   3.430 -0.2107 -0.4956 -0.2365
10434TIP3    H152717   6.271   4.197   3.418 -1.7489 -0.8874  1.2354
10434TIP3    H252718   6.389   4.123   3.479 -0.4191  0.1243 -0.0636
10435TIP3   OH252719   4.767   6.476   6.777 -0.1008  0.0481  0.6724
10435TIP3    H152720   4.787   6.542   6.710  0.0153  0.0108  0.6697
10435TIP3    H252721   4.718   6.408   6.730  2.3012 -1.3220 -0.0250
10436TIP3   OH252722   2.831   5.522   0.914  0.2798 -0.6011 -0.1018
10436TIP3    H152723   2.757   5.582   0.904 -0.2657 -1.3720 -0.8433
10436TIP3    H252724   2.824   5.463   0.839  1.6723 -0.6680 -0.2050
10437TIP3   OH252725   3.689   4.995   1.613  0.0039 -0.0384  0.2564
10437TIP3    H152726   3.677   5.081   1.654 -0.2630 -0.6345  1.4846
10437TIP3    H252727   3.771   5.002   1.564  0.8227  0.4363  1.6580
10438TIP3   OH252728   3.484   5.906  15.561 -0.4489 -0.5822  0.0922
10438TIP3    H152729   3.525   5.991  15.576 -0.1475 -0.5840 -0.6908
10438TIP3    H252730   3.464   5.905  15.468  0.6555 -1.8508 -0.1597
10439TIP3   OH252731   2.359   0.269   0.829  0.7487 -0.0774  0.0874
10439TIP3    H152732   2.404   0.323   0.894 -1.1917  1.1648  0.4792
10439TIP3    H252733   2.343   0.328   0.755 -1.7262  0.0561  0.6611
10440TIP3   OH252734   3.722   0.464   3.881  0.1330 -0.2210 -0.2389
10440TIP3    H152735   3.739   0.378   3.917 -3.0226  0.2431  2.8682
10440TIP3    H252736   3.643   0.453   3.828  1.1058  0.3782 -1.9103
10441TIP3   OH252737   2.667   0.477   5.607  0.2720  0.5379 -0.4267
10441TIP3    H152738   2.649   0.481   5.701  0.5419 -1.0838 -0.2763
10441TIP3    H252739   2.741   0.416   5.600  0.6709  1.1294 -1.6494
10442TIP3   OH252740   1.985   6.658  15.444 -0.0519  0.8421 -0.6623
10442TIP3    H152741   2.010   6.748  15.424  1.1749  0.4706 -0.8978
10442TIP3    H252742   1.947   6.624  15.363  0.0604  0.9616 -0.7646
10443TIP3   OH252743   5.941   3.978  12.412 -0.5079 -0.0465 -0.0396
10443TIP3    H152744   5.870   4.038  12.435 -0.6139  0.1701 -0.8785
10443TIP3    H252745   5.984   4.020  12.337 -1.9403 -2.0189 -2.1103
10444TIP3   OH252746   1.991   5.307   2.305 -0.1037  0.9353  0.3636
10444TIP3    H152747   1.978   5.262   2.222  0.3391 -1.4498  1.4967
10444TIP3    H252748   2.045   5.383   2.283  0.2984  0.1661 -1.4751
10445TIP3   OH252749   6.086   1.290   5.508  0.3680 -0.2461 -0.1806
10445TIP3    H152750   6.077   1.327   5.596  2.8110  0.3850 -0.1051
10445TIP3    H252751   6.035   1.348   5.451 -0.4609 -0.1079  0.6853
10446TIP3   OH252752   5.407   4.113  11.666 -0.1741  0.0514  0.1021
10446TIP3    H152753   5.459   4.135  11.588 -0.2392  0.2353  0.1111
10446TIP3    H252754   5.391   4.197  11.709 -0.2360 -0.0374  0.2536
10447TIP3   OH252755   5.595   6.452   1.545  0.1748  0.2381 -0.0320
10447TIP3    H152756   5.676   6.434   1.592  0.0654  0.0873  0.0988
10447TIP3    H252757   5.621   6.511   1.474 -0.2046  3.3208  2.2207
10448TIP3   OH252758   0.196   5.760  14.850  0.7621  0.0541  0.0220
10448TIP3    H152759   0.289   5.737  14.850  1.1591  1.2933 -2.3362
10448TIP3    H252760   0.155   5.697  14.910  2.8307 -1.7567 -0.3349
10449TIP3   OH252761   4.176   0.214   4.071 -0.1797 -0.7940 -0.2556
10449TIP3    H152762   4.137   0.131   4.041 -1.8140 -0.1270 -0.0736
10449TIP3    H252763   4.155   0.276   4.001  1.2914 -0.5640 -0.5281
10450TIP3   OH252764   3.707   6.233  17.095  0.2153  0.0444  0.5782
10450TIP3    H152765   3.780   6.272  17.048  0.1571 -0.5357 -0.0043
10450TIP3    H252766   3.740   6.148  17.124 -0.4142 -0.4887 -0.2176
10451TIP3   OH252767   1.215   5.748  14.929 -0.3948  0.0377 -0.3792
10451TIP3    H152768   1.287   5.686  14.941  1.1198  2.0353  1.7858
10451TIP3    H252769   1.218   5.804  15.007 -3.7411  0.8176 -0.6488
10452TIP3   OH252770   3.531   6.370  16.907  0.0284  0.3145 -0.6476
10452TIP3    H152771   3.598   6.343  16.844  1.0904 -0.7842  0.8576
10452TIP3    H252772   3.553   6.320  16.986 -2.2773  0.3294  0.0516
10453TIP3   OH252773   4.599   6.281   3.916 -0.3389 -0.2371 -0.3800
10453TIP3    H152774   4.693   6.290   3.929 -0.8338  1.3640  3.3789
10453TIP3    H252775   4.577   6.197   3.957 -0.7854  0.6435  1.3078
10454TIP3   OH252776   6.672   4.694  10.762 -0.4575 -0.1058  0.1821
10454TIP3    H152777   6.730   4.658  10.695  0.3704 -1.6733  1.6558
10454TIP3    H252778   6.626   4.617  10.797 -1.4691  0.7761  0.8578
10455TIP3   OH252779   4.742   6.784  12.798  0.0890 -0.3051 -0.5946
10455TIP3    H152780   4.795   6.832  12.862  0.2898 -0.1138 -0.8971
10455TIP3    H252781   4.652   6.806  12.820  0.1274 -0.7887  0.0487
10456TIP3   OH252782   5.526   3.402   0.062  0.4439 -0.2222  0.2229
10456TIP3    H152783   5.584   3.328   0.078  2.4288  1.3035  0.4402
10456TIP3    H252784   5.538   3.422  -0.031 -1.1855 -1.0243 -0.1909
10457TIP3   OH252785   1.653   6.488  17.158 -0.0426 -0.7426  0.4728
10457TIP3    H152786   1.645   6.505  17.252 -0.3399  0.6559  0.2206
10457TIP3    H252787   1.747   6.492  17.140 -0.0509 -0.0191  0.5552
10458TIP3   OH252788   1.744   4.721  12.650 -0.1697  0.1296 -0.0895
10458TIP3    H152789   1.785   4.722  12.563 -0.9023  1.1301 -0.4405
10458TIP3    H252790   1.818   4.732  12.710  0.4003 -1.0326 -0.5384
10459TIP3   OH252791   1.718   1.982   4.866 -0.6469 -0.0037 -0.0723
10459TIP3    H152792   1.813   1.985   4.857 -0.8155  1.2904 -1.9393
10459TIP3    H252793   1.693   2.074   4.882 -1.9008  0.5821 -4.3385
10460TIP3   OH252794   5.877   3.276   5.709  0.1599 -0.1302 -0.0457
10460TIP3    H152795   5.934   3.250   5.637  1.2909 -0.6065  0.9788
10460TIP3    H252796   5.922   3.246   5.788 -0.8350  0.7250  0.8973
10461TIP3   OH252797   6.531   5.100   5.615 -0.2435 -0.2270 -0.2445
10461TIP3    H152798   6.566   5.157   5.683  1.3588  2.4917 -3.0646
10461TIP3    H252799   6.608   5.065   5.570 -1.2395 -2.4294 -0.3474
10462TIP3   OH252800   5.624   3.121  16.412 -0.2119 -0.4450 -0.2922
10462TIP3    H152801   5.688   3.107  16.343  1.6057 -0.7726  1.3739
10462TIP3    H252802   5.544   3.078  16.380  0.6762 -0.9168 -1.9824
10463TIP3   OH252803   3.607   5.389   1.202  0.0197 -0.6151 -0.1075
10463TIP3    H152804   3.648   5.332   1.137 -1.6027  2.2066 -3.9831
10463TIP3    H252805   3.523   5.348   1.221  0.3026 -1.2115 -0.1056
10464TIP3   OH252806   6.551   4.894   0.826 -0.1983  1.0384  0.6354
10464TIP3    H152807   6.507   4.931   0.749 -0.7844 -0.5347  0.1511
10464TIP3    H252808   6.637   4.868   0.794 -0.3862  0.5246  0.5265
10465TIP3   OH252809   5.066   3.000  13.024 -0.0699 -0.2954  0.3990
10465TIP3    H152810   5.006   3.029  13.093  1.0237  2.1085  0.4418
10465TIP3    H252811   5.131   2.946  13.069 -0.1811  0.0608  0.9873
10466TIP3   OH252812   4.588   2.852  11.789  0.2337 -0.0315  0.0746
10466TIP3    H152813   4.526   2.814  11.726 -1.1755  0.6134  1.0012
10466TIP3    H252814   4.669   2.803  11.777 -0.9282 -2.0179 -0.1100
10467TIP3   OH252815   6.585   2.093   3.443  0.8379 -0.7253  0.2478
10467TIP3    H152816   6.504   2.142   3.425  1.4866  1.1554  1.9651
10467TIP3    H252817   6.557   2.002   3.450 -0.6549 -0.4935 -1.8055
10468TIP3   OH252818   2.844   0.489   5.360 -0.1758 -0.2567  0.4705
10468TIP3    H152819   2.767   0.440   5.330  1.3714 -2.1308 -0.7507
10468TIP3    H252820   2.891   0.511   5.279  2.4370 -2.4964  1.2350
10469TIP3   OH252821   5.731   2.692  16.774  0.3358 -0.2879 -0.1329
10469TIP3    H152822   5.815   2.737  16.781  0.9391 -0.9041 -2.4445
10469TIP3    H252823   5.751   2.601  16.795 -0.4989  0.0549  2.5939
10470TIP3   OH252824   1.174   3.163   2.927 -0.2671 -0.3222 -0.1253
10470TIP3    H152825   1.182   3.236   2.865 -1.6410 -0.8162 -0.9266
10470TIP3    H252826   1.081   3.141   2.926 -0.2673 -0.5645  1.8924
10471TIP3   OH252827   4.480   2.390   1.387 -0.0198 -0.1366 -0.2054
10471TIP3    H152828   4.551   2.382   1.450  0.3507  3.1624 -0.0235
10471TIP3    H252829   4.404   2.416   1.440 -0.7321 -1.0590 -0.7287
10472TIP3   OH252830   5.013   4.280  10.643  0.1174 -0.1362 -0.1936
10472TIP3    H152831   5.003   4.215  10.713  0.4155 -1.0449 -0.9656
10472TIP3    H252832   5.092   4.329  10.666  1.3786 -1.7308 -0.8517
10473TIP3   OH252833   5.119   5.309  12.223 -0.1766  0.3918  0.0986
10473TIP3    H152834   5.075   5.350  12.148  0.7386  2.0462  0.3976
10473TIP3    H252835   5.052   5.254  12.263 -0.9991  0.3000 -1.3074
10474TIP3   OH252836   1.846   1.070   0.478  0.3106  0.3502  0.0675
10474TIP3    H152837   1.812   1.142   0.531  0.9345 -0.3912  1.5177
10474TIP3    H252838   1.794   0.995   0.503  0.7802 -0.0687 -0.1989
10475TIP3   OH252839   0.193   4.671  16.497  0.0404 -0.3757  0.7294
10475TIP3    H152840   0.249   4.607  16.453  1.1403  1.4014 -0.6185
10475TIP3    H252841   0.118   4.682  16.439  0.5649  0.5744  0.2006
10476TIP3   OH252842   3.788   4.205   2.528  0.4063  0.2095 -0.1583
10476TIP3    H152843   3.802   4.274   2.593 -1.7600  0.6425 -0.0540
10476TIP3    H252844   3.829   4.238   2.448  3.1200 -0.3364  0.8849
10477TIP3   OH252845   2.741   1.863  16.528 -0.2593  0.2841  0.1597
10477TIP3    H152846   2.760   1.933  16.591 -1.1013 -1.3935  2.4393
10477TIP3    H252847   2.647   1.845  16.541  0.1655 -1.9804  0.4824
10478TIP3   OH252848   0.680   0.401   3.726  0.2217 -0.0229 -0.0163
10478TIP3    H152849   0.719   0.424   3.810  0.9959 -0.1244 -0.3405
10478TIP3    H252850   0.589   0.428   3.734  0.5467  1.0006  0.4607
10479TIP3   OH252851   2.443   4.772   0.452 -0.3859  0.5665  0.2227
10479TIP3    H152852   2.436   4.850   0.397 -2.5814  0.4983  0.3195
10479TIP3    H252853   2.537   4.765   0.473  0.5058  0.7894 -3.1809
10480TIP3   OH252854   3.899   0.187  16.102  0.1250 -0.6450 -0.1498
10480TIP3    H152855   3.972   0.136  16.137  0.6866 -0.7266 -1.3705
10480TIP3    H252856   3.840   0.120  16.065  0.1643 -0.4930 -0.4877
10481TIP3   OH252857   5.191   1.286  15.954 -0.1238  0.0326  0.1502
10481TIP3    H152858   5.196   1.306  16.048 -1.1123 -0.2182  0.2714
10481TIP3    H252859   5.116   1.337  15.923  0.0497 -0.0744 -0.4589
10482TIP3   OH252860   3.202   3.806   0.362 -0.0813 -0.6764 -0.2207
10482TIP3    H152861   3.119   3.758   0.357 -1.8221  2.1182 -0.5290
10482TIP3    H252862   3.216   3.821   0.455 -0.6839  0.0112 -0.2325
10483TIP3   OH252863   6.362   4.170   5.696  0.0177 -0.2758  0.0099
10483TIP3    H152864   6.383   4.239   5.758 -1.7752 -0.0921  0.4846
10483TIP3    H252865   6.393   4.089   5.738 -0.7211 -0.0940  0.9272
10484TIP3   OH252866   4.038   5.310   1.792  0.5400 -0.3677  0.0590
10484TIP3    H152867   4.133   5.301   1.799  0.9204  1.6815 -1.5519
10484TIP3    H252868   4.014   5.256   1.717  0.4517 -0.6748  0.3042
10485TIP3   OH252869   3.815   6.221  16.064 -0.0267 -0.6480  0.2914
10485TIP3    H152870   3.803   6.131  16.095 -2.4307  0.4364  2.9231
10485TIP3    H252871   3.733   6.244  16.022  0.6705  0.2563 -0.6484
10486TIP3   OH252872   3.227   1.584  14.860 -0.4108  0.2507  0.0973
10486TIP3    H152873   3.178   1.511  14.899  0.9715 -0.9163 -0.2549
10486TIP3    H252874   3.278   1.543  14.790  0.6287  1.5174  0.0839
10487TIP3   OH252875   0.108   5.505  16.511 -0.1321  0.5437 -0.1614
10487TIP3    H152876   0.121   5.468  16.424  1.1731  1.5687 -0.4425
10487TIP3    H252877   0.020   5.542  16.508 -0.3730 -0.0539 -0.8013
10488TIP3   OH252878   6.014   3.007  15.648 -0.8728  0.3753 -0.3835
10488TIP3    H152879   5.929   3.003  15.692 -0.8514  1.0362 -0.2735
10488TIP3    H252880   6.058   2.927  15.675 -1.0614  0.5231  0.3892
10489TIP3   OH252881   0.324   4.183  12.288  1.1994 -0.4304 -0.4655
10489TIP3    H152882   0.309   4.092  12.264 -1.3124 -0.3485  0.5038
10489TIP3    H252883   0.371   4.179  12.371  2.7431 -0.7802 -1.3226
10490TIP3   OH252884   4.706   0.167   3.620  0.6101 -0.0205 -0.1755
10490TIP3    H152885   4.679   0.250   3.582  1.1062 -0.0214 -0.5464
10490TIP3    H252886   4.751   0.191   3.701 -1.1871 -0.0685  0.8738
10491TIP3   OH252887   4.429   1.147   4.498 -0.5698 -0.0904 -0.7523
10491TIP3    H152888   4.461   1.096   4.424 -0.4771 -0.6158 -0.3577
10491TIP3    H252889   4.347   1.105   4.523 -0.2216 -0.3827 -0.0827
10492TIP3   OH252890   2.016   3.220   3.171 -0.2513 -0.0952  0.0146
10492TIP3    H152891   1.975   3.297   3.211  2.7221  1.4256  0.4278
10492TIP3    H252892   2.049   3.170   3.246 -0.1566 -0.5654 -0.3383
10493TIP3   OH252893   4.090   0.612  14.574 -0.0866 -0.3574 -0.1727
10493TIP3    H152894   4.184   0.630  14.586 -0.2858  0.4262  0.3106
10493TIP3    H252895   4.082   0.588  14.482  0.9216 -2.7114  0.2669
10494TIP3   OH252896   6.646   5.755   4.538 -0.6225 -0.0619  0.2747
10494TIP3    H152897   6.615   5.668   4.561  2.6168 -1.1338  1.1960
10494TIP3    H252898   6.727   5.765   4.588 -1.4218  3.9949  1.1309
10495TIP3   OH252899   3.773   0.980  11.190 -0.3601  0.3788  0.1787
10495TIP3    H152900   3.781   1.011  11.099 -2.0907  2.3078  0.5952
10495TIP3    H252901   3.840   0.913  11.198  1.5316  1.8522 -1.8219
10496TIP3   OH252902   5.667   0.187   3.447 -0.0461 -0.1524 -0.5977
10496TIP3    H152903   5.742   0.140   3.409  2.1944 -0.0595  3.1835
10496TIP3    H252904   5.688   0.279   3.434  0.3654 -0.1301  0.1911
10497TIP3   OH252905   6.414   3.670   1.881 -0.9092  1.0339 -0.0059
10497TIP3    H152906   6.421   3.750   1.934 -0.2213  1.8469 -1.2733
10497TIP3    H252907   6.359   3.695   1.807 -0.9825  0.2185 -0.2351
10498TIP3   OH252908   1.649   3.161  14.234 -0.0792 -0.2674  0.4947
10498TIP3    H152909   1.578   3.172  14.171  2.7145  0.1594 -2.9269
10498TIP3    H252910   1.665   3.249  14.267 -0.7807 -0.2845  0.9033
10499TIP3   OH252911   3.009   1.269  15.309  0.4491 -0.6095 -0.2266
10499TIP3    H152912   3.005   1.235  15.219  2.9338  0.4112 -0.7846
10499TIP3    H252913   3.082   1.222  15.349  0.3065  0.0276  0.8146
10500TIP3   OH252914   1.344   1.368   0.274 -0.1168  0.2997 -0.5349
10500TIP3    H152915   1.371   1.406   0.190  0.2048 -0.5738 -0.8411
10500TIP3    H252916   1.334   1.444   0.332 -1.1933  0.9978 -1.5819
10501TIP3   OH252917   4.638   5.170  14.811  0.6365 -0.6709  0.1396
10501TIP3    H152918   4.689   5.240  14.770  1.6761 -2.0413 -1.0018
10501TIP3    H252919   4.562   5.160  14.753  0.2552 -0.2004  0.5518
10502TIP3   OH252920   4.367   2.583  14.907 -0.2470  0.3233  0.2122
10502TIP3    H152921   4.384   2.675  14.888 -0.3412  0.1532 -0.7594
10502TIP3    H252922   4.375   2.576  15.002  1.5324  0.9859  0.1549
10503TIP3   OH252923   0.526   6.487  11.996 -0.4872  0.3564 -0.1757
10503TIP3    H152924   0.505   6.445  11.913 -1.3226  0.9167 -0.2511
10503TIP3    H252925   0.611   6.530  11.980 -0.1215 -0.4286 -0.4009
10504TIP3   OH252926   1.887   5.678  14.365 -0.0113 -0.5659  0.3461
10504TIP3    H152927   1.868   5.760  14.319  1.4183 -0.7084 -0.5561
10504TIP3    H252928   1.936   5.626  14.302  0.4152 -1.5153  1.4295
10505TIP3   OH252929   4.442   5.032   6.132  0.2844 -0.5439 -0.0837
10505TIP3    H152930   4.520   5.078   6.162 -0.6736  1.4574 -0.4601
10505TIP3    H252931   4.377   5.046   6.201  0.7400 -3.8879  1.1865
10506TIP3   OH252932   1.433   5.687   5.173  0.1080 -0.6944  0.3876
10506TIP3    H152933   1.487   5.607   5.176 -2.2609 -2.4387 -0.4335
10506TIP3    H252934   1.413   5.698   5.080 -2.4261 -1.2283  0.8033
10507TIP3   OH252935   5.901   1.613   3.327  0.6465 -0.2007  0.3605
10507TIP3    H152936   5.868   1.548   3.390  0.7305 -0.6689 -0.0746
10507TIP3    H252937   5.858   1.695   3.353  0.2392 -0.5071  0.6747
10508TIP3   OH252938   1.133   3.557   5.873 -0.1721 -0.4188 -0.2884
10508TIP3    H152939   1.137   3.461   5.872 -0.5003 -0.4392  0.0400
10508TIP3    H252940   1.180   3.582   5.953  0.8126 -0.2485 -0.8959
10509TIP3   OH252941   3.736   1.761   5.317  0.2685 -0.3556 -0.0470
10509TIP3    H152942   3.689   1.743   5.399  0.5613 -1.0561 -0.0277
10509TIP3    H252943   3.756   1.675   5.282 -0.6858 -0.0758 -1.3418
10510TIP3   OH252944   0.677   6.062   4.044 -0.2249  0.9785 -0.1135
10510TIP3    H152945   0.590   6.088   4.074 -0.2580 -0.3689  1.0498
10510TIP3    H252946   0.734   6.075   4.120  0.4393  1.0447 -0.6103
10511TIP3   OH252947   0.392   6.464  15.112  0.2341  0.0379 -0.1733
10511TIP3    H152948   0.311   6.418  15.132 -0.0327  0.0872 -1.0664
10511TIP3    H252949   0.428   6.416  15.036 -0.4008  1.6766 -1.5788
10512TIP3   OH252950   3.685   4.526  16.703 -0.2957  0.0159 -0.4066
10512TIP3    H152951   3.766   4.476  16.698 -0.1251  0.3217 -0.7857
10512TIP3    H252952   3.700   4.603  16.647 -0.4953  0.5721  0.2866
10513TIP3   OH252953   4.049   2.119   0.976  0.2849  0.0038  0.0979
10513TIP3    H152954   4.093   2.170   1.044 -1.7504  0.5745  1.0788
10513TIP3    H252955   4.001   2.052   1.024  0.1540 -0.6619 -0.9319
10514TIP3   OH252956   2.807   0.280  14.520  0.3489 -0.2034 -0.2090
10514TIP3    H152957   2.745   0.222  14.565  3.3259 -2.7670  0.9187
10514TIP3    H252958   2.819   0.354  14.580 -1.3213  0.2373 -0.3522
10515TIP3   OH252959   6.389   4.208   4.533  0.1175 -0.7940  0.0134
10515TIP3    H152960   6.401   4.276   4.599 -0.2536 -1.8960  1.2526
10515TIP3    H252961   6.328   4.245   4.470 -1.0911 -0.4213  1.3522
10516TIP3   OH252962   5.616   6.616  14.361  0.0105  0.0904 -0.4434
10516TIP3    H152963   5.594   6.693  14.413  1.8248 -0.8982  1.9381
10516TIP3    H252964   5.542   6.557  14.373  0.7072 -0.4206  1.7498
10517TIP3   OH252965   3.671   4.269  13.993 -0.6864 -0.1232 -0.0594
10517TIP3    H152966   3.582   4.239  14.008 -0.3553 -1.0269  0.1460
10517TIP3    H252967   3.721   4.190  13.972  0.0863  0.3562 -0.1032
10518TIP3   OH252968   5.817   5.471  16.831 -0.2765 -0.0368  0.1915
10518TIP3    H152969   5.792   5.436  16.745  0.1422  1.4524 -0.5829
10518TIP3    H252970   5.739   5.515  16.863 -0.3080 -0.2294  0.3778
10519TIP3   OH252971   5.064   6.578   6.015 -0.0025  0.4753 -0.4373
10519TIP3    H152972   5.146   6.529   6.014 -0.2921 -0.0144 -1.5912
10519TIP3    H252973   5.074   6.639   6.089  0.2213 -1.5142  1.2781
10520TIP3   OH252974   3.157   2.131  14.229 -0.4421 -0.2886  0.5042
10520TIP3    H152975   3.194   2.078  14.299 -0.4504 -0.4045  0.4211
10520TIP3    H252976   3.083   2.176  14.269 -2.5424 -2.8227 -0.1793
10521TIP3   OH252977   0.830   1.014   0.750  0.0881  0.2592 -0.4278
10521TIP3    H152978   0.848   1.101   0.786  0.7440 -0.9752  2.5563
10521TIP3    H252979   0.881   1.010   0.669  1.9022  1.8617  0.5573
10522TIP3   OH252980   4.622   2.027  11.557 -0.0122  0.4886  0.4831
10522TIP3    H152981   4.542   2.077  11.538 -0.0089  0.0653 -0.7306
10522TIP3    H252982   4.680   2.047  11.484  0.5123 -0.2068  0.7079
10523TIP3   OH252983   4.788   0.708   0.748 -0.4724  0.4402 -0.3008
10523TIP3    H152984   4.725   0.661   0.804 -0.3105  1.5734  0.8895
10523TIP3    H252985   4.769   0.801   0.764  0.0962  0.7917 -1.5729
10524TIP3   OH252986   5.722   5.989   1.678  0.1729 -0.1660  0.0852
10524TIP3    H152987   5.654   5.991   1.744  1.1101 -0.8721  1.1194
10524TIP3    H252988   5.675   5.979   1.595 -0.9658 -0.7577  0.7759
10525TIP3   OH252989   5.468   3.063  13.292  0.4848  0.3035 -0.2466
10525TIP3    H152990   5.541   3.020  13.337  0.4717 -0.5571 -1.0112
10525TIP3    H252991   5.505   3.089  13.207 -0.1927 -0.5421 -0.8244
10526TIP3   OH252992   2.825   2.280  14.897  0.0217 -0.3418 -0.7396
10526TIP3    H152993   2.771   2.359  14.889 -1.0123 -1.0996 -1.4845
10526TIP3    H252994   2.810   2.250  14.987 -1.2654 -0.8461 -1.1012
10527TIP3   OH252995   5.420   3.611   3.734  0.3914  0.0188 -0.2013
10527TIP3    H152996   5.381   3.528   3.709 -0.8430  0.5081  0.0600
10527TIP3    H252997   5.489   3.625   3.669  0.4955 -1.1116 -0.3527
10528TIP3   OH252998   2.604   2.080   2.515  0.2419  0.1416 -0.0123
10528TIP3    H152999   2.543   2.009   2.494 -0.6163  0.5374  1.0392
10528TIP3    H253000   2.552   2.160   2.509  0.8349  0.5568  0.1866
10529TIP3   OH253001   5.591   3.251   5.714 -0.4379  0.1419 -0.3517
10529TIP3    H153002   5.539   3.319   5.670 -0.5761  0.7238  0.6636
10529TIP3    H253003   5.675   3.293   5.731 -0.6420  0.1814  0.5937
10530TIP3   OH253004   4.595   1.015  16.846  0.1680  0.4458 -0.1000
10530TIP3    H153005   4.664   1.082  16.846  0.1692  0.4675  1.3806
10530TIP3    H253006   4.571   1.005  16.938 -0.7508 -0.6593 -0.4407
10531TIP3   OH253007   5.201   3.069  14.424  0.0255  0.1410  0.5056
10531TIP3    H153008   5.146   2.996  14.397  0.0063 -0.3844  1.8948
10531TIP3    H253009   5.206   3.062  14.519 -0.6895  2.4598  0.7847
10532TIP3   OH253010   2.722   4.076   1.458 -0.5990  0.0666  0.5363
10532TIP3    H153011   2.801   4.025   1.472 -0.6777  0.0928  1.1308
10532TIP3    H253012   2.750   4.153   1.409 -0.4852 -0.5498 -0.3920
10533TIP3   OH253013   2.130   4.491  15.140  0.3276 -0.4393 -0.3035
10533TIP3    H153014   2.142   4.430  15.067 -1.9103  0.0003 -1.1329
10533TIP3    H253015   2.123   4.435  15.217 -0.0755 -1.1245 -0.8243
10534TIP3   OH253016   6.341   6.168   5.869 -0.7754 -0.4233  0.1066
10534TIP3    H153017   6.257   6.197   5.835 -1.2635 -0.3441  1.3499
10534TIP3    H253018   6.331   6.170   5.964  1.5408  2.3507  0.4109
10535TIP3   OH253019   6.259   5.919   0.516 -0.3147 -0.0502 -0.0964
10535TIP3    H153020   6.178   5.929   0.566 -0.2280 -0.1371  0.0653
10535TIP3    H253021   6.323   5.973   0.563  0.0652 -1.0432  0.5814
10536TIP3   OH253022   0.355   0.632  14.801  0.2140  0.5253  0.1132
10536TIP3    H153023   0.426   0.695  14.794  0.9182 -0.0080  1.7982
10536TIP3    H253024   0.288   0.676  14.853  0.1968  0.3057  0.2799
10537TIP3   OH253025   3.846   2.636   2.087 -0.2062 -0.4482 -0.1176
10537TIP3    H153026   3.835   2.601   2.176  0.4413 -0.7508 -0.1501
10537TIP3    H253027   3.917   2.584   2.049 -0.1890 -0.0380 -0.6657
10538TIP3   OH253028   3.053   5.556  16.336 -0.0125  0.3519  0.0816
10538TIP3    H153029   3.038   5.605  16.417  1.8579  1.7014 -0.3077
10538TIP3    H253030   3.142   5.580  16.310 -0.1272 -0.9889 -1.7419
10539TIP3   OH253031   6.748   1.148   0.377  0.5688 -0.3296 -0.1398
10539TIP3    H153032   6.699   1.219   0.335  0.6960 -0.9395 -1.3818
10539TIP3    H253033   6.718   1.148   0.467  1.5965  2.2264  0.2865
10540TIP3   OH253034   2.572   4.555  16.143  0.5428  0.6071 -1.0186
10540TIP3    H153035   2.627   4.543  16.220 -3.1275 -1.6692  1.5607
10540TIP3    H253036   2.536   4.644  16.152 -0.2207  0.1860  0.1964
10541TIP3   OH253037   0.305   2.335  11.015  0.3944 -0.1409 -0.6406
10541TIP3    H153038   0.342   2.405  11.068  1.8703  0.2676 -2.1142
10541TIP3    H253039   0.225   2.372  10.978  0.1519  0.0811  0.0917
10542TIP3   OH253040   3.079   2.183  12.508  0.4669  0.4453  0.0509
10542TIP3    H153041   2.987   2.170  12.532  0.5122 -0.7077 -0.3580
10542TIP3    H253042   3.076   2.201  12.414  0.5966  1.3455  0.2061
10543TIP3   OH253043   0.985   5.535  12.182 -0.1623  0.8398  0.0410
10543TIP3    H153044   0.936   5.588  12.245 -2.3012  0.4046 -1.1930
10543TIP3    H253045   0.951   5.561  12.096 -0.0732 -1.3229 -0.7078
10544TIP3   OH253046   3.048   0.517   4.582  0.7824 -0.3799 -0.0230
10544TIP3    H153047   3.071   0.476   4.499 -0.2055 -1.4411  0.2116
10544TIP3    H253048   3.115   0.585   4.594  0.2004  0.6901 -2.2976
10545TIP3   OH253049   1.031   2.459  11.737  0.6588  0.2294 -0.4701
10545TIP3    H153050   1.106   2.453  11.678  0.7579 -1.1242 -0.2308
10545TIP3    H253051   0.957   2.425  11.686  0.9041 -1.7341  0.4059
10546TIP3   OH253052   5.740   0.876  14.758 -0.1201  0.5889  0.7500
10546TIP3    H153053   5.801   0.919  14.698  0.0392  0.1947  0.6288
10546TIP3    H253054   5.768   0.905  14.845 -0.3683  1.1840  0.6409
10547TIP3   OH253055   3.758   4.217  13.179  0.2866  0.2221 -0.2514
10547TIP3    H153056   3.755   4.311  13.162 -0.2970  0.4271  0.8411
10547TIP3    H253057   3.847   4.201  13.211  0.2786  0.4797 -0.0953
10548TIP3   OH253058   5.165   6.327  16.706 -0.2540  0.6266 -0.5010
10548TIP3    H153059   5.070   6.327  16.720 -0.2188 -2.2489  0.4250
10548TIP3    H253060   5.186   6.238  16.679  2.3912  0.6159  1.1522
10549TIP3   OH253061   0.601   2.780   5.491 -0.0714  0.2024 -0.2853
10549TIP3    H153062   0.641   2.857   5.450 -0.5006  0.2094 -0.6962
10549TIP3    H253063   0.508   2.786   5.467 -0.5358  0.7333  1.4854
10550TIP3   OH253064   5.720   1.627   0.519  0.0620  0.4859  1.1459
10550TIP3    H153065   5.681   1.598   0.602 -1.9290 -0.2027  0.0444
10550TIP3    H253066   5.646   1.661   0.468  0.6354 -1.8358 -1.4914
10551TIP3   OH253067   1.099   6.147   0.875 -0.1034  0.0143 -0.1263
10551TIP3    H153068   1.098   6.054   0.853 -0.1530  0.0780 -0.3843
10551TIP3    H253069   1.036   6.187   0.815 -0.1609  0.1983  0.0564
10552TIP3   OH253070   1.457   3.499  11.403 -0.7903  0.3348  0.7060
10552TIP3    H153071   1.455   3.531  11.493 -0.8046  1.1752  0.4164
10552TIP3    H253072   1.369   3.515  11.370 -0.5799  0.7333  0.3164
10553TIP3   OH253073   5.375   4.999   2.339  0.8832 -0.0626  0.8706
10553TIP3    H153074   5.292   5.002   2.385  0.8132  0.2771  0.7240
10553TIP3    H253075   5.355   4.955   2.256  0.9116 -0.2487  0.9628
10554TIP3   OH253076   0.311   4.666   1.179 -0.0065  0.4694  0.1674
10554TIP3    H153077   0.399   4.635   1.158  0.2329  0.3355  1.2726
10554TIP3    H253078   0.278   4.603   1.244 -1.6195 -0.4898 -1.4940
10555TIP3   OH253079   2.186   1.764  15.570  0.2941  0.4833 -0.0240
10555TIP3    H153080   2.128   1.688  15.576  0.5214  0.3131  0.0368
10555TIP3    H253081   2.188   1.799  15.659 -0.0851  0.7651 -0.1274
10556TIP3   OH253082   4.066   5.907   1.084  0.3412  0.4224 -0.2279
10556TIP3    H153083   4.123   5.966   1.133  0.1427 -0.3969  1.0592
10556TIP3    H253084   3.985   5.956   1.072 -0.1956  0.1272  1.7212
10557TIP3   OH253085   0.160   3.454  15.046 -0.0475  0.5775 -0.3937
10557TIP3    H153086   0.169   3.360  15.055 -0.0099  0.7628  1.8716
10557TIP3    H253087   0.223   3.492  15.107 -1.7284  2.0121  0.5836
10558TIP3   OH253088   6.790   3.092   2.848 -0.3363 -0.1480 -0.6721
10558TIP3    H153089   6.751   3.006   2.855  0.4146 -0.7573 -3.1384
10558TIP3    H253090   6.872   3.086   2.898 -1.5222  0.0398  1.4257
10559TIP3   OH253091   1.756   2.382   0.116 -0.2354 -0.2881  0.5300
10559TIP3    H153092   1.690   2.346   0.175 -0.4758  0.0026  0.4445
10559TIP3    H253093   1.831   2.402   0.172 -1.6227  3.1819  1.4476
10560TIP3   OH253094   6.218   5.887  17.049 -0.1353 -0.4628 -0.3473
10560TIP3    H153095   6.235   5.823  17.118  1.5313 -0.2873 -0.5335
10560TIP3    H253096   6.232   5.972  17.092  0.1671 -0.3288 -0.6975
10561TIP3   OH253097   2.983   1.258  12.825 -0.0328 -0.0999  0.1247
10561TIP3    H153098   3.044   1.220  12.762 -0.3420 -0.8996  0.3004
10561TIP3    H253099   2.916   1.191  12.838 -0.3033  0.2971  0.8456
10562TIP3   OH253100   1.684   3.464  15.556  0.6889  0.2770  0.1823
10562TIP3    H153101   1.710   3.473  15.465  0.6393  0.1039  0.1498
10562TIP3    H253102   1.741   3.524  15.604  1.8144 -0.7852  0.2258
10563TIP3   OH253103   6.730   2.948   5.733 -0.1211  0.3951  0.1687
10563TIP3    H153104   6.637   2.926   5.739  0.1733 -0.7560  0.5848
10563TIP3    H253105   6.767   2.882   5.675  0.7115 -0.0133  1.1490
10564TIP3   OH253106   4.811   3.241  12.923 -0.0968 -0.2049 -0.1517
10564TIP3    H153107   4.731   3.291  12.906  0.7475  1.6533  0.9232
10564TIP3    H253108   4.818   3.180  12.851 -0.0458  2.7983 -2.9344
10565TIP3   OH253109   3.535   0.693   2.261 -0.6162  0.1823 -0.1716
10565TIP3    H153110   3.593   0.622   2.291  1.6499  1.6666 -0.7697
10565TIP3    H253111   3.539   0.687   2.165 -2.3780 -0.3468 -0.2351
10566TIP3   OH253112   2.935   2.852  11.723  0.2283 -0.1269 -0.3849
10566TIP3    H153113   2.882   2.780  11.689 -0.1833 -0.6629  1.2833
10566TIP3    H253114   2.873   2.923  11.737  0.1145 -0.3964  0.5628
10567TIP3   OH253115   0.568   5.285  13.390 -0.1276  0.6302 -0.0394
10567TIP3    H153116   0.533   5.373  13.406 -0.1316  0.4430  1.0860
10567TIP3    H253117   0.653   5.285  13.433  1.0063  0.8478 -2.1417
10568TIP3   OH253118   5.208   5.005   4.262  0.1315  0.4375 -0.2384
10568TIP3    H153119   5.291   4.973   4.297 -0.6202 -1.0154  0.2930
10568TIP3    H253120   5.163   4.927   4.232 -1.9511  0.9031  1.4306
10569TIP3   OH253121   4.622   1.288   6.240 -0.4149  0.0631 -0.1630
10569TIP3    H153122   4.678   1.228   6.290 -0.0370  0.3502 -0.2405
10569TIP3    H253123   4.664   1.373   6.249 -0.8625  0.2897 -0.1912
10570TIP3   OH253124   0.547   3.453  15.189  0.0716 -0.1773 -0.3230
10570TIP3    H153125   0.507   3.397  15.256 -2.1585 -0.3015 -1.6410
10570TIP3    H253126   0.475   3.507  15.158  1.6600  1.8078 -0.7452
10571TIP3   OH253127   5.449   5.938  11.157 -0.1830  0.4138 -0.1863
10571TIP3    H153128   5.481   5.849  11.144 -1.2585 -0.2871  1.6077
10571TIP3    H253129   5.370   5.943  11.103 -1.4732 -0.5802  1.5121
10572TIP3   OH253130   2.047   2.844   2.145  0.0129  0.9387  0.1024
10572TIP3    H153131   1.976   2.871   2.087 -0.5735 -0.2310  0.2598
10572TIP3    H253132   2.047   2.748   2.140  0.1130  0.8295  1.8561
10573TIP3   OH253133   3.037   6.459   4.924  0.2282 -0.1093  0.3802
10573TIP3    H153134   3.079   6.465   4.838  2.1427  1.1622  1.3484
10573TIP3    H253135   3.106   6.482   4.987 -1.2657 -0.4428  2.2355
10574TIP3   OH253136   2.535   3.034   3.672  0.1082  0.0931 -0.1967
10574TIP3    H153137   2.549   3.055   3.580 -2.8871  2.6628 -0.2622
10574TIP3    H253138   2.590   3.096   3.720 -0.6235  0.8655 -0.3287
10575TIP3   OH253139   4.439   2.432  14.066  0.0157  0.5715 -0.3197
10575TIP3    H153140   4.371   2.486  14.026 -2.5406 -3.4675 -1.9247
10575TIP3    H253141   4.505   2.421  13.997  1.0294  2.1668  0.3157
10576TIP3   OH253142   0.403   4.103  13.020 -0.2102  0.0830 -0.5184
10576TIP3    H153143   0.375   4.024  13.067  1.0884  0.1829  0.4721
10576TIP3    H253144   0.448   4.070  12.943  0.5604 -0.1669  0.0281
10577TIP3   OH253145   3.083   2.284  14.488 -0.1181  1.1889  0.6708
10577TIP3    H153146   2.996   2.322  14.472  0.2012  1.2840 -0.9362
10577TIP3    H253147   3.065   2.192  14.509 -0.8127  1.8798  3.5260
10578TIP3   OH253148   3.211   6.749   3.765  0.3734  0.4458  0.3079
10578TIP3    H153149   3.281   6.728   3.826  1.0252 -4.1975 -1.5590
10578TIP3    H253150   3.247   6.817   3.708  1.9446  0.6825  1.5210
10579TIP3   OH253151   3.987   0.621   0.218 -0.0224 -0.4019  0.5610
10579TIP3    H153152   3.983   0.527   0.198  1.1836 -0.2443 -0.5230
10579TIP3    H253153   4.074   0.648   0.190  0.4452  0.6298  2.8240
10580TIP3   OH253154   5.865   2.097  14.535 -0.2594  0.0657  0.2991
10580TIP3    H153155   5.930   2.049  14.484 -3.0646 -1.6401 -2.0540
10580TIP3    H253156   5.872   2.060  14.623  3.3390  1.5999  0.8086
10581TIP3   OH253157   1.656   0.484  15.154 -0.3577  0.3800 -0.4666
10581TIP3    H153158   1.661   0.389  15.154 -1.2304  0.3232  0.2087
10581TIP3    H253159   1.565   0.503  15.176 -0.4590  1.3609 -1.5868
10582TIP3   OH253160   2.628   2.828  13.741  0.7700 -0.3664  0.3079
10582TIP3    H153161   2.667   2.799  13.824  0.9717 -1.0988 -0.0355
10582TIP3    H253162   2.685   2.793  13.673 -0.3896 -1.3724 -0.2015
10583TIP3   OH253163   4.276   0.372  16.546 -0.1578  0.2947 -0.0906
10583TIP3    H153164   4.292   0.413  16.631  0.8511 -1.3583  0.5645
10583TIP3    H253165   4.191   0.407  16.518 -1.3408 -0.3656  2.3891
10584TIP3   OH253166   3.927   2.703   2.954  0.2278 -0.2363  0.3918
10584TIP3    H153167   3.865   2.772   2.931  0.3641  1.6378  4.6740
10584TIP3    H253168   3.884   2.622   2.927 -1.1740  1.2718 -2.3539
10585TIP3   OH253169   6.802   4.286  10.531  0.0779 -0.2469  0.3210
10585TIP3    H153170   6.817   4.250  10.444 -0.3440  0.5413 -0.0933
10585TIP3    H253171   6.831   4.218  10.591 -0.4376 -1.1524 -0.4327
10586TIP3   OH253172   2.089   0.146   1.252  0.3992  0.0356  0.2616
10586TIP3    H153173   2.075   0.138   1.157 -0.8743 -2.0523  0.5613
10586TIP3    H253174   2.158   0.083   1.271 -0.5387 -0.8376  0.9137
10587TIP3   OH253175   4.922   0.820  14.128  0.3535 -0.0469 -0.5629
10587TIP3    H153176   4.987   0.751  14.114 -1.6120 -2.1034 -0.2261
10587TIP3    H253177   4.904   0.854  14.040  0.5333 -0.7920 -0.8978
10588TIP3   OH253178   3.229   4.372   2.152 -0.0232 -0.6898 -0.1164
10588TIP3    H153179   3.201   4.447   2.204  1.8602 -0.3600  0.4785
10588TIP3    H253180   3.287   4.323   2.210 -1.4659 -2.8445 -0.3577
10589TIP3   OH253181   1.665   4.855  12.996  0.3159  0.0284  0.0345
10589TIP3    H153182   1.603   4.784  13.008 -0.6305  0.9566  0.7196
10589TIP3    H253183   1.733   4.817  12.939  0.2806 -1.6689  1.0335
10590TIP3   OH253184   1.626   0.819   3.427 -0.6848 -0.3901  0.3384
10590TIP3    H153185   1.660   0.746   3.375 -0.3274 -0.8551  1.1986
10590TIP3    H253186   1.534   0.799   3.441 -0.4461 -0.9953  1.0863
10591TIP3   OH253187   2.498   0.920  11.256  0.6905  0.2764 -0.1410
10591TIP3    H153188   2.545   0.964  11.185 -0.1919 -1.3141 -1.7876
10591TIP3    H253189   2.545   0.838  11.268  1.5644  1.0301  2.0253
10592TIP3   OH253190   5.508   6.083  15.965  0.4826 -0.0830  0.2056
10592TIP3    H153191   5.422   6.124  15.972  0.8885  0.8172  0.1068
10592TIP3    H253192   5.555   6.135  15.900  1.8149  0.7822  1.7507
10593TIP3   OH253193   4.618   5.968   2.013  0.4771 -0.0725  0.3673
10593TIP3    H153194   4.567   5.947   1.935 -0.5629 -0.3676  1.1101
10593TIP3    H253195   4.584   6.053   2.041  0.4056 -0.2521  0.8414
10594TIP3   OH253196   3.659   1.323  12.470 -0.0076 -0.2112  0.1594
10594TIP3    H153197   3.630   1.241  12.429 -1.2083 -0.0651  0.7003
10594TIP3    H253198   3.713   1.364  12.403 -1.1077 -0.4635 -0.9163
10595TIP3   OH253199   3.172   5.149   0.612 -0.5376  0.5538  0.5612
10595TIP3    H153200   3.131   5.236   0.612  1.4728  1.6871 -2.9571
10595TIP3    H253201   3.266   5.167   0.612  0.0025 -1.7911  2.5557
10596TIP3   OH253202   6.090   6.290  13.419  0.2481  0.1000  0.1928
10596TIP3    H153203   6.169   6.284  13.473 -0.0543 -0.4738  0.5871
10596TIP3    H253204   6.113   6.246  13.337  0.6888  0.9159 -0.1297
10597TIP3   OH253205   0.216   2.132   5.898  0.3398  0.0550  0.6732
10597TIP3    H153206   0.285   2.073   5.925 -0.6510 -0.9301  1.1295
10597TIP3    H253207   0.252   2.220   5.912  1.8674 -0.4174 -0.1315
10598TIP3   OH253208   4.388   4.866  16.846 -0.0571  0.3405 -0.0999
10598TIP3    H153209   4.458   4.839  16.786 -1.4783 -0.6431 -1.3890
10598TIP3    H253210   4.429   4.933  16.901  1.6601  0.4064 -1.3455
10599TIP3   OH253211   0.385   6.636  17.011 -0.0004 -0.4348  0.4154
10599TIP3    H153212   0.392   6.637  16.916 -0.6816 -0.2399  0.3677
10599TIP3    H253213   0.368   6.544  17.032 -2.3708 -0.1202  0.1434
10600TIP3   OH253214   1.252   3.562  10.992 -0.1307 -0.1099 -0.2598
10600TIP3    H153215   1.295   3.479  10.970  0.4803  0.3294 -0.7538
10600TIP3    H253216   1.174   3.564  10.936  0.0591 -0.1809 -0.5316
10601TIP3   OH253217   3.849   2.993  11.829  0.0185  0.4924  0.3658
10601TIP3    H153218   3.811   3.049  11.896  0.1828 -0.3574  1.1993
10601TIP3    H253219   3.891   3.053  11.768 -1.5277  1.3805  0.1292
10602TIP3   OH253220   1.009   3.650  10.868 -0.6228  0.3632 -0.3667
10602TIP3    H153221   0.984   3.567  10.827 -2.1777 -0.2542  1.6398
10602TIP3    H253222   0.933   3.707  10.854 -2.1312 -0.5101  3.1155
10603TIP3   OH253223   0.224   1.118  16.294  0.3849  0.1048 -0.1181
10603TIP3    H153224   0.254   1.182  16.358  1.5371  0.6495 -1.1706
10603TIP3    H253225   0.184   1.170  16.224 -1.9947 -0.5314  0.6471
10604TIP3   OH253226   3.596   5.729  11.872 -0.3928 -0.2275 -0.2208
10604TIP3    H153227   3.539   5.669  11.919 -0.5810 -2.0053 -2.5958
10604TIP3    H253228   3.673   5.677  11.849 -0.0669  0.7390 -1.4337
10605TIP3   OH253229   1.049   5.593  16.111  0.2347 -0.4143 -0.5715
10605TIP3    H153230   1.015   5.682  16.124 -1.9099 -1.1255 -0.9420
10605TIP3    H253231   1.119   5.604  16.046  1.8448  1.3040  1.2876
10606TIP3   OH253232   4.588   3.140   2.132 -0.0883 -0.4188 -0.3123
10606TIP3    H153233   4.650   3.193   2.081  0.6275  0.2466  1.1764
10606TIP3    H253234   4.528   3.104   2.067  0.7564  0.4205 -1.6091
10607TIP3   OH253235   6.561   0.794   0.702  0.5175 -0.2218  0.0391
10607TIP3    H153236   6.511   0.787   0.784 -0.7013  0.4249 -0.6151
10607TIP3    H253237   6.574   0.888   0.690 -2.0629 -0.0156 -2.0282
10608TIP3   OH253238   1.220   1.765   0.903  0.3033  0.0552 -0.3738
10608TIP3    H153239   1.228   1.779   0.997 -0.6131  0.7989 -0.3850
10608TIP3    H253240   1.128   1.785   0.884  0.5192  0.0840 -1.4520
10609TIP3   OH253241   2.786   0.369  10.268 -0.0712 -0.0030 -0.3540
10609TIP3    H153242   2.715   0.304  10.271  1.5502 -1.9394 -1.4886
10609TIP3    H253243   2.845   0.345  10.339 -0.0137  0.9833 -0.0463
10610TIP3   OH253244   6.284   5.702  11.607 -0.2021  0.6675 -0.1652
10610TIP3    H153245   6.206   5.683  11.659 -0.2939 -0.4306 -0.6745
10610TIP3    H253246   6.306   5.619  11.565  1.0609  1.0399 -0.2863
10611TIP3   OH253247   0.811   6.732   0.739 -0.7459 -0.1025 -0.1851
10611TIP3    H153248   0.822   6.692   0.826  1.0488  0.8058  0.0552
10611TIP3    H253249   0.716   6.729   0.723 -1.2484  0.4910  2.2003
10612TIP3   OH253250   5.238   6.298  12.377 -0.1283  0.4973  0.0575
10612TIP3    H153251   5.250   6.246  12.297 -2.4141  0.2397 -0.1958
10612TIP3    H253252   5.307   6.268  12.436  0.4380 -0.6788 -1.1453
10613TIP3   OH253253   1.518   3.458  12.073 -0.6297  0.5999 -0.7992
10613TIP3    H153254   1.527   3.440  11.979  1.1282  3.4154 -1.3021
10613TIP3    H253255   1.480   3.545  12.078  1.4156  1.4949  0.9841
10614TIP3   OH253256   0.512   5.984   5.162 -0.1590  0.6070  0.2505
10614TIP3    H153257   0.445   5.923   5.131  0.7129  0.3831 -1.3165
10614TIP3    H253258   0.528   5.958   5.253  1.3943 -2.6833 -0.8202
10615TIP3   OH253259   5.235   6.443   3.916 -0.1330 -0.0199 -0.1344
10615TIP3    H153260   5.207   6.527   3.880  1.0515  0.2513 -0.4708
10615TIP3    H253261   5.327   6.435   3.889 -0.5458 -1.9961 -1.1885
10616TIP3   OH253262   6.574   3.190   1.805  0.0946  0.1519  0.3295
10616TIP3    H153263   6.654   3.175   1.754 -0.7867  1.8374 -1.7094
10616TIP3    H253264   6.508   3.137   1.759 -0.4173  0.5256  0.6339
10617TIP3   OH253265   1.125   3.924  12.986  0.7624 -0.0305 -0.1659
10617TIP3    H153266   1.164   3.854  13.038 -0.2314  1.3359  2.5570
10617TIP3    H253267   1.084   3.878  12.912  1.5911 -2.1144  0.5881
10618TIP3   OH253268   4.817   2.927   1.316  0.0553 -0.2508  0.5061
10618TIP3    H153269   4.850   2.998   1.370 -1.4813  0.1392  0.9850
10618TIP3    H253270   4.732   2.905   1.354 -1.3103  0.3262 -1.9756
10619TIP3   OH253271   3.755   5.304  12.043 -0.5299  0.2335  0.2243
10619TIP3    H153272   3.682   5.248  12.015 -0.3591  1.0885 -2.2008
10619TIP3    H253273   3.833   5.254  12.020 -0.3134 -0.2604  1.9155
10620TIP3   OH253274   0.772   0.677   4.789  0.1458  0.0932  0.0074
10620TIP3    H153275   0.774   0.709   4.699  0.4333  2.4629  0.8066
10620TIP3    H253276   0.849   0.716   4.830  0.5268 -1.6718  1.0842
10621TIP3   OH253277   0.402   0.155  15.871 -0.7671 -0.0023 -0.6320
10621TIP3    H153278   0.387   0.231  15.928  0.5027  0.0862 -0.4039
10621TIP3    H253279   0.493   0.132  15.885 -0.8846 -0.9982 -1.4194
10622TIP3   OH253280   0.739   1.402   4.912 -0.0303 -0.3526 -0.2981
10622TIP3    H153281   0.666   1.403   4.974 -0.2527 -0.7716 -0.5473
10622TIP3    H253282   0.804   1.345   4.953  0.8157  1.2212  0.6466
10623TIP3   OH253283   1.283   6.326   0.066  0.2310  0.0629 -0.0421
10623TIP3    H153284   1.196   6.319   0.107 -0.3208 -0.7092 -1.2736
10623TIP3    H253285   1.280   6.408   0.018  0.3821  0.3027  0.3575
10624TIP3   OH253286   1.118   5.559   0.631  0.3216 -0.8962 -0.0040
10624TIP3    H153287   1.055   5.495   0.665  0.0862 -0.9552 -0.5383
10624TIP3    H253288   1.067   5.640   0.622 -0.1531 -1.3764 -2.0738
10625TIP3   OH253289   0.859   4.481  13.423 -0.6163  0.3094  0.6121
10625TIP3    H153290   0.938   4.451  13.469  0.0264  0.7213 -0.1900
10625TIP3    H253291   0.825   4.403  13.380 -0.1708  0.2983  0.2782
10626TIP3   OH253292   6.101   0.943   3.828 -0.2965 -0.3426 -0.2500
10626TIP3    H153293   6.103   0.928   3.922 -0.0684 -1.2239 -0.3862
10626TIP3    H253294   6.015   0.983   3.812  0.7168  2.4131  0.6704
10627TIP3   OH253295   2.735   2.788   1.206  0.2223 -0.0113 -0.2550
10627TIP3    H153296   2.817   2.827   1.236 -0.7671  0.5444  1.9900
10627TIP3    H253297   2.698   2.748   1.285 -1.2568 -0.9671 -1.3999
10628TIP3   OH253298   2.736   2.158   3.406 -0.1803 -0.4828  0.1549
10628TIP3    H153299   2.823   2.193   3.387 -0.3643 -0.1625 -0.1086
10628TIP3    H253300   2.677   2.231   3.388 -0.4634 -0.5540  0.7745
10629TIP3   OH253301   1.268   3.978  11.686  0.1937  0.2953  0.1229
10629TIP3    H153302   1.190   4.031  11.673  0.8558  1.3494  0.3047
10629TIP3    H253303   1.317   3.987  11.604 -0.7249 -1.9205 -0.7704
10630TIP3   OH253304   3.805   5.077  11.787  0.2879 -0.1047  0.3011
10630TIP3    H153305   3.852   5.071  11.704 -1.4286 -1.6391 -0.6227
10630TIP3    H253306   3.844   5.008  11.841  0.6542  0.1717  0.3985
10631TIP3   OH253307   0.755   2.931  14.608 -0.2662 -0.0638 -0.4049
10631TIP3    H153308   0.770   2.961  14.519  1.7147  0.2432 -0.0067
10631TIP3    H253309   0.798   2.996  14.663  1.0655 -1.7271  0.6324
10632TIP3   OH253310   5.824   5.272  12.299 -0.4564  0.0257 -0.3352
10632TIP3    H153311   5.776   5.324  12.364 -0.5445  0.4855 -0.7639
10632TIP3    H253312   5.916   5.292  12.316 -0.4203 -0.7075  0.3634
10633TIP3   OH253313   6.650   3.241   1.082  0.1889  0.6236  0.0353
10633TIP3    H153314   6.667   3.148   1.067  0.7485  0.6451  0.4971
10633TIP3    H253315   6.651   3.280   0.995 -3.3060 -0.2827 -0.5841
10634TIP3   OH253316   5.480   2.938   4.442  0.4591  0.0245  0.5363
10634TIP3    H153317   5.446   3.027   4.439  1.2518  0.3138 -0.2670
10634TIP3    H253318   5.525   2.932   4.526  1.1119  0.6573  0.2377
10635TIP3   OH253319   4.065   6.553   5.836  0.6613 -0.1482  0.2431
10635TIP3    H153320   4.134   6.596   5.888  0.1510 -0.1062  0.9037
10635TIP3    H253321   3.986   6.602   5.857  0.3130 -0.5902 -0.0255
10636TIP3   OH253322   1.398   5.838   4.916 -0.2675  0.1226  0.2740
10636TIP3    H153323   1.389   5.757   4.867  1.2543  1.0443 -1.6674
10636TIP3    H253324   1.378   5.907   4.853 -0.3175  1.3280  1.5431
10637TIP3   OH253325   4.747   0.538   5.717  0.0323 -0.2878  0.4371
10637TIP3    H153326   4.693   0.599   5.667  1.4878  0.6618 -0.0333
10637TIP3    H253327   4.762   0.582   5.801 -0.8666 -1.0708  1.0360
10638TIP3   OH253328   4.605   4.747  12.993 -0.0935  0.2916  0.0882
10638TIP3    H153329   4.594   4.818  13.057 -1.7883  1.8416 -1.7868
10638TIP3    H253330   4.523   4.698  12.997  0.6932 -1.0452  0.6779
10639TIP3   OH253331   6.453   1.621   5.846  0.4762  0.6815  0.2060
10639TIP3    H153332   6.480   1.695   5.902 -0.3700  3.3856 -2.6691
10639TIP3    H253333   6.516   1.622   5.774 -0.2924 -0.6710 -0.5120
10640TIP3   OH253334   1.875   2.410   1.211  0.2444 -0.7092 -0.0669
10640TIP3    H153335   1.948   2.448   1.163 -1.3047  0.0947 -1.9470
10640TIP3    H253336   1.884   2.315   1.198 -0.1387 -0.5198 -2.0797
10641TIP3   OH253337   0.943   1.684   4.130  0.4243 -0.7279  0.3335
10641TIP3    H153338   0.931   1.593   4.103 -1.4723 -0.8046  1.2043
10641TIP3    H253339   0.863   1.729   4.100  2.2793  1.2271 -2.0971
10642TIP3   OH253340   5.946   3.713  15.474 -0.4723  0.1243 -0.3981
10642TIP3    H153341   5.968   3.720  15.567 -1.4754  0.0351 -0.1446
10642TIP3    H253342   5.857   3.748  15.467 -0.1391  0.8094 -1.4520
10643TIP3   OH253343   0.252   2.086  11.917 -0.2817 -0.2681  0.2220
10643TIP3    H153344   0.252   2.130  12.002  0.0821 -0.9423  0.5841
10643TIP3    H253345   0.203   2.005  11.932  0.5571 -0.8294  0.0388
10644TIP3   OH253346   6.304   1.719  13.358  0.6018  0.1973  0.1330
10644TIP3    H153347   6.290   1.702  13.452  0.4680 -0.6623 -0.0293
10644TIP3    H253348   6.215   1.720  13.321  0.6954 -0.4587 -0.1324
10645TIP3   OH253349   0.385   0.022   2.369  0.5616 -0.7244  0.4573
10645TIP3    H153350   0.355  -0.065   2.397  0.0457 -0.4388  0.8094
10645TIP3    H253351   0.327   0.045   2.296  1.9290 -1.4850 -0.9143
10646TIP3   OH253352   3.852   2.539  11.914  0.6272  0.4313 -0.0529
10646TIP3    H153353   3.776   2.485  11.934 -0.0264  0.1875 -2.7110
10646TIP3    H253354   3.819   2.629  11.916  0.5787  0.4100  0.0590
10647TIP3   OH253355   4.062   2.448   5.466 -0.3271  0.6358  0.1658
10647TIP3    H153356   4.098   2.388   5.401 -0.4367  2.1491 -1.3623
10647TIP3    H253357   4.137   2.499   5.497  0.1300 -1.4636  2.9253
10648TIP3   OH253358   4.946   3.338   3.675  0.4503  0.1588 -0.0452
10648TIP3    H153359   4.852   3.355   3.675  0.5791  0.9247 -0.3646
10648TIP3    H253360   4.955   3.254   3.630 -0.0865  0.0260  0.0882
10649TIP3   OH253361   4.474   5.035   3.154 -0.2946  0.1693  0.5969
10649TIP3    H153362   4.446   5.098   3.088  0.7220 -1.6048 -1.6520
10649TIP3    H253363   4.412   4.962   3.147  1.0059 -0.9284  0.1299
10650TIP3   OH253364   2.486   6.318   0.760 -0.3944  0.4349  0.3505
10650TIP3    H153365   2.497   6.327   0.855 -0.0354 -1.7373  0.5494
10650TIP3    H253366   2.392   6.302   0.749 -0.2777 -0.3306  0.4417
10651TIP3   OH253367   6.586   3.914  13.130 -0.0827 -0.6446  0.0782
10651TIP3    H153368   6.574   4.003  13.098  0.0267 -0.6755 -0.0514
10651TIP3    H253369   6.679   3.896  13.117  0.0005 -0.5933  0.5906
10652TIP3   OH253370   0.043   1.038   5.390 -0.3445 -0.1038  0.3845
10652TIP3    H153371   0.001   1.114   5.429  0.6157  0.3465  0.5736
10652TIP3    H253372   0.110   1.012   5.453 -0.7562 -1.2006  0.3861
10653TIP3   OH253373   0.557   6.575   1.258  0.5044 -0.0829 -0.5024
10653TIP3    H153374   0.626   6.584   1.193  1.4480 -0.4954  0.4040
10653TIP3    H253375   0.532   6.483   1.256  1.0957 -0.2731  0.2401
10654TIP3   OH253376   0.498   4.678   3.315  0.2323 -0.1452  0.1275
10654TIP3    H153377   0.499   4.582   3.306  0.1569 -0.1268 -0.0889
10654TIP3    H253378   0.470   4.693   3.405 -0.8914 -0.3120 -0.1776
10655TIP3   OH253379   2.767   0.166  16.881 -0.0979 -0.0099 -0.5817
10655TIP3    H153380   2.756   0.089  16.937 -1.2466 -0.0454 -0.8365
10655TIP3    H253381   2.792   0.131  16.796 -0.5927 -0.1009 -0.6900
10656TIP3   OH253382   3.074   6.497   1.814 -0.1964 -0.2134  0.0131
10656TIP3    H153383   3.077   6.436   1.741  1.5182  0.2788 -0.3734
10656TIP3    H253384   2.982   6.523   1.820 -0.5771 -1.1859 -1.1769
10657TIP3   OH253385   2.453   3.938  16.096 -0.4453 -0.2705  0.1651
10657TIP3    H153386   2.537   3.912  16.133  0.7714  1.1912 -1.3848
10657TIP3    H253387   2.433   3.872  16.030 -0.7234 -0.8471  0.8283
10658TIP3   OH253388   5.182   0.658  13.150  0.0785 -0.1693  0.4205
10658TIP3    H153389   5.270   0.687  13.174  0.2163  0.2050 -0.4991
10658TIP3    H253390   5.159   0.712  13.075 -1.0816 -0.0248  0.8663
10659TIP3   OH253391   0.229   2.672  14.813  0.5524 -0.3139  0.1821
10659TIP3    H153392   0.314   2.631  14.802 -0.2849 -1.6765 -1.7840
10659TIP3    H253393   0.222   2.688  14.908  2.5266 -1.1121  0.5120
10660TIP3   OH253394   5.699   3.756  17.045  0.1925 -0.0416 -0.3252
10660TIP3    H153395   5.726   3.685  17.104  1.1515 -0.3532 -1.1205
10660TIP3    H253396   5.763   3.825  17.060 -0.6872  0.6423  0.3775
10661TIP3   OH253397   0.161   0.250   6.100 -0.1588  0.1006 -0.6582
10661TIP3    H153398   0.221   0.223   6.031  1.0469  0.0014  0.3899
10661TIP3    H253399   0.081   0.201   6.083  0.6070 -1.0161 -1.1605
10662TIP3   OH253400   6.099   1.499  11.690  0.0055  0.5853 -0.7945
10662TIP3    H153401   6.059   1.580  11.722 -0.6505 -0.1058  0.1954
10662TIP3    H253402   6.191   1.521  11.677  0.5796  0.6623  2.5997
10663TIP3   OH253403   5.553   4.884  15.343 -0.2741  0.7721  0.3466
10663TIP3    H153404   5.510   4.801  15.364 -1.2772  1.5902  1.7184
10663TIP3    H253405   5.528   4.902  15.253 -0.3583 -0.2250  0.1616
10664TIP3   OH253406   0.663   3.429   2.961 -0.2066 -0.6713  0.1440
10664TIP3    H153407   0.748   3.452   2.923 -0.1333 -1.1519  0.0089
10664TIP3    H253408   0.602   3.438   2.888 -0.3641  0.2315  0.3843
10665TIP3   OH253409   6.616   4.324   4.638  0.1981  0.7683 -0.1334
10665TIP3    H153410   6.601   4.338   4.544  1.7298  0.7355 -0.4090
10665TIP3    H253411   6.694   4.268   4.642 -0.7753 -0.5852  1.1390
10666TIP3   OH253412   4.176   1.063   2.616 -0.2942  0.1795 -0.3414
10666TIP3    H153413   4.193   0.983   2.665  0.1389  0.0462 -0.6968
10666TIP3    H253414   4.207   1.044   2.527  1.2141  1.2209 -0.0824
10667TIP3   OH253415   5.961   6.577  16.756  0.4950  0.0838  0.4391
10667TIP3    H153416   6.050   6.610  16.745  0.7868  0.2903  2.7983
10667TIP3    H253417   5.973   6.492  16.800 -0.4283 -0.8693 -1.0885
10668TIP3   OH253418   5.851   4.125   0.339  0.2539 -0.3520  0.9245
10668TIP3    H153419   5.798   4.152   0.263  1.2113 -2.5535 -0.6396
10668TIP3    H253420   5.878   4.207   0.380 -0.6717  0.9176 -0.8576
10669TIP3   OH253421   1.983   3.707   1.119 -1.0707 -0.1913 -0.3622
10669TIP3    H153422   1.932   3.787   1.127 -0.1550  0.6284 -2.1462
10669TIP3    H253423   1.991   3.675   1.209 -2.1206  1.2824  0.3030
10670TIP3   OH253424   1.344   2.074  16.636  0.7989 -0.5232 -0.4987
10670TIP3    H153425   1.399   2.077  16.715  0.8653 -1.6313 -0.4917
10670TIP3    H253426   1.331   1.981  16.620 -2.4773 -0.3491  0.4568
10671TIP3   OH253427   5.865   1.221  14.778  0.1623  0.3088  0.4320
10671TIP3    H153428   5.866   1.261  14.866  0.5068  0.5875  0.3090
10671TIP3    H253429   5.921   1.279  14.726 -0.5413  0.4910 -0.1289
10672TIP3   OH253430   0.092   6.162   3.897  0.1171 -0.2345 -0.0979
10672TIP3    H153431   0.148   6.088   3.872  0.6530  0.1455 -0.0573
10672TIP3    H253432   0.148   6.215   3.955 -0.2307  0.2398 -0.1932
10673TIP3   OH253433   0.526   4.885   5.884  0.7545 -0.4227  0.3391
10673TIP3    H153434   0.515   4.916   5.973  0.5198 -1.7944  0.8047
10673TIP3    H253435   0.472   4.806   5.879 -1.1883  0.9037 -1.7257
10674TIP3   OH253436   1.702   6.616   6.033  0.1053  0.4114  0.4073
10674TIP3    H153437   1.721   6.563   6.110  3.2437  0.6705 -0.0318
10674TIP3    H253438   1.721   6.706   6.061  2.7140  0.3816 -0.9103
10675TIP3   OH253439   4.072   2.779  13.554 -0.0183  0.4405 -0.1180
10675TIP3    H153440   4.123   2.707  13.593  0.5962  0.2078 -1.2953
10675TIP3    H253441   4.028   2.739  13.479 -1.3377  0.8305  0.4287
10676TIP3   OH253442   6.380   2.147   2.661 -0.4527  0.0154  0.0364
10676TIP3    H153443   6.371   2.199   2.741 -0.7851 -1.1714  0.7861
10676TIP3    H253444   6.337   2.064   2.680  0.1837 -0.6072 -1.0913
10677TIP3   OH253445   4.594   2.969  14.460  0.2655  0.7295  0.6577
10677TIP3    H153446   4.633   2.935  14.541  2.3532  2.5432  0.5299
10677TIP3    H253447   4.670   2.985  14.404 -1.1889 -2.7588 -2.7457
10678TIP3   OH253448   4.178   4.406  15.117  0.4413  0.0747  0.4506
10678TIP3    H153449   4.141   4.471  15.057  1.1326 -0.0994 -0.1810
10678TIP3    H253450   4.171   4.323  15.069  0.3436 -0.1836  0.9068
10679TIP3   OH253451   5.537   1.566   2.116  0.1181 -0.5273  0.5675
10679TIP3    H153452   5.529   1.596   2.026  0.5245 -0.0855  0.6737
10679TIP3    H253453   5.627   1.587   2.141 -0.5787  1.3057  1.7614
10680TIP3   OH253454   3.878   2.429  12.575  0.1392 -0.0829 -0.1490
10680TIP3    H153455   3.850   2.353  12.627  0.7568 -0.1938  0.0336
10680TIP3    H253456   3.854   2.407  12.485  1.4447 -1.0805 -0.2927
10681TIP3   OH253457   6.496   4.347  12.395 -0.1111  0.2770 -0.2408
10681TIP3    H153458   6.541   4.265  12.377  0.4932 -0.5877  4.1187
10681TIP3    H253459   6.563   4.414  12.382  1.2118 -0.5691  1.8157
10682TIP3   OH253460   1.978   2.657   5.611  0.4579  0.3986  0.1441
10682TIP3    H153461   1.906   2.685   5.555 -0.7314 -0.9188  0.9501
10682TIP3    H253462   1.987   2.728   5.675 -0.0986  0.5989  0.0073
10683TIP3   OH253463   4.472   4.724   2.246  0.0288 -0.0536  0.1196
10683TIP3    H153464   4.428   4.726   2.160 -0.8882 -0.3586  0.5716
10683TIP3    H253465   4.564   4.740   2.226  0.1881 -2.1651 -1.1498
10684TIP3   OH253466   0.791   4.077  13.276  0.0107  0.0270  0.2705
10684TIP3    H153467   0.798   4.046  13.366  1.7003  1.0742  0.5583
10684TIP3    H253468   0.776   3.999  13.224  3.3661 -1.3103  1.0280
10685TIP3   OH253469   3.213   2.861   1.347  0.2999  0.5251  0.2473
10685TIP3    H153470   3.223   2.955   1.360  1.2821  0.3157  1.0891
10685TIP3    H253471   3.180   2.828   1.430 -0.8257  0.2236 -0.3018
10686TIP3   OH253472   1.114   0.306   2.350  0.2072 -0.0583  0.0459
10686TIP3    H153473   1.071   0.390   2.332 -0.0125  0.1418  1.3744
10686TIP3    H253474   1.049   0.256   2.399  1.1711 -0.0590  1.3835
10687TIP3   OH253475   6.198   5.443  12.904 -0.1268  0.2373  0.0663
10687TIP3    H153476   6.235   5.388  12.836  0.0356  0.3235  0.0828
10687TIP3    H253477   6.192   5.386  12.981  0.6538  0.4094  0.2716
10688TIP3   OH253478   1.143   1.380  14.995  0.4406  0.4511  0.4357
10688TIP3    H153479   1.152   1.414  15.085 -2.5494  1.3661  0.5127
10688TIP3    H253480   1.130   1.458  14.942  1.8338 -0.1181 -0.8145
10689TIP3   OH253481   2.286   2.411  15.188 -0.1925  0.1873  0.3223
10689TIP3    H153482   2.354   2.361  15.144  0.3923  0.9533  0.3222
10689TIP3    H253483   2.205   2.366  15.168  0.1725 -0.0066 -0.7543
10690TIP3   OH253484   1.436   1.478  14.966 -0.1869  0.2337 -0.3707
10690TIP3    H153485   1.417   1.571  14.959  2.1746  0.7182 -1.1775
10690TIP3    H253486   1.520   1.466  14.922  0.5981 -1.9268  1.4484
10691TIP3   OH253487   5.141   2.691  16.809  0.6752  0.2434 -0.3518
10691TIP3    H153488   5.099   2.634  16.874  0.4688  1.3432  0.5213
10691TIP3    H253489   5.129   2.646  16.726  1.6772 -1.6195  0.4686
10692TIP3   OH253490   4.938   3.719  14.601 -0.4467 -0.0433  0.1013
10692TIP3    H153491   4.950   3.629  14.574  1.2358  0.2365 -0.1949
10692TIP3    H253492   4.911   3.713  14.693 -2.4866 -0.8709 -0.5000
10693TIP3   OH253493   1.120   0.014   5.456  0.2656  0.3196  0.9787
10693TIP3    H153494   1.069   0.008   5.537 -1.5437  0.4664 -0.0886
10693TIP3    H253495   1.054   0.027   5.387  1.4693 -2.2484 -0.8483
10694TIP3   OH253496   6.313   6.747   1.217 -0.0855  0.3687 -0.0736
10694TIP3    H153497   6.355   6.726   1.134  0.2653 -1.1415  0.4613
10694TIP3    H253498   6.237   6.800   1.192  1.2423  1.9031 -1.1657
10695TIP3   OH253499   3.388   3.333   4.145  0.1848  0.0359 -0.2257
10695TIP3    H153500   3.300   3.308   4.176  0.1331  0.4674 -0.0187
10695TIP3    H253501   3.417   3.399   4.208  0.9930 -0.6863  0.1720
10696TIP3   OH253502   6.755   4.936  11.965 -0.1942 -0.1833 -0.3390
10696TIP3    H153503   6.662   4.932  11.944 -0.0220  1.7649 -1.7559
10696TIP3    H253504   6.759   4.985  12.047 -0.4400 -0.5079 -0.1336
10697TIP3   OH253505   2.935   2.519   5.575  0.0145  0.0266 -0.2749
10697TIP3    H153506   2.942   2.544   5.667 -1.0904  1.4495 -0.5393
10697TIP3    H253507   3.017   2.549   5.535 -0.1263  0.7370 -0.0342
10698TIP3   OH253508   0.674   0.959   4.299  0.1181 -0.1603  0.4990
10698TIP3    H153509   0.698   0.889   4.238  2.6526 -0.3243  1.5683
10698TIP3    H253510   0.757   0.994   4.329 -1.0426  0.6641  2.9941
10699TIP3   OH253511   5.117   1.105   5.865  0.4424  0.1173  0.2991
10699TIP3    H153512   5.184   1.131   5.928 -0.9127  0.1924  1.7594
10699TIP3    H253513   5.034   1.110   5.913 -0.5246 -1.0076 -1.1288
10700TIP3   OH253514   6.688   0.251  16.166 -0.1351 -0.2111 -0.2634
10700TIP3    H153515   6.658   0.206  16.087 -1.2806  0.6842 -0.3695
10700TIP3    H253516   6.718   0.180  16.224 -1.5270 -1.0991 -0.5673
10701TIP3   OH253517   3.570   6.133  12.212  0.0578 -0.1523 -0.1054
10701TIP3    H153518   3.579   6.186  12.133  1.2049 -1.3188 -0.7981
10701TIP3    H253519   3.654   6.088  12.220 -0.3868 -0.7826  1.2516
10702TIP3   OH253520   1.856   1.590  14.221 -0.3886 -0.1113  0.1039
10702TIP3    H153521   1.951   1.606  14.217 -0.4322  0.2346  0.3647
10702TIP3    H253522   1.834   1.600  14.313 -0.5980 -0.7009  0.1222
10703TIP3   OH253523   1.040   1.580  14.566  0.2348 -0.7777  0.0672
10703TIP3    H153524   0.986   1.518  14.615 -1.8618  0.3335 -0.7198
10703TIP3    H253525   1.056   1.651  14.627  0.8949 -1.1316  0.3178
10704TIP3   OH253526   2.488   6.801   3.139 -0.0628  0.0070  0.3502
10704TIP3    H153527   2.455   6.871   3.195  1.0486  0.4069  0.5196
10704TIP3    H253528   2.526   6.846   3.063  1.5588 -0.3314  0.9297
10705TIP3   OH253529   5.496   2.061   5.057  0.1258 -0.0540  0.8517
10705TIP3    H153530   5.580   2.094   5.088  0.5236 -2.2682  2.3692
10705TIP3    H253531   5.484   2.103   4.972  2.6898  0.4300  0.6350
10706TIP3   OH253532   0.177   3.376  10.569  0.2876  0.3292 -0.1472
10706TIP3    H153533   0.139   3.290  10.551 -0.8789  0.9383 -0.7264
10706TIP3    H253534   0.257   3.379  10.516  0.4095 -0.4395 -0.0166
10707TIP3   OH253535   5.355   0.910   4.296  0.1085  0.5582 -0.0385
10707TIP3    H153536   5.416   0.840   4.272 -0.6938  0.1767 -1.0289
10707TIP3    H253537   5.339   0.957   4.215 -0.7376  0.7962  0.2528
10708TIP3   OH253538   4.322   4.373   2.312 -0.0550  0.6293  0.2349
10708TIP3    H153539   4.320   4.288   2.356 -1.1766 -0.3132 -1.5336
10708TIP3    H253540   4.230   4.393   2.294  0.3489  0.9158 -1.7247
10709TIP3   OH253541   4.142   2.385   4.196  0.3298  0.0489 -0.0817
10709TIP3    H153542   4.086   2.359   4.123 -2.1065  1.0016  1.3469
10709TIP3    H253543   4.151   2.480   4.188  0.9457  0.0246  0.2498
10710TIP3   OH253544   1.585   6.074   1.534  0.1632 -0.0319 -0.3673
10710TIP3    H153545   1.580   6.070   1.630 -0.7977 -1.0184 -0.4307
10710TIP3    H253546   1.516   6.135   1.509 -1.2650 -1.6379 -0.5166
10711TIP3   OH253547   2.739   0.844  11.536 -0.2966 -0.2050 -0.5281
10711TIP3    H153548   2.650   0.810  11.546 -0.6191  0.7843  0.1914
10711TIP3    H253549   2.726   0.938  11.521  0.5724 -0.2767 -1.8863
10712TIP3   OH253550   5.297   5.392   3.200 -0.2928 -0.6403  0.4294
10712TIP3    H153551   5.361   5.389   3.129 -0.0355 -0.6175  0.6596
10712TIP3    H253552   5.331   5.457   3.261 -0.3178 -0.9348  0.7591
10713TIP3   OH253553   5.765   2.694   4.064  0.8038 -0.0702  0.1656
10713TIP3    H153554   5.744   2.730   3.978 -1.4315 -1.1488  0.1950
10713TIP3    H253555   5.713   2.747   4.125  1.8237  0.2305  0.7895
10714TIP3   OH253556   4.332   4.117   1.072  0.3566  0.0587 -0.1421
10714TIP3    H153557   4.421   4.084   1.062  0.6414  0.8599 -0.3047
10714TIP3    H253558   4.307   4.091   1.161 -0.0529 -2.0288 -0.8190
10715TIP3   OH253559   2.808   1.676   4.085  0.2326 -0.2811 -0.5817
10715TIP3    H153560   2.901   1.696   4.099 -0.2785  1.9605  0.0243
10715TIP3    H253561   2.781   1.633   4.166  0.8558 -1.4909 -0.9954
10716TIP3   OH253562   5.721   6.131  12.940  0.0231 -0.0645 -0.3291
10716TIP3    H153563   5.725   6.036  12.951 -1.9342  0.0156  2.0769
10716TIP3    H253564   5.660   6.144  12.867  1.1632 -0.6226 -1.4095
10717TIP3   OH253565   4.931   5.170  16.518 -0.1105 -0.6104  0.5732
10717TIP3    H153566   4.881   5.157  16.598 -3.4246 -1.3090 -1.4095
10717TIP3    H253567   4.952   5.081  16.488 -1.2117 -0.4922 -0.6143
10718TIP3   OH253568   0.821   2.815   4.826 -0.8716  0.2079 -0.2697
10718TIP3    H153569   0.895   2.757   4.808 -0.5809  0.9469 -1.5979
10718TIP3    H253570   0.754   2.758   4.864 -0.8015 -1.1249 -2.0497
10719TIP3   OH253571   1.387   2.723   4.875  0.3750 -0.2837  0.1983
10719TIP3    H153572   1.339   2.664   4.933 -1.1112  1.8505  1.2813
10719TIP3    H253573   1.451   2.766   4.931 -0.0480  0.7012 -0.0468
10720TIP3   OH253574   6.111   4.736   4.740  0.0230 -0.9588  0.5011
10720TIP3    H153575   6.028   4.688   4.738  0.7150 -2.1814  0.7121
10720TIP3    H253576   6.175   4.673   4.771  0.7800  0.3979  1.8285
10721TIP3   OH253577   1.647   5.071  13.326  0.4260 -0.5243  0.5191
10721TIP3    H153578   1.575   5.133  13.309  0.8535  0.3938  1.8469
10721TIP3    H253579   1.726   5.124  13.320  0.8481 -1.0889  0.9757
10722TIP3   OH253580   0.820   4.060  16.197 -0.4332 -0.2808 -0.4309
10722TIP3    H153581   0.886   4.122  16.228  0.0546 -1.4328  0.9123
10722TIP3    H253582   0.828   3.985  16.255 -2.7924 -0.5576 -0.3926
10723TIP3   OH253583   0.178   1.391   1.098 -0.3923 -0.1410  0.0817
10723TIP3    H153584   0.151   1.306   1.132  2.2035 -0.2085  2.3048
10723TIP3    H253585   0.258   1.372   1.049  0.8200  1.0823  1.5053
10724TIP3   OH253586   5.930   3.538  12.887 -0.4349  0.4076 -0.2216
10724TIP3    H153587   5.926   3.576  12.799 -1.1398  0.5797 -0.1223
10724TIP3    H253588   5.850   3.487  12.895  0.6468 -1.4064 -0.4667
10725TIP3   OH253589   3.400   1.068   1.412  0.4073 -0.8434  0.2830
10725TIP3    H153590   3.377   1.155   1.445 -1.2340 -0.9593 -0.4495
10725TIP3    H253591   3.485   1.080   1.371  0.3460  0.3605  0.4721
10726TIP3   OH253592   1.974   4.480   2.298  0.1464  0.5080 -0.0974
10726TIP3    H153593   2.064   4.508   2.313 -0.6837  3.1279  0.5415
10726TIP3    H253594   1.967   4.469   2.203  0.9687  0.9726 -0.2173
10727TIP3   OH253595   5.074   4.589  16.971 -0.2149  0.4485 -0.3511
10727TIP3    H153596   5.118   4.623  16.893 -0.8617 -0.5906 -1.1949
10727TIP3    H253597   4.983   4.575  16.943 -0.3650 -0.3153  0.4640
10728TIP3   OH253598   5.666   0.485   1.907  0.0064 -0.1025 -0.2100
10728TIP3    H153599   5.697   0.429   1.978 -0.5398  0.7353  0.7162
10728TIP3    H253600   5.610   0.429   1.854 -1.2213 -0.2417  1.1798
10729TIP3   OH253601   5.241   2.534  14.276 -0.0209  0.0344  0.1632
10729TIP3    H153602   5.328   2.495  14.288 -0.3113 -0.5505  0.4156
10729TIP3    H253603   5.237   2.556  14.183  0.6551  0.7023  0.2807
10730TIP3   OH253604   1.145   4.165  13.130 -0.5365 -1.0368 -0.6708
10730TIP3    H153605   1.143   4.100  13.060  2.0043 -0.1070 -1.7227
10730TIP3    H253606   1.085   4.234  13.101  1.9278  0.3135 -3.1325
10731TIP3   OH253607   5.021   5.582  13.925 -0.2419 -0.3770 -0.2767
10731TIP3    H153608   5.101   5.628  13.952 -0.5749 -0.3056  0.6303
10731TIP3    H253609   5.052   5.512  13.867  0.6481 -1.2146  1.1287
10732TIP3   OH253610   4.262   2.759  13.231 -0.3644 -0.2287 -0.2768
10732TIP3    H153611   4.335   2.783  13.173  0.1764 -0.9604  0.0870
10732TIP3    H253612   4.184   2.789  13.184 -0.0485 -1.8912 -2.0021
10733TIP3   OH253613   3.619   4.147  14.765 -0.2874 -0.6221 -0.4464
10733TIP3    H153614   3.714   4.155  14.760 -0.0438  0.9424  3.2722
10733TIP3    H253615   3.586   4.227  14.725  0.0553 -0.4470 -0.3802
10734TIP3   OH253616   3.518   5.478  12.035  0.2416 -0.2161 -0.6680
10734TIP3    H153617   3.430   5.448  12.010 -0.4639  0.1364  1.2581
10734TIP3    H253618   3.572   5.399  12.030 -1.1426 -1.4981  2.3171
10735TIP3   OH253619   5.698   6.413   5.050 -0.0999  0.7065 -0.6692
10735TIP3    H153620   5.623   6.393   5.106 -0.4690 -0.4976 -1.5617
10735TIP3    H253621   5.737   6.491   5.090 -1.3490  0.8877  0.2641
10736TIP3   OH253622   5.247   6.012   2.030  0.4376 -0.4658  0.0489
10736TIP3    H153623   5.225   6.105   2.029 -0.8440 -0.7050  1.8243
10736TIP3    H253624   5.275   5.993   1.940 -1.1782  1.1832 -0.8653
10737TIP3   OH253625   4.702   1.677   3.124 -0.2381  0.4071 -0.8513
10737TIP3    H153626   4.616   1.638   3.138  1.4739 -3.2758  0.6828
10737TIP3    H253627   4.711   1.680   3.028 -1.4792 -0.6485 -1.0323
10738TIP3   OH253628   0.228   2.410  10.055 -0.1062 -0.3436  0.1049
10738TIP3    H153629   0.143   2.377  10.023 -0.1069 -0.8178  0.5830
10738TIP3    H253630   0.206   2.490  10.103 -0.3854 -0.8485  0.8470
10739TIP3   OH253631   2.192   1.907  16.626 -0.3372 -0.1369  0.2286
10739TIP3    H153632   2.233   1.896  16.711 -1.0782  2.1656  0.9619
10739TIP3    H253633   2.262   1.934  16.568 -0.3023  1.1301  0.8326
10740TIP3   OH253634   1.680   2.913   1.327 -0.6596  0.1311 -0.3086
10740TIP3    H153635   1.606   2.891   1.271 -2.5135  1.6785  1.3680
10740TIP3    H253636   1.717   2.828   1.353 -2.1726 -0.7111 -0.7905
10741TIP3   OH253637   5.464   5.612   1.840  0.8956  0.1210  0.7852
10741TIP3    H153638   5.447   5.605   1.746  0.9659  1.4061  0.6687
10741TIP3    H253639   5.540   5.555   1.855  0.5126 -0.5694  0.1895
10742TIP3   OH253640   4.572   5.300   4.009  0.0173  0.2990 -0.4451
10742TIP3    H153641   4.641   5.347   4.056 -1.3743  1.5122  0.4747
10742TIP3    H253642   4.609   5.287   3.921  1.4002  0.9170  0.0024
10743TIP3   OH253643   1.689   1.141   1.467  0.1089  0.0512 -0.2395
10743TIP3    H153644   1.744   1.069   1.437  0.6728  0.6573 -0.6953
10743TIP3    H253645   1.603   1.123   1.429  0.4002 -0.0564 -0.8678
10744TIP3   OH253646   3.103   4.820  14.665 -0.2014  0.1526 -0.5959
10744TIP3    H153647   3.183   4.868  14.645 -0.0804  0.6983  1.0815
10744TIP3    H253648   3.073   4.856  14.749 -0.9101 -1.6621 -0.0195
10745TIP3   OH253649   2.526   2.559  11.355 -0.5624 -0.1872  0.4268
10745TIP3    H153650   2.454   2.580  11.295 -1.9842  1.2886  2.4942
10745TIP3    H253651   2.547   2.643  11.397  1.2200 -0.9336  1.1055
10746TIP3   OH253652   4.743   4.150   2.561  0.3706  0.1560 -0.1926
10746TIP3    H153653   4.657   4.179   2.531  0.2624  1.3815  1.2178
10746TIP3    H253654   4.749   4.059   2.531 -0.6029  0.6313 -1.9778
10747TIP3   OH253655   1.224   1.194  14.259 -0.0521 -0.7071 -0.2954
10747TIP3    H153656   1.138   1.190  14.217 -0.5647 -1.0429  0.7478
10747TIP3    H253657   1.211   1.151  14.343  1.1635 -0.8205 -0.1524
10748TIP3   OH253658   5.456   0.334   2.216  0.4210 -0.8242  0.0173
10748TIP3    H153659   5.491   0.325   2.305  0.3565 -0.5516  0.0715
10748TIP3    H253660   5.368   0.298   2.221 -0.2883  0.8736  0.5274
10749TIP3   OH253661   4.367   1.388   5.608 -0.1721  0.4271  0.1640
10749TIP3    H153662   4.276   1.415   5.610 -0.1321  0.9328 -2.1537
10749TIP3    H253663   4.363   1.293   5.597 -0.3630  0.2254  1.7390
10750TIP3   OH253664   5.091   5.651   4.929  0.0959 -0.0093 -0.4874
10750TIP3    H153665   5.182   5.672   4.952 -0.2550 -1.1766  2.3024
10750TIP3    H253666   5.089   5.556   4.923 -0.7692  0.0530 -1.6201
10751TIP3   OH253667   1.362   2.791  15.461  0.0046  0.4277 -0.7221
10751TIP3    H153668   1.376   2.737  15.539  0.6711 -0.2644 -1.3063
10751TIP3    H253669   1.450   2.820  15.436 -0.2675  1.1334 -0.8809
10752TIP3   OH253670   5.074   0.055   4.381 -0.8329  0.2833 -0.0082
10752TIP3    H153671   4.993   0.009   4.358 -2.4745  1.5241  2.6947
10752TIP3    H253672   5.057   0.146   4.358  0.6738  0.2677 -1.3229
10753TIP3   OH253673   1.639   0.608  13.760 -0.4932 -0.5896 -0.3590
10753TIP3    H153674   1.588   0.687  13.744 -0.6611 -0.4241  0.8970
10753TIP3    H253675   1.639   0.599  13.855  1.0600 -1.0779 -0.3822
10754TIP3   OH253676   2.068   4.083   0.458  0.4046 -0.0730  0.8540
10754TIP3    H153677   2.094   4.081   0.550  0.9080  0.3012  0.7250
10754TIP3    H253678   2.133   4.138   0.415  0.3189 -0.4377  0.2261
10755TIP3   OH253679   2.462   5.518   5.821  0.2783 -0.1483  0.4471
10755TIP3    H153680   2.378   5.539   5.862  0.0768 -1.1045  0.5533
10755TIP3    H253681   2.517   5.488   5.894  0.9507  1.0933  0.4893
10756TIP3   OH253682   5.137   4.010   2.505 -0.0457  0.2614  0.5569
10756TIP3    H153683   5.167   4.100   2.511  2.2690 -0.4162  0.3841
10756TIP3    H253684   5.211   3.958   2.538 -1.1427 -1.5832  0.2705
10757TIP3   OH253685   6.620   0.413  12.175  0.1247  0.0958  0.0224
10757TIP3    H153686   6.646   0.484  12.234 -2.4042  1.4964 -0.4242
10757TIP3    H253687   6.627   0.334  12.229 -1.2997  1.2197  2.0004
10758TIP3   OH253688   4.561   2.950   2.657 -0.6940 -0.3409  0.1601
10758TIP3    H153689   4.617   2.928   2.583  0.5219 -2.0790  1.4817
10758TIP3    H253690   4.528   2.865   2.688 -1.5544  0.3725  1.3118
10759TIP3   OH253691   6.619   1.859   3.918 -0.2055  0.0281  0.1202
10759TIP3    H153692   6.708   1.823   3.910 -0.9211 -1.7660 -0.3677
10759TIP3    H253693   6.589   1.829   4.004 -0.1211  1.2051  0.5755
10760TIP3   OH253694   0.983   5.935  17.060  0.0554  0.0003  0.0102
10760TIP3    H153695   1.025   5.851  17.080  0.0125  0.0988  0.5216
10760TIP3    H253696   0.945   5.922  16.973  3.1922  0.6751 -1.5897
10761TIP3   OH253697   2.062   0.775  12.165  0.2561 -0.1016  0.7179
10761TIP3    H153698   2.082   0.728  12.246 -1.9296 -1.5632  0.4851
10761TIP3    H253699   2.045   0.707  12.100 -4.0349  0.8162  0.6138
10762TIP3   OH253700   3.191   4.319   1.278 -0.2192  0.5595 -0.5115
10762TIP3    H153701   3.272   4.330   1.327 -0.8859 -0.4814  0.9014
10762TIP3    H253702   3.199   4.233   1.236 -0.6035  0.4268 -0.3219
10763TIP3   OH253703   5.934   3.776   1.861 -0.0115  0.2031  0.2965
10763TIP3    H153704   5.876   3.720   1.912 -1.7325 -2.1599 -3.8023
10763TIP3    H253705   5.876   3.828   1.806  1.7332  0.7826 -1.1079
10764TIP3   OH253706   5.536   1.049  15.159 -0.0566 -0.1154 -0.2936
10764TIP3    H153707   5.477   0.979  15.130  1.2722 -0.3650 -2.6546
10764TIP3    H253708   5.496   1.129  15.125 -0.6670  0.1162  0.9092
10765TIP3   OH253709   5.221   1.347   4.450  0.1271 -0.3507  0.0245
10765TIP3    H153710   5.167   1.422   4.474  0.0579 -0.7576  1.2559
10765TIP3    H253711   5.208   1.336   4.356 -2.4229 -0.7632  0.3500
10766TIP3   OH253712   2.473   6.026  15.784  0.2528  0.5275  0.0490
10766TIP3    H153713   2.389   6.006  15.825 -1.4987  1.4017 -2.8384
10766TIP3    H253714   2.495   5.947  15.735  1.3984  0.1384  1.1421
10767TIP3   OH253715   1.067   1.841  12.977 -0.7536  0.1649 -0.2210
10767TIP3    H153716   0.995   1.785  13.007 -0.7619  0.0372 -0.4770
10767TIP3    H253717   1.053   1.849  12.882 -0.3757  0.0606 -0.2871
10768TIP3   OH253718   1.406   5.670   4.175 -0.2968 -0.1977  0.0206
10768TIP3    H153719   1.465   5.688   4.248  0.1626  0.1370 -0.4230
10768TIP3    H253720   1.323   5.711   4.200  0.0700  0.5487  0.0375
10769TIP3   OH253721   1.156   2.458  12.227 -0.2648  0.3441  0.5031
10769TIP3    H153722   1.184   2.508  12.304 -0.2033  1.1237 -0.0125
10769TIP3    H253723   1.226   2.394  12.214 -0.6877 -0.3723  1.5939
10770TIP3   OH253724   4.393   4.179  12.796 -0.1511 -0.4629 -0.3647
10770TIP3    H153725   4.440   4.096  12.793 -0.6272 -0.8725  1.8371
10770TIP3    H253726   4.410   4.214  12.883 -0.4778  1.4607 -1.0213
10771TIP3   OH253727   2.136   0.693  14.988  0.4191 -0.0746  0.7516
10771TIP3    H153728   2.186   0.771  14.963  1.8164 -1.2495 -0.2787
10771TIP3    H253729   2.174   0.666  15.071  0.2033  0.1077  0.9108
10772TIP3   OH253730   6.361   2.045   2.142  0.1592  0.6580  0.2381
10772TIP3    H153731   6.436   2.072   2.193 -0.2921 -0.4764  1.5679
10772TIP3    H253732   6.287   2.050   2.202 -0.3967 -0.6738 -0.2756
10773TIP3   OH253733   6.581   6.313  13.549  0.2480  0.2684  0.0188
10773TIP3    H153734   6.639   6.242  13.520  0.7989  0.9000 -0.4430
10773TIP3    H253735   6.549   6.353  13.468 -0.7576  0.0083  0.2640
10774TIP3   OH253736   4.594   6.474   4.588  0.0068 -0.3430  0.5051
10774TIP3    H153737   4.594   6.457   4.493  0.8581  0.7873  0.2776
10774TIP3    H253738   4.554   6.396   4.626  1.1706 -1.5728 -0.6597
10775TIP3   OH253739   0.841   0.536   1.116 -0.2494  0.2335  0.5209
10775TIP3    H153740   0.904   0.552   1.186 -0.8957  0.5836  1.0358
10775TIP3    H253741   0.882   0.574   1.038  0.5070 -0.2236  0.6857
10776TIP3   OH253742   0.183   3.628   1.901 -0.2139  0.3588 -0.3439
10776TIP3    H153743   0.110   3.632   1.963  0.8509 -1.4738  1.1330
10776TIP3    H253744   0.148   3.665   1.820 -2.8401 -0.6260  0.2511
10777TIP3   OH253745   1.085   3.529  12.439 -0.1886  0.2527 -0.4974
10777TIP3    H153746   1.035   3.458  12.400 -1.0280  0.1999  0.6505
10777TIP3    H253747   1.153   3.485  12.491 -0.8675  0.2777  0.4201
10778TIP3   OH253748   3.333   6.212  11.289 -0.0168 -0.3172  0.3497
10778TIP3    H153749   3.333   6.128  11.243  2.1383  0.0090 -0.3696
10778TIP3    H253750   3.372   6.192  11.375  0.6894 -0.0539  0.1028
10779TIP3   OH253751   0.798   2.482   5.274  0.1449  0.2881  0.3524
10779TIP3    H153752   0.750   2.554   5.234 -0.7628 -0.1568  0.6207
10779TIP3    H253753   0.873   2.468   5.216 -1.0655 -0.2556 -1.1707
10780TIP3   OH253754   5.781   6.364   4.249  0.0380  0.1188  0.0421
10780TIP3    H153755   5.806   6.415   4.327 -3.2186 -0.2308  1.4993
10780TIP3    H253756   5.714   6.418   4.206  0.1699 -0.7113 -1.2620
10781TIP3   OH253757   5.988   4.680   0.836 -0.0521 -0.5835  0.2408
10781TIP3    H153758   5.982   4.586   0.818 -1.3920 -0.3258 -0.8056
10781TIP3    H253759   6.062   4.710   0.782 -1.9318 -0.4220 -2.4299
10782TIP3   OH253760   6.157   1.155   3.169 -0.1245  0.1191 -0.1690
10782TIP3    H153761   6.217   1.087   3.138  0.3235  0.1072  0.6969
10782TIP3    H253762   6.118   1.190   3.089  2.2818  1.3132 -0.9085
10783TIP3   OH253763   5.186   3.019   5.757  0.1938  0.1844 -0.7416
10783TIP3    H153764   5.187   3.063   5.842 -1.0210  1.2073 -1.2245
10783TIP3    H253765   5.277   3.020   5.728  0.4334  0.8928  0.0112
10784TIP3   OH253766   3.020   0.912   5.450 -0.6168 -0.1307 -0.4252
10784TIP3    H153767   2.933   0.875   5.468  0.4583 -1.9998  1.3635
10784TIP3    H253768   3.078   0.835   5.445  1.6559  1.1425  2.8215
10785TIP3   OH253769   3.820   6.104   0.373  0.2100 -0.1955 -0.4495
10785TIP3    H153770   3.810   6.199   0.376  0.1761 -0.2272  1.6999
10785TIP3    H253771   3.730   6.071   0.366 -0.0531 -0.0915  1.7861
10786TIP3   OH253772   0.259   5.593   0.474 -0.3220  0.4854 -0.1050
10786TIP3    H153773   0.338   5.630   0.434  0.9316  0.3202  2.0672
10786TIP3    H253774   0.217   5.666   0.518 -0.1553  0.1475  0.6259
10787TIP3   OH253775   2.000   3.644  15.524 -0.0647  0.5319 -0.4410
10787TIP3    H153776   2.015   3.651  15.430  1.2819  0.2073 -0.2677
10787TIP3    H253777   2.028   3.555  15.546  1.2585  1.1497  0.5308
10788TIP3   OH253778   3.225   4.732  12.834  0.2209 -0.3074 -0.1887
10788TIP3    H153779   3.207   4.782  12.754  1.2742  0.7486  0.1998
10788TIP3    H253780   3.222   4.640  12.807 -2.1102 -0.0914 -0.8527
10789TIP3   OH253781   0.078   4.139   4.188  0.2606 -0.4345 -0.2261
10789TIP3    H153782   0.090   4.078   4.261  0.4998 -0.2128 -0.0786
10789TIP3    H253783   0.166   4.152   4.153  0.1864 -0.3111 -0.3679
10790TIP3   OH253784   4.872   6.185  12.196  0.1601 -0.3045 -0.1576
10790TIP3    H153785   4.956   6.152  12.165  0.4424 -1.2931  1.5376
10790TIP3    H253786   4.894   6.255  12.257 -0.2792 -0.0865 -0.2430
10791TIP3   OH253787   5.112   0.742   5.130 -0.2911  0.1374 -0.2064
10791TIP3    H153788   5.122   0.821   5.183 -1.6549  0.3197 -0.1781
10791TIP3    H253789   5.128   0.669   5.191 -0.2460  0.3748  0.0650
10792TIP3   OH253790   1.718   3.827  13.068 -0.2445  0.2027  0.4353
10792TIP3    H153791   1.706   3.756  13.005 -1.2456 -0.2234  1.0724
10792TIP3    H253792   1.690   3.789  13.152  0.1200  1.0583  0.9550
10793TIP3   OH253793   1.730   3.631  14.936  0.1992  0.1549 -0.5509
10793TIP3    H153794   1.699   3.717  14.962 -0.2446 -0.4657  1.1231
10793TIP3    H253795   1.699   3.572  15.005  2.5878 -0.9573 -0.3007
10794TIP3   OH253796   5.862   5.414   0.836  0.9885 -0.7757  0.2889
10794TIP3    H153797   5.767   5.421   0.828  1.0954  0.6833  0.0589
10794TIP3    H253798   5.896   5.467   0.764  1.9610  0.0439  1.3277
10795TIP3   OH253799   4.551   6.323  12.941  0.0006 -0.1019 -0.2404
10795TIP3    H153800   4.609   6.271  12.997 -0.4257 -1.1090 -0.7083
10795TIP3    H253801   4.554   6.411  12.979 -2.3038 -1.2373  2.9625
10796TIP3   OH253802   5.662   4.541  16.473  0.0398 -0.2826  0.4837
10796TIP3    H153803   5.736   4.548  16.534  1.0501  0.9445 -0.8104
10796TIP3    H253804   5.702   4.552  16.387 -1.5923 -0.1958 -0.2853
10797TIP3   OH253805   5.094   3.975  14.862 -0.2224 -0.1394 -0.2613
10797TIP3    H153806   5.006   4.012  14.861 -0.4254 -0.5514  0.8263
10797TIP3    H253807   5.083   3.885  14.831  0.0082  0.1645 -1.2572
10798TIP3   OH253808   5.207   0.078  12.355 -0.0393 -0.5648 -0.6543
10798TIP3    H153809   5.193  -0.016  12.349  3.3381 -1.4624  1.9047
10798TIP3    H253810   5.281   0.095  12.296 -1.3076  0.7953 -1.9476
10799TIP3   OH253811   2.310   3.960  15.679 -0.4823  0.4772 -0.1629
10799TIP3    H153812   2.370   4.035  15.677 -0.2348  0.3440  1.2543
10799TIP3    H253813   2.349   3.900  15.743 -1.2154 -0.4085 -0.5248
10800TIP3   OH253814   6.417   6.758  13.824 -0.2891  0.2292 -0.0682
10800TIP3    H153815   6.359   6.800  13.888  0.0401  1.9827 -0.8572
10800TIP3    H253816   6.451   6.681  13.869 -1.2774  0.5576  1.3024
10801TIP3   OH253817   1.517   2.304  15.032  0.6685  0.4017  0.1843
10801TIP3    H153818   1.532   2.330  14.941  0.8709 -1.8758 -0.4873
10801TIP3    H253819   1.603   2.312  15.074  0.8806  0.1185 -0.1945
10802TIP3   OH253820   1.690   0.637  14.253  0.3824 -0.1333  0.2069
10802TIP3    H153821   1.712   0.602  14.339 -0.4971 -0.0566  0.4787
10802TIP3    H253822   1.712   0.730  14.259  1.2403 -0.3224  0.0160
10803TIP3   OH253823   0.762   3.333  14.744  0.8522 -0.3444  0.5268
10803TIP3    H153824   0.773   3.246  14.782 -1.0103 -0.7550  0.2010
10803TIP3    H253825   0.669   3.351  14.752  0.7281  0.4128 -1.9880
10804TIP3   OH253826   4.964   6.446  14.656  0.1484 -0.5631 -0.0398
10804TIP3    H153827   4.895   6.492  14.704 -1.1464 -2.5704  0.1409
10804TIP3    H253828   4.931   6.438  14.567  0.0504 -1.6951  0.0865
10805TIP3   OH253829   3.878   0.158  13.190 -0.1547  0.4450  0.5783
10805TIP3    H153830   3.920   0.129  13.109 -2.8888 -0.0349 -0.7911
10805TIP3    H253831   3.886   0.083  13.249 -0.5281 -0.2693 -0.2516
10806TIP3   OH253832   1.937   1.637  15.116 -0.5873 -0.5738  0.0067
10806TIP3    H153833   1.877   1.570  15.150 -1.4395  0.4615  0.5745
10806TIP3    H253834   1.882   1.696  15.065  0.2421 -0.5554 -0.9169
10807TIP3   OH253835   1.825   2.823   2.677 -0.0684  0.3849  0.0194
10807TIP3    H153836   1.893   2.890   2.682  1.8556 -1.2570 -1.9727
10807TIP3    H253837   1.820   2.788   2.766  0.6470  1.5244  0.5326
10808TIP3   OH253838   4.127   4.230   2.572  0.3516  0.6850 -0.1184
10808TIP3    H153839   4.107   4.137   2.583  2.0225  0.3154  0.0234
10808TIP3    H253840   4.042   4.270   2.555 -0.4673 -0.7932  0.2555
10809TIP3   OH253841   4.886   0.533  13.741  0.0684  0.6707 -0.2860
10809TIP3    H153842   4.882   0.624  13.710 -1.1143  0.9585  0.6441
10809TIP3    H253843   4.887   0.481  13.660  0.3198  1.4891 -0.8257
10810TIP3   OH253844   4.597   5.968   3.599  0.4436 -0.0072  0.2465
10810TIP3    H153845   4.674   5.918   3.573 -0.7647 -1.3735 -0.9022
10810TIP3    H253846   4.601   6.047   3.544  0.9490 -0.1307  0.0978
10811TIP3   OH253847   3.326   2.196   2.094  0.3690  0.1745  0.2194
10811TIP3    H153848   3.302   2.103   2.096 -0.4675  0.3897  0.6271
10811TIP3    H253849   3.406   2.201   2.146  3.0647 -0.9951 -3.4003
10812TIP3   OH253850   4.878   6.074  11.508  0.4443  0.1459 -0.1721
10812TIP3    H153851   4.929   6.145  11.469  2.6460 -1.3432 -0.2484
10812TIP3    H253852   4.924   6.053  11.589 -0.7588 -0.5317  0.3646
10813TIP3   OH253853   4.497   0.911  15.019  0.1771 -0.3454  0.3070
10813TIP3    H153854   4.468   0.967  15.091 -1.7615 -0.4956 -0.2943
10813TIP3    H253855   4.453   0.947  14.942  2.0193 -0.3342 -0.7942
10814TIP3   OH253856   4.838   0.903   5.656  0.3725  0.4319  0.5072
10814TIP3    H153857   4.918   0.856   5.678  0.8049  1.3231  0.9128
10814TIP3    H253858   4.775   0.835   5.634  1.6503 -0.2425 -1.2734
10815TIP3   OH253859   4.939   1.082   0.564 -0.0210  0.2514 -0.2998
10815TIP3    H153860   4.880   1.007   0.575  0.0747  0.3717  1.2358
10815TIP3    H253861   4.892   1.141   0.505  0.2712 -1.3696 -2.2610
10816TIP3   OH253862   1.216   4.395   4.427 -0.6468  0.7178 -0.2074
10816TIP3    H153863   1.120   4.401   4.430 -0.5911  1.0930  1.4854
10816TIP3    H253864   1.238   4.422   4.338 -2.0830  1.0012 -0.5127
10817TIP3   OH253865   2.632   3.086   3.398  0.4261  0.0928  0.1714
10817TIP3    H153866   2.641   3.181   3.402  1.6039 -0.0080  0.2853
10817TIP3    H253867   2.714   3.053   3.434 -0.7104 -0.9909  1.8829
10818TIP3   OH253868   3.262   3.564   3.955  0.0307  0.1158 -0.0559
10818TIP3    H153869   3.213   3.582   4.035  1.1551 -0.7381  0.8503
10818TIP3    H253870   3.349   3.599   3.972  0.7547 -1.5036 -0.2667
10819TIP3   OH253871   6.110   5.142  12.497  0.3749  0.0687 -0.0518
10819TIP3    H153872   6.149   5.229  12.501 -0.5316  0.6368 -2.0044
10819TIP3    H253873   6.040   5.144  12.563  1.1154  0.3876  0.7383
10820TIP3   OH253874   3.208   4.846   5.097  0.2633  0.0270 -0.2209
10820TIP3    H153875   3.242   4.850   5.008 -0.2846 -1.7008 -0.5402
10820TIP3    H253876   3.113   4.849   5.086  0.1920 -0.2635  0.3039
10821TIP3   OH253877   4.609   2.730   1.489 -0.2669 -0.4796 -0.1183
10821TIP3    H153878   4.667   2.667   1.445  0.2875  0.9677 -1.5463
10821TIP3    H253879   4.617   2.708   1.582  0.4416 -2.0599 -0.5050
10822TIP3   OH253880   6.764   2.636  12.099 -0.2656  0.0190 -0.3625
10822TIP3    H153881   6.750   2.543  12.084 -1.5104  0.2935 -1.0294
10822TIP3    H253882   6.722   2.654  12.184  0.8688 -0.2097  0.2661
10823TIP3   OH253883   2.973   3.633   5.595 -0.0287 -0.3824 -0.7955
10823TIP3    H153884   2.925   3.708   5.628  0.8125  0.3546 -1.2091
10823TIP3    H253885   3.046   3.622   5.656  0.2169 -0.4550 -1.0983
10824TIP3   OH253886   2.188   2.584  13.661  0.1207  0.0947 -0.0320
10824TIP3    H153887   2.167   2.658  13.603  1.7436  0.0067 -0.7941
10824TIP3    H253888   2.167   2.507  13.609 -0.8886  0.0026  0.4955
10825TIP3   OH253889   5.000   0.122   1.810  0.0025  0.2370 -0.5153
10825TIP3    H153890   4.906   0.111   1.825 -0.1558 -0.3221 -1.8326
10825TIP3    H253891   5.041   0.055   1.865 -0.3401  0.6036  0.2080
10826TIP3   OH253892   1.768   5.834  11.020  0.1612  0.3150 -0.4515
10826TIP3    H153893   1.808   5.804  10.938  0.4117 -0.0451 -0.1937
10826TIP3    H253894   1.689   5.880  10.991 -0.1302 -0.4256 -0.8513
10827TIP3   OH253895   6.329   3.593   2.645 -0.1684  0.2384  0.0519
10827TIP3    H153896   6.282   3.516   2.677 -0.4457  0.4995  0.2739
10827TIP3    H253897   6.399   3.606   2.708 -2.2284  2.3025  2.1138
10828TIP3   OH253898   5.726   2.123   1.090 -0.2468 -0.2189 -0.1207
10828TIP3    H153899   5.698   2.033   1.108 -2.7658  0.3024 -1.1408
10828TIP3    H253900   5.724   2.166   1.176 -0.1866 -0.8166  0.1853
10829TIP3   OH253901   6.258   4.009   6.193  0.6259 -0.1342 -0.8619
10829TIP3    H153902   6.279   4.062   6.116  1.8411  2.2783  1.0225
10829TIP3    H253903   6.336   4.014   6.248  0.7916 -3.9065 -0.4794
10830TIP3   OH253904   6.386   2.250   4.167  0.3717  0.0267 -0.0523
10830TIP3    H153905   6.393   2.159   4.140  2.3520  0.0402  0.2534
10830TIP3    H253906   6.464   2.292   4.132 -0.1094  1.4367  0.4699
10831TIP3   OH253907   2.618   6.636   6.427  0.2628  0.0820 -0.4097
10831TIP3    H153908   2.602   6.596   6.342 -0.3338 -1.0472  0.2001
10831TIP3    H253909   2.579   6.723   6.421 -1.5493 -0.7018 -0.6777
10832TIP3   OH253910   1.577   6.319   2.541  0.2762  0.4599 -0.4636
10832TIP3    H153911   1.586   6.340   2.634 -1.1092 -0.6868 -0.0359
10832TIP3    H253912   1.612   6.230   2.533  0.4085  0.5631 -1.0434
10833TIP3   OH253913   5.810   0.293  16.727  0.4957 -0.2796 -0.2125
10833TIP3    H153914   5.835   0.288  16.635  1.0995 -2.2223  0.0119
10833TIP3    H253915   5.892   0.303  16.775  0.2015  0.5298  0.1517
10834TIP3   OH253916   2.687   1.677   4.900 -0.1722  0.1514 -0.2120
10834TIP3    H153917   2.654   1.592   4.927 -1.5365  0.2562 -1.4619
10834TIP3    H253918   2.627   1.740   4.940  0.5826  0.5350  0.3589
10835TIP3   OH253919   1.244   5.191   0.875 -0.1945 -0.4785  0.2056
10835TIP3    H153920   1.248   5.152   0.788  1.2339 -3.0065  1.3030
10835TIP3    H253921   1.288   5.276   0.865 -0.9101 -0.2856 -1.6981
10836TIP3   OH253922   0.674   6.388   2.724 -0.1051  0.1258  0.1191
10836TIP3    H153923   0.614   6.449   2.768  1.1446  2.0545 -0.7121
10836TIP3    H253924   0.632   6.302   2.733 -0.6783  0.6198  3.6903
10837TIP3   OH253925   6.094   6.218   5.759 -0.0688 -0.0615  0.5069
10837TIP3    H153926   6.060   6.128   5.759  0.2877 -0.2230 -1.3097
10837TIP3    H253927   6.035   6.266   5.702 -0.7428  1.1060  2.1065
10838TIP3   OH253928   6.232   4.215  14.270  0.6721  0.2033  0.6607
10838TIP3    H153929   6.190   4.134  14.298 -0.1133  0.4840  0.2976
10838TIP3    H253930   6.242   4.206  14.175 -0.7090  1.1103  0.4026
10839TIP3   OH253931   5.698   5.853  15.734  0.0018  0.0974  0.5802
10839TIP3    H153932   5.697   5.948  15.737 -0.7001  0.0778  2.1926
10839TIP3    H253933   5.689   5.831  15.641 -1.8291  1.5951  0.3647
10840TIP3   OH253934   6.788   4.949   5.524  0.7403  0.6599 -0.3378
10840TIP3    H153935   6.795   5.044   5.510 -0.0616  1.2904  2.8610
10840TIP3    H253936   6.877   4.922   5.547  0.7518  0.8368 -0.1694
10841TIP3   OH253937   6.784   3.732  12.039  0.2540  0.4734 -0.4520
10841TIP3    H153938   6.829   3.690  11.965  0.0642 -2.3699  0.9243
10841TIP3    H253939   6.698   3.690  12.040  0.2370  0.5167  1.3030
10842TIP3   OH253940   4.424   2.294   2.621 -0.3919 -0.3841 -0.0189
10842TIP3    H153941   4.422   2.205   2.588 -1.1418 -0.4892  0.2737
10842TIP3    H253942   4.514   2.323   2.609  0.0063 -1.3932  0.4403
10843TIP3   OH253943   2.655   2.703  12.554  0.2281  0.1592 -0.2023
10843TIP3    H153944   2.690   2.616  12.575  1.3277  0.2004 -1.7214
10843TIP3    H253945   2.577   2.685  12.501  1.8385  0.0148 -2.6959
10844TIP3   OH253946   2.484   4.789   5.697 -0.3237  0.0134 -0.0444
10844TIP3    H153947   2.514   4.699   5.697 -1.2474 -0.3131  0.8122
10844TIP3    H253948   2.388   4.783   5.692 -0.4423  0.9126  0.7193
10845TIP3   OH253949   1.317   0.274  12.066  0.0504  0.1815  0.1844
10845TIP3    H153950   1.314   0.254  11.973  0.8735  2.0055 -0.2857
10845TIP3    H253951   1.339   0.191  12.108  1.2200 -0.3646 -1.4135
10846TIP3   OH253952   4.509   6.025   0.456 -0.0474 -0.0022 -0.2880
10846TIP3    H153953   4.521   5.967   0.381  0.1953 -1.3117  0.7332
10846TIP3    H253954   4.524   6.113   0.421 -0.3012 -0.5514 -1.8437
10847TIP3   OH253955   1.766   5.586   0.205  0.2748 -0.4025 -0.2526
10847TIP3    H153956   1.821   5.583   0.126 -0.8403  0.6223 -1.1087
10847TIP3    H253957   1.807   5.653   0.260 -0.3142  0.6612 -1.0720
10848TIP3   OH253958   4.782   4.330  11.441 -0.7302 -0.3229  0.4154
10848TIP3    H153959   4.867   4.292  11.418 -0.5757  0.9219 -1.2880
10848TIP3    H253960   4.717   4.267  11.410 -0.4424 -0.2546 -0.3535
10849TIP3   OH253961   5.122   6.125   0.468  0.0530  0.7720 -0.0756
10849TIP3    H153962   5.060   6.165   0.530 -2.9790 -1.6649 -1.2845
10849TIP3    H253963   5.204   6.120   0.517 -1.1895  2.2679  2.4076
10850TIP3   OH253964   1.352   6.532   0.333 -0.3677  0.0085  0.1543
10850TIP3    H153965   1.345   6.579   0.250  0.6186  0.7390  0.4587
10850TIP3    H253966   1.387   6.598   0.394  2.1652 -1.3916  0.3394
10851TIP3   OH253967   0.189   1.195  16.968  0.4167  0.0077 -0.1199
10851TIP3    H153968   0.097   1.193  16.942  0.6768  0.1371 -1.0703
10851TIP3    H253969   0.237   1.168  16.890  1.1050 -1.6255  0.8066
10852TIP3   OH253970   3.410   0.072  14.621 -0.0006 -0.2176 -0.0566
10852TIP3    H153971   3.421   0.072  14.716 -1.1268  0.1362  0.0828
10852TIP3    H253972   3.333   0.017  14.606 -0.1030  0.1015 -0.7304
10853TIP3   OH253973   0.986   2.423   6.089 -0.2475 -0.2212 -0.0821
10853TIP3    H153974   1.024   2.396   6.172  0.7732 -0.0308 -0.4734
10853TIP3    H253975   1.037   2.499   6.063 -0.0896 -0.6959 -1.2145
10854TIP3   OH253976   1.107   1.525  15.975  0.5497 -0.3173 -0.0529
10854TIP3    H153977   1.052   1.599  16.002 -0.4355  0.3147 -3.3193
10854TIP3    H253978   1.057   1.448  16.000  0.0384  0.1805  0.5168
10855TIP3   OH253979   2.190   2.618   5.045  0.1934  0.0531 -0.0800
10855TIP3    H153980   2.108   2.633   4.998  0.0370  3.3808  1.0027
10855TIP3    H253981   2.181   2.668   5.126  2.4038 -1.4274  1.1969
10856TIP3   OH253982   0.156   0.657  12.420 -0.3129  0.2306 -0.2041
10856TIP3    H153983   0.144   0.738  12.468 -1.0115 -0.1749  0.3188
10856TIP3    H253984   0.231   0.674  12.363  0.7079  0.6451  1.2073
10857TIP3   OH253985   5.847   5.499   2.146 -1.1202  0.3887  0.6869
10857TIP3    H153986   5.927   5.486   2.196 -0.9212  0.6969  0.4548
10857TIP3    H253987   5.814   5.584   2.175 -1.0228  0.5515  0.3259
10858TIP3   OH253988   4.549   5.453   1.500  0.0494  0.3777  0.2204
10858TIP3    H153989   4.549   5.482   1.409 -1.1400 -1.7413 -0.5255
10858TIP3    H253990   4.610   5.379   1.501  0.1906  0.4927  1.1991
10859TIP3   OH253991   6.357   4.454  12.039 -0.1115  0.2677 -0.6050
10859TIP3    H153992   6.312   4.418  11.962 -0.7268 -1.3756  0.4602
10859TIP3    H253993   6.304   4.424  12.113  1.6101  0.0105  0.5802
10860TIP3   OH253994   6.682   1.104   5.166 -0.6086 -0.4999 -0.1025
10860TIP3    H153995   6.673   1.157   5.087 -1.1656 -0.8916 -0.3080
10860TIP3    H253996   6.766   1.060   5.155  0.1770  0.8222  0.3768
10861TIP3   OH253997   1.220   6.115  11.914 -0.7046 -0.0464  0.3734
10861TIP3    H153998   1.284   6.182  11.937 -0.7438  0.8478 -1.8495
10861TIP3    H253999   1.271   6.036  11.897 -0.3573  0.2146  0.2058
10862TIP3   OH254000   1.826   3.705  11.001 -0.0597 -0.1827  0.1441
10862TIP3    H154001   1.806   3.643  10.930  0.1644  1.6483 -1.5851
10862TIP3    H254002   1.759   3.687  11.068  0.6827 -3.0413  0.2688
10863TIP3   OH254003   4.475   0.294   2.689 -0.2351 -0.1630  0.5417
10863TIP3    H154004   4.559   0.255   2.711 -0.3720 -0.6990  0.1211
10863TIP3    H254005   4.457   0.265   2.600 -0.1709  1.1602  0.0778
10864TIP3   OH254006   0.573   4.308  14.935 -0.4068  0.1812 -0.0039
10864TIP3    H154007   0.564   4.375  14.867  0.8321  2.1756  1.6617
10864TIP3    H254008   0.652   4.261  14.912  0.7815  1.7372  0.6662
10865TIP3   OH254009   1.803   3.489  11.556 -0.1581 -0.4197 -0.0584
10865TIP3    H154010   1.831   3.415  11.611 -0.0285 -0.4089 -0.1085
10865TIP3    H254011   1.788   3.451  11.470 -0.0467 -0.3811 -0.0960
10866TIP3   OH254012   2.552   6.254  10.371 -0.2700  0.8790 -0.5137
10866TIP3    H154013   2.521   6.332  10.325 -0.8644  0.1628 -1.3704
10866TIP3    H254014   2.642   6.242  10.339  0.2960  1.9299  0.6080
10867TIP3   OH254015   0.120   3.271   0.346 -0.8098 -0.0230 -0.3745
10867TIP3    H154016   0.202   3.222   0.338 -0.1665  1.0698 -0.8186
10867TIP3    H254017   0.131   3.322   0.427  0.7469  3.1854 -2.3887
10868TIP3   OH254018   1.906   6.585  10.906  0.0632  0.2186  0.6770
10868TIP3    H154019   1.975   6.581  10.840 -0.0428 -1.2904  0.6352
10868TIP3    H254020   1.838   6.525  10.874  0.3518 -1.1770  2.5162
10869TIP3   OH254021   3.380   1.509  13.590  0.5333  0.4760 -0.2238
10869TIP3    H154022   3.415   1.598  13.584 -1.6776  1.4607  0.6726
10869TIP3    H254023   3.291   1.520  13.622 -0.3047 -1.9760 -1.4581
10870TIP3   OH254024   4.853   4.415   2.552  0.6866 -0.5092  0.0797
10870TIP3    H154025   4.838   4.325   2.522 -2.2409 -0.1427  0.1276
10870TIP3    H254026   4.768   4.444   2.585  1.7491  2.0086  0.8890
10871TIP3   OH254027   3.154   4.434  12.434 -0.1215  0.1568 -0.0898
10871TIP3    H154028   3.225   4.478  12.482 -0.4970 -0.1431  0.7570
10871TIP3    H254029   3.096   4.505  12.406  2.2438  0.8953 -3.9508
10872TIP3   OH254030   5.936   5.984   1.839  0.8020 -0.3065 -0.6195
10872TIP3    H154031   6.016   5.956   1.795  0.6190 -0.9182 -0.5828
10872TIP3    H254032   5.866   5.963   1.777  0.7540  1.2979 -1.1341
10873TIP3   OH254033   3.964   2.151   4.787  0.2564 -0.5368 -0.0405
10873TIP3    H154034   3.927   2.193   4.864  2.0757 -0.5265  0.8967
10873TIP3    H254035   3.897   2.089   4.759 -0.3163 -0.8276  1.8047
10874TIP3   OH254036   1.802   5.921  14.219 -0.4917  0.5806 -0.1013
10874TIP3    H154037   1.868   5.983  14.249  1.3184 -0.2007 -2.1779
10874TIP3    H254038   1.754   5.967  14.151  1.9797 -0.5945 -2.8981
10875TIP3   OH254039   3.871   1.739   4.962 -0.3601  0.1507  0.1454
10875TIP3    H154040   3.796   1.682   4.948  0.0204 -0.3219  0.0366
10875TIP3    H254041   3.938   1.682   4.998  0.0954  0.4832 -0.1721
10876TIP3   OH254042   4.739   1.478   3.519 -0.4923 -0.5783 -0.1419
10876TIP3    H154043   4.756   1.572   3.515 -1.7431 -0.2985  0.3791
10876TIP3    H254044   4.823   1.439   3.543 -0.4781  0.6560  2.1288
10877TIP3   OH254045   6.028   6.085   0.966  0.1588  0.0554 -0.2894
10877TIP3    H154046   5.952   6.069   1.022 -0.3485 -0.0741 -1.0091
10877TIP3    H254047   6.090   6.016   0.991  0.7147  1.1121  1.4374
10878TIP3   OH254048   4.098   0.661   4.997  0.0026  0.0733 -0.1250
10878TIP3    H154049   4.159   0.611   4.943  0.6525  0.4649  0.2434
10878TIP3    H254050   4.056   0.721   4.935  0.7602  0.5328 -0.2063
10879TIP3   OH254051   0.588   5.180  11.991 -0.3943  0.1170  0.5665
10879TIP3    H154052   0.599   5.244  12.062  1.1682  0.4651  0.0551
10879TIP3    H254053   0.635   5.102  12.021 -0.2591  0.0474  0.1813
10880TIP3   OH254054   0.140   6.001  11.731  0.3526  0.1292 -0.0242
10880TIP3    H154055   0.196   6.077  11.718  1.3176 -0.3091  1.2607
10880TIP3    H254056   0.051   6.033  11.718  0.8102  1.2320 -0.4850
10881TIP3   OH254057   2.082   4.174   2.233 -0.0774  0.3544  0.0665
10881TIP3    H154058   2.039   4.260   2.233  0.6595  0.7698 -1.7273
10881TIP3    H254059   2.103   4.158   2.325  1.0155  2.7763  0.3352
10882TIP3   OH254060   0.168   5.105   0.686 -0.4648  0.5344 -0.5131
10882TIP3    H154061   0.236   5.059   0.735 -2.5337 -0.8934  1.2134
10882TIP3    H254062   0.215   5.165   0.629  2.3607 -2.3967 -1.5439
10883TIP3   OH254063   3.731   3.243   0.383  0.1741 -0.3625  0.2608
10883TIP3    H154064   3.815   3.204   0.407 -0.2215 -1.9257 -0.8168
10883TIP3    H254065   3.691   3.266   0.467  1.2612 -0.4623  0.8228
10884TIP3   OH254066   5.125   1.907  14.284  0.3104  0.2799  0.1265
10884TIP3    H154067   5.056   1.880  14.344  0.7240 -0.7045  0.1792
10884TIP3    H254068   5.088   1.896  14.196  0.3115 -0.0101  0.1614
10885TIP3   OH254069   0.880   6.755   4.686  0.5202 -0.1670  0.2773
10885TIP3    H154070   0.825   6.803   4.623 -1.8588 -0.6767  1.8236
10885TIP3    H254071   0.873   6.806   4.766  1.1359 -1.0426  0.9003
10886TIP3   OH254072   0.038   0.424   4.402 -0.3514 -0.1213  0.3829
10886TIP3    H154073   0.133   0.425   4.398 -0.2790  1.5251  1.2371
10886TIP3    H254074   0.010   0.461   4.318 -0.1946  0.2095  0.4727
10887TIP3   OH254075   1.581   1.327   5.531  0.1159 -0.6321 -0.5944
10887TIP3    H154076   1.621   1.285   5.607 -1.6608 -1.1811  0.0941
10887TIP3    H254077   1.549   1.254   5.478  0.3881 -0.2201 -1.3381
10888TIP3   OH254078   6.408   5.960  14.735  0.1590 -0.4062  0.1127
10888TIP3    H154079   6.472   5.990  14.670 -0.9755 -0.4870 -1.0752
10888TIP3    H254080   6.451   5.886  14.779  0.9277 -0.3801 -0.5743
10889TIP3   OH254081   4.214   4.928   5.821 -0.6369  0.3739  0.3974
10889TIP3    H154082   4.215   4.848   5.873  0.7152  0.0906 -0.0241
10889TIP3    H254083   4.214   4.897   5.730  1.6688  0.7774  0.1929
10890TIP3   OH254084   4.822   3.586   1.687  0.2754  0.2979  0.1208
10890TIP3    H154085   4.779   3.670   1.706 -1.5088 -0.7727  1.0301
10890TIP3    H254086   4.818   3.538   1.769  1.2427 -0.7043 -0.4007
10891TIP3   OH254087   6.451   3.908  11.950  0.0896 -0.5270  0.1314
10891TIP3    H154088   6.465   3.911  11.855 -0.2833  1.7946  0.0965
10891TIP3    H254089   6.487   3.823  11.977  1.0340 -0.8442 -1.9440
10892TIP3   OH254090   1.561   2.116   3.093  0.0501  0.1993 -0.3875
10892TIP3    H154091   1.638   2.079   3.051 -0.3194  1.0039 -1.8432
10892TIP3    H254092   1.581   2.114   3.187  1.3512 -0.6555 -0.6653
10893TIP3   OH254093   0.865   3.062   0.713  0.3312 -0.5875  0.1222
10893TIP3    H154094   0.890   3.094   0.800  0.8299  0.4385 -0.3901
10893TIP3    H254095   0.771   3.042   0.721  0.0646  0.7417  0.5481
10894TIP3   OH254096   2.291   2.172   1.672 -0.3834 -0.0564 -0.1069
10894TIP3    H154097   2.374   2.171   1.719 -0.7983  0.2484  0.6396
10894TIP3    H254098   2.285   2.259   1.634 -0.7085  0.1753  0.4696
10895TIP3   OH254099   3.847   6.066  12.366  0.5061 -0.6695 -0.1429
10895TIP3    H154100   3.881   6.022  12.444 -1.6331 -1.8816  0.2048
10895TIP3    H254101   3.809   6.147  12.398  0.3715 -0.7731 -0.0365
10896TIP3   OH254102   4.029   3.179  13.308  0.3472 -0.5312 -0.0768
10896TIP3    H154103   3.995   3.128  13.382  0.9102  2.6587  2.6188
10896TIP3    H254104   3.959   3.240  13.287  0.1126 -1.5295 -2.4816
10897TIP3   OH254105   2.228   4.195   4.892  0.3745 -0.6804  0.4732
10897TIP3    H154106   2.284   4.253   4.944  0.7166 -0.6069  0.0235
10897TIP3    H254107   2.248   4.107   4.925 -1.3204 -0.4612  2.2994
10898TIP3   OH254108   0.518   6.495   0.823  0.0542 -0.0978  0.3021
10898TIP3    H154109   0.554   6.412   0.794  1.8318  0.6897  0.1106
10898TIP3    H254110   0.523   6.551   0.745 -0.4276  0.3926  0.6209
10899TIP3   OH254111   2.853   5.622   3.180  0.2019 -0.0757 -0.4450
10899TIP3    H154112   2.847   5.672   3.099 -1.2834 -1.2650 -1.1233
10899TIP3    H254113   2.776   5.648   3.231  0.9563  0.4323  0.4772
10900TIP3   OH254114   3.514   0.564   0.068 -0.3580  0.1488 -0.0325
10900TIP3    H154115   3.539   0.566  -0.024 -0.6222  0.4943 -0.0981
10900TIP3    H254116   3.547   0.646   0.104  0.8596 -0.5384  0.4809
10901TIP3   OH254117   1.592   6.524   3.607 -0.1604  0.7131  0.1190
10901TIP3    H154118   1.647   6.462   3.559 -0.1871 -0.6259  1.7380
10901TIP3    H254119   1.611   6.609   3.567  1.3651 -0.0446 -0.8492
10902TIP3   OH254120   6.137   4.721  14.759 -0.5620  0.6318 -0.1769
10902TIP3    H154121   6.175   4.679  14.836 -1.4802 -0.6978 -0.4183
10902TIP3    H254122   6.068   4.662  14.730  0.1276  0.7831 -2.3860
10903TIP3   OH254123   1.792   5.543  15.061  0.3924 -0.2202  0.3136
10903TIP3    H154124   1.883   5.550  15.031 -0.0012 -1.0630 -1.1937
10903TIP3    H254125   1.799   5.510  15.150  1.5901  0.7832  0.6233
10904TIP3   OH254126   3.604   5.942  16.856  0.1154 -0.0040 -0.0760
10904TIP3    H154127   3.573   6.007  16.794 -3.1628 -2.4691 -1.3367
10904TIP3    H254128   3.581   5.977  16.942 -2.8421  0.0694 -0.7948
10905TIP3   OH254129   1.142   1.453  11.595 -0.2474  0.3021  0.1258
10905TIP3    H154130   1.216   1.512  11.612 -0.5880  1.2112 -1.2882
10905TIP3    H254131   1.183   1.374  11.558  0.0634  0.6850 -0.3765
10906TIP3   OH254132   1.312   0.818  16.325 -0.0521  0.0707  0.3221
10906TIP3    H154133   1.326   0.862  16.241 -0.6557 -0.9287 -0.3211
10906TIP3    H254134   1.249   0.749  16.305 -1.8488  1.1202  2.0249
10907TIP3   OH254135   0.057   0.677   2.034  0.0796 -0.8650  0.1167
10907TIP3    H154136   0.002   0.654   2.110 -0.2415 -0.1838  0.1082
10907TIP3    H254137   0.094   0.762   2.058  0.9232 -1.1923  0.0002
10908TIP3   OH254138   1.569   6.177   2.968 -0.3553 -0.1096 -0.4728
10908TIP3    H154139   1.625   6.102   2.946 -0.2768 -0.9340  2.2202
10908TIP3    H254140   1.570   6.181   3.064 -1.2333  2.7031 -0.4846
10909TIP3   OH254141   6.335   6.049  15.369  0.8186  0.1168  0.3504
10909TIP3    H154142   6.272   5.994  15.321  0.9576  0.0688  0.2226
10909TIP3    H254143   6.304   6.139  15.354 -1.1797  0.0070  2.9900
10910TIP3   OH254144   6.364   0.149  15.368 -0.0978 -0.0021 -0.1269
10910TIP3    H154145   6.304   0.091  15.320 -0.8087  2.0629 -1.8855
10910TIP3    H254146   6.451   0.122  15.341 -0.4633  0.4925 -1.8908
10911TIP3   OH254147   3.685   4.678   1.710 -0.3279  0.1213 -0.0215
10911TIP3    H154148   3.751   4.671   1.641 -0.5981  1.9209 -0.5199
10911TIP3    H254149   3.632   4.754   1.686 -0.0205  1.2543  2.4844
10912TIP3   OH254150   2.772   4.558  11.542  0.0159  0.0773  0.1007
10912TIP3    H154151   2.855   4.596  11.572  0.9246 -0.8519 -1.1233
10912TIP3    H254152   2.734   4.625  11.485 -0.4396  0.7840  1.2010
10913TIP3   OH254153   4.473   3.824   5.772 -0.5266  0.7694  0.2572
10913TIP3    H154154   4.464   3.818   5.677  1.8399 -1.0084  0.0543
10913TIP3    H254155   4.389   3.793   5.806 -1.4450  1.5376 -1.2467
10914TIP3   OH254156   2.624   6.653   5.563  0.4104  0.2838  0.1378
10914TIP3    H154157   2.602   6.668   5.655  1.8566  3.6110  0.0900
10914TIP3    H254158   2.719   6.644   5.563  0.4202  0.3284 -1.0253
10915TIP3   OH254159   2.087   3.224  12.225 -0.4008  0.1166 -0.5137
10915TIP3    H154160   2.112   3.165  12.153  0.4926  1.7660 -1.6320
10915TIP3    H254161   2.098   3.312  12.188 -0.5896  1.0089  1.4534
10916TIP3   OH254162   2.780   5.982  15.036  0.4609  0.6885  0.2911
10916TIP3    H154163   2.686   5.995  15.027  0.4639  0.5943  0.1167
10916TIP3    H254164   2.808   5.947  14.951  0.8171  1.6495 -0.0083
10917TIP3   OH254165   1.220   4.056  14.566 -0.4007 -0.0743 -0.3983
10917TIP3    H154166   1.192   4.110  14.639  0.2676  0.9508 -0.8866
10917TIP3    H254167   1.139   4.018  14.532 -0.7662 -0.1721  0.5591
10918TIP3   OH254168   6.514   6.694  13.159  0.0205 -0.6139 -0.2506
10918TIP3    H154169   6.597   6.740  13.169 -1.5509  3.2513 -2.7347
10918TIP3    H254170   6.520   6.654  13.072 -1.2505  1.3557 -1.3306
10919TIP3   OH254171   1.806   2.859  15.116  0.8274 -0.2744  0.1196
10919TIP3    H154172   1.862   2.782  15.108 -1.9327 -2.3734 -0.5226
10919TIP3    H254173   1.807   2.898  15.028  2.9592  1.0870  0.6727
10920TIP3   OH254174   0.106   1.184  12.592 -0.1543 -0.6013  0.0688
10920TIP3    H154175   0.060   1.114  12.639  1.5117 -4.2618 -3.1496
10920TIP3    H254176   0.041   1.217  12.529 -0.5585 -0.1453  0.7115
10921TIP3   OH254177   0.119   5.260   4.654 -0.2688 -0.1806  0.1866
10921TIP3    H154178   0.184   5.313   4.701 -0.0894  0.0959 -0.3672
10921TIP3    H254179   0.135   5.170   4.684  2.0324 -0.5258 -1.7461
10922TIP3   OH254180   1.880   2.162  14.130  0.0559  0.5055 -0.9396
10922TIP3    H154181   1.932   2.086  14.102  2.1389  1.4140  0.2675
10922TIP3    H254182   1.944   2.232  14.141 -1.6706  2.1534 -0.9149
10923TIP3   OH254183   3.559   4.606  11.668  0.2991  0.2637  0.5987
10923TIP3    H154184   3.628   4.625  11.605 -0.0644  0.3228  0.2068
10923TIP3    H254185   3.575   4.516  11.695  0.5940  0.3149  0.5980
10924TIP3   OH254186   5.998   3.751  14.464 -0.4474  0.0523  0.6302
10924TIP3    H154187   5.975   3.786  14.550  0.0925 -0.3940  0.9600
10924TIP3    H254188   6.075   3.801  14.438 -0.7972  0.4062  0.2573
10925TIP3   OH254189   5.646   5.336  15.891  0.1840  0.1238  0.8826
10925TIP3    H154190   5.589   5.280  15.838 -0.0836  2.2251 -1.2227
10925TIP3    H254191   5.720   5.356  15.834 -0.5226  3.1741  0.8957
10926TIP3   OH254192   0.356   3.850   0.975  0.4096 -0.1937 -0.2720
10926TIP3    H154193   0.368   3.895   1.059 -0.2852 -2.8382  1.3510
10926TIP3    H254194   0.275   3.887   0.940  0.5350  0.7243  0.3478
10927TIP3   OH254195   4.151   6.092   1.937 -0.1550 -0.3812  0.2827
10927TIP3    H154196   4.144   6.057   1.848  2.2497 -2.5680  0.8254
10927TIP3    H254197   4.061   6.112   1.962 -0.8780  0.5171 -2.6854
10928TIP3   OH254198   5.066   3.799  16.211 -0.7647  0.1143 -0.1903
10928TIP3    H154199   5.083   3.715  16.254 -0.6462 -0.5064 -1.4098
10928TIP3    H254200   5.005   3.844  16.270 -2.6499 -1.7726 -0.5671
10929TIP3   OH254201   2.523   1.693  17.174 -0.5576 -0.0593  0.0443
10929TIP3    H154202   2.612   1.713  17.147 -1.2272 -0.2477 -2.6447
10929TIP3    H254203   2.468   1.752  17.122 -2.0171 -0.1702  1.3897
10930TIP3   OH254204   4.990   5.299   0.130  0.2319  0.3712  0.1902
10930TIP3    H154205   5.011   5.372   0.188 -0.5864  0.5528  0.2727
10930TIP3    H254206   4.974   5.226   0.190 -1.7632  0.8425  0.3024
10931TIP3   OH254207   2.494   6.731  13.397  0.2969 -0.8496  0.2571
10931TIP3    H154208   2.589   6.729  13.415  1.1034  1.1672 -2.9893
10931TIP3    H254209   2.457   6.776  13.473  2.2001 -0.0900  0.8077
10932TIP3   OH254210   3.822   3.518  13.522  0.4764 -0.0182 -0.4408
10932TIP3    H154211   3.749   3.576  13.545  0.4383 -0.4342  0.5481
10932TIP3    H254212   3.806   3.438  13.573  1.4437 -0.2349 -0.4611
10933TIP3   OH254213   5.466   3.592   5.741 -0.2346 -0.4225  0.4681
10933TIP3    H154214   5.401   3.660   5.757  1.3392  1.4363 -0.5589
10933TIP3    H254215   5.439   3.552   5.659 -0.1933  0.2106  0.1417
10934TIP3   OH254216   2.403   2.982   3.069  0.6782 -0.2662 -0.3067
10934TIP3    H154217   2.429   2.918   3.136 -0.4548 -1.1206 -0.6615
10934TIP3    H254218   2.479   2.987   3.011  1.3075 -0.2467  0.4993
10935TIP3   OH254219   3.161   4.224   3.464 -0.2885  0.4513  0.7283
10935TIP3    H154220   3.211   4.302   3.438 -2.0231  1.3478 -0.1152
10935TIP3    H254221   3.177   4.161   3.393  1.5701 -0.2392  1.6883
10936TIP3   OH254222   3.620   5.936  12.645  0.3716  0.2881  0.3240
10936TIP3    H154223   3.568   5.896  12.575 -0.1245  0.2622  0.7054
10936TIP3    H254224   3.625   5.868  12.712 -1.1455  1.1114  1.3193
10937TIP3   OH254225   5.801   6.372   5.876  0.3210  0.1150  0.4567
10937TIP3    H154226   5.869   6.438   5.885  0.3304  0.2373 -0.3966
10937TIP3    H254227   5.846   6.289   5.893  0.7116  0.1889 -0.1505
10938TIP3   OH254228   2.417   2.120  10.791  0.9458 -0.1051  0.0543
10938TIP3    H154229   2.342   2.133  10.733  1.4456  0.7677 -0.4170
10938TIP3    H254230   2.444   2.029  10.775  2.7193  0.8186 -3.1328
10939TIP3   OH254231   2.725   1.679   6.460  0.4544  0.5438 -0.2740
10939TIP3    H154232   2.754   1.755   6.410 -1.6161  1.4714 -0.1698
10939TIP3    H254233   2.658   1.713   6.518  0.8469 -1.0307  1.1967
10940TIP3   OH254234   2.887   6.484   5.516 -0.3333 -0.2048 -0.6726
10940TIP3    H154235   2.971   6.528   5.507 -0.1894 -0.2667  0.3226
10940TIP3    H254236   2.899   6.423   5.589 -2.0377  1.6997  1.3381
10941TIP3   OH254237   3.491   3.748   4.958 -0.1859 -0.2514 -0.2195
10941TIP3    H154238   3.414   3.691   4.951  0.0254 -0.6684  0.7199
10941TIP3    H254239   3.463   3.821   5.012  0.5758 -1.3654  1.8019
10942TIP3   OH254240   1.287   1.200  11.101  0.6828 -0.0981 -0.8552
10942TIP3    H154241   1.253   1.289  11.110  1.4355  0.0281  1.0336
10942TIP3    H254242   1.211   1.149  11.070 -0.1846  0.8826 -0.3995
10943TIP3   OH254243   5.788   1.047   2.021 -0.0945 -0.2815 -0.2351
10943TIP3    H154244   5.868   1.082   2.059  1.0565 -0.9391 -1.9337
10943TIP3    H254245   5.723   1.116   2.034  1.0939  0.8396 -0.0258
10944TIP3   OH254246   0.386   0.059   5.567  0.4287  0.2786  0.0496
10944TIP3    H154247   0.466   0.034   5.614  0.6802 -0.0915 -0.5528
10944TIP3    H254248   0.317   0.007   5.607  0.4800  0.6084  0.5826
10945TIP3   OH254249   2.889   4.315   1.954  0.1003  0.3044 -0.7550
10945TIP3    H154250   2.890   4.348   2.044  0.5083 -0.7784 -0.3406
10945TIP3    H254251   2.978   4.328   1.923  0.7113 -1.7916 -0.0285
10946TIP3   OH254252   2.868   6.566  12.858 -0.6130 -0.4776 -0.0140
10946TIP3    H154253   2.880   6.514  12.937  2.2164 -0.0791 -0.0786
10946TIP3    H254254   2.947   6.620  12.852 -1.9677  1.5141 -1.6652
10947TIP3   OH254255   1.669   0.111  13.784 -0.3520  0.0266 -0.3524
10947TIP3    H154256   1.764   0.115  13.796 -0.3761  0.2079 -0.2107
10947TIP3    H254257   1.649   0.017  13.785 -0.4055  0.0217  1.5396
10948TIP3   OH254258   5.974   4.773   3.173 -0.1440 -0.1833  0.0506
10948TIP3    H154259   5.927   4.698   3.210 -1.3004  0.1029 -0.7725
10948TIP3    H254260   5.989   4.831   3.248 -0.9424 -0.3811  0.3806
10949TIP3   OH254261   0.513   5.237  11.241 -0.0452 -0.1107  0.2135
10949TIP3    H154262   0.528   5.321  11.199  0.3104  0.1268  0.8027
10949TIP3    H254263   0.547   5.248  11.330  3.7187 -2.0356 -0.7536
10950TIP3   OH254264   6.153   2.787   2.073 -0.4713  0.0762  0.2636
10950TIP3    H154265   6.089   2.853   2.098 -0.9818 -0.4210  0.2758
10950TIP3    H254266   6.136   2.771   1.980  1.6366  2.1700 -0.5771
10951TIP3   OH254267   1.127   2.124   5.363 -0.1513  0.1246 -0.0671
10951TIP3    H154268   1.059   2.094   5.303 -0.2298  2.1576 -1.0883
10951TIP3    H254269   1.130   2.219   5.350  0.1058  0.6275  2.8902
10952TIP3   OH254270   3.075   6.769   0.017 -0.4553 -0.2810 -0.0254
10952TIP3    H154271   3.156   6.795  -0.028 -0.4074 -1.4491 -0.6547
10952TIP3    H254272   3.097   6.774   0.110 -0.7101  2.6691 -0.0265
10953TIP3   OH254273   2.802   0.498   0.717  0.1110  0.2374  0.0761
10953TIP3    H154274   2.894   0.495   0.744 -0.6124  0.1034  2.8246
10953TIP3    H254275   2.766   0.575   0.760 -1.1809  0.0553 -0.6164
10954TIP3   OH254276   0.147   4.342  12.166  0.2227  0.1381 -0.1605
10954TIP3    H154277   0.195   4.275  12.215  1.0506 -0.5152 -1.7735
10954TIP3    H254278   0.055   4.326  12.186  0.5331 -0.1297  1.1229
10955TIP3   OH254279   6.698   5.906   5.627  0.4217  0.0619 -0.1340
10955TIP3    H154280   6.618   5.855   5.635 -0.2790  0.9246 -1.2842
10955TIP3    H254281   6.721   5.901   5.534  0.0242  2.2234 -0.4076
10956TIP3   OH254282   4.408   5.736  11.998  0.0332  0.1440  0.1633
10956TIP3    H154283   4.360   5.666  12.043  0.1468 -0.3058 -0.3998
10956TIP3    H254284   4.396   5.813  12.054 -1.2896  0.0285  0.0631
10957TIP3   OH254285   0.744   3.083  14.870 -0.6064 -0.2754  0.8988
10957TIP3    H154286   0.691   3.130  14.934 -1.0750  0.1595  0.2118
10957TIP3    H254287   0.827   3.066  14.914 -0.1024  1.9220  0.8949
10958TIP3   OH254288   2.853   1.593   1.499 -0.0253 -0.4788  0.0814
10958TIP3    H154289   2.861   1.585   1.404  1.5651 -2.4112  0.3268
10958TIP3    H254290   2.919   1.659   1.523 -0.0064 -0.4362 -0.0864
10959TIP3   OH254291   6.519   4.737   2.216 -0.3585 -0.3152 -0.3564
10959TIP3    H154292   6.449   4.718   2.154 -0.0470 -1.3287 -0.4170
10959TIP3    H254293   6.592   4.766   2.161  0.0289 -1.5399 -0.5187
10960TIP3   OH254294   0.381   1.508   0.170 -0.5595  0.4627 -0.5649
10960TIP3    H154295   0.461   1.456   0.160  0.5685  1.9789  0.1649
10960TIP3    H254296   0.327   1.483   0.095  1.4430  0.8779 -2.2476
10961TIP3   OH254297   2.002   3.295  11.627 -0.3242 -0.1209  0.2611
10961TIP3    H154298   1.996   3.199  11.633  0.1057 -0.1017  1.1545
10961TIP3    H254299   2.090   3.310  11.591  0.0209 -0.0545  1.0908
10962TIP3   OH254300   3.919   3.495  13.942 -0.1564  0.1112 -0.0608
10962TIP3    H154301   3.996   3.524  13.892  0.0880 -1.0103 -0.3590
10962TIP3    H254302   3.844   3.526  13.891  0.0706  1.8738  0.6199
10963TIP3   OH254303   4.807   3.183  11.098  0.4229  0.5687 -0.1782
10963TIP3    H154304   4.737   3.248  11.096  1.9858  2.3463 -2.9951
10963TIP3    H254305   4.768   3.105  11.059 -0.6160  0.7370  0.4779
10964TIP3   OH254306   6.703   5.321  16.934  0.2841 -0.1133  0.5594
10964TIP3    H154307   6.742   5.307  16.848 -3.2774 -0.9749 -1.0659
10964TIP3    H254308   6.736   5.248  16.987 -0.8146 -2.1908 -1.4174
10965TIP3   OH254309   0.208   6.427   4.610 -0.4217 -0.2172 -0.1745
10965TIP3    H154310   0.171   6.486   4.676 -0.4731 -1.4103  0.8988
10965TIP3    H254311   0.294   6.404   4.644 -0.6867 -1.3098 -0.2159
10966TIP3   OH254312   6.680   3.489   2.636 -0.3527 -0.0070  0.2822
10966TIP3    H154313   6.673   3.558   2.570  0.2070  0.9289  1.1643
10966TIP3    H254314   6.632   3.415   2.599 -1.7766  1.1599 -0.2714
10967TIP3   OH254315   5.432   5.549  12.760  0.1042 -0.2302  0.7809
10967TIP3    H154316   5.395   5.471  12.800  0.7954 -0.0418  1.8216
10967TIP3    H254317   5.525   5.546  12.783  0.4455  0.1054 -0.4736
10968TIP3   OH254318   0.926   4.972  13.062 -0.3990  0.3492  0.2463
10968TIP3    H154319   0.873   5.043  13.027  0.3674  2.3224  2.7729
10968TIP3    H254320   0.886   4.950  13.146  1.6241  0.5835  1.3474
10969TIP3   OH254321   1.794   3.818  17.109 -0.0138  0.1086 -0.0866
10969TIP3    H154322   1.704   3.787  17.115  0.2400 -0.5920  0.2039
10969TIP3    H254323   1.836   3.756  17.050  0.7722 -0.7798  1.3397
10970TIP3   OH254324   5.886   3.291  12.603 -0.1650  0.0662 -0.1078
10970TIP3    H154325   5.945   3.273  12.676  0.7442 -0.9435 -1.0535
10970TIP3    H254326   5.928   3.363  12.555 -0.3258  0.1518 -0.1238
10971TIP3   OH254327   2.900   4.538  11.907  0.3803 -0.2114 -0.1187
10971TIP3    H154328   2.914   4.484  11.985 -2.0845  0.8501  1.1858
10971TIP3    H254329   2.941   4.622  11.927 -0.7081  0.2372  0.3039
10972TIP3   OH254330   5.354   0.966  12.490 -0.1321  0.5736 -0.4092
10972TIP3    H154331   5.326   0.928  12.573  2.8073  0.4998  0.6909
10972TIP3    H254332   5.328   0.901  12.424  1.2850 -1.5885  0.9937
10973TIP3   OH254333   3.750   5.472   4.304  0.6661  0.1119  0.0441
10973TIP3    H154334   3.744   5.490   4.397  0.6594 -0.8552  0.2470
10973TIP3    H254335   3.842   5.454   4.288  0.7667  0.8492 -0.2607
10974TIP3   OH254336   3.448   1.705  17.010  0.0742 -0.4162  0.0802
10974TIP3    H154337   3.456   1.699  17.105 -0.0715  0.7218  0.1753
10974TIP3    H254338   3.377   1.644  16.989 -2.1720  1.6878  1.0967
10975TIP3   OH254339   5.538   0.584  10.888 -0.3867  0.3613  0.0275
10975TIP3    H154340   5.553   0.655  10.951  0.5643  1.1565 -1.0573
10975TIP3    H254341   5.625   0.546  10.873 -0.8811 -1.0557  0.5884
10976TIP3   OH254342   4.060   4.735   2.924  0.4070  0.0513  0.7893
10976TIP3    H154343   4.003   4.750   3.000 -0.6219 -0.6870  0.1926
10976TIP3    H254344   4.084   4.643   2.931 -0.3558 -0.2417 -0.1969
10977TIP3   OH254345   1.184   2.852  11.813 -0.5827  0.1926 -0.3748
10977TIP3    H154346   1.100   2.890  11.784 -0.4869  0.3690 -0.4201
10977TIP3    H254347   1.159   2.768  11.851 -0.7122 -0.0689 -1.0163
10978TIP3   OH254348   1.933   1.329  14.947 -0.1553 -0.3991  0.2185
10978TIP3    H154349   1.922   1.262  14.880 -2.1447 -0.9646  1.0354
10978TIP3    H254350   1.865   1.310  15.012 -1.8700  3.3066 -0.2731
10979TIP3   OH254351   3.936   3.533   2.261  0.5343 -0.2651  0.3670
10979TIP3    H154352   3.993   3.565   2.331 -0.8293  0.7676  1.0502
10979TIP3    H254353   3.852   3.518   2.303 -0.3302  0.3942 -1.0460
10980TIP3   OH254354   4.638   5.267   5.074  0.1206  0.2747  0.6492
10980TIP3    H154355   4.589   5.200   5.122 -0.3257 -0.8746 -1.2755
10980TIP3    H254356   4.729   5.238   5.076 -0.1723 -0.8804 -0.8174
10981TIP3   OH254357   5.737   0.762   2.120 -0.0449  0.2604  0.1651
10981TIP3    H154358   5.766   0.698   2.055 -0.5385 -0.0983  0.2904
10981TIP3    H254359   5.679   0.820   2.072 -0.8918 -0.3639  0.4037
10982TIP3   OH254360   3.508   0.402  11.372 -0.3143 -0.8569 -0.3639
10982TIP3    H154361   3.429   0.428  11.419 -0.3304 -3.4696  1.2754
10982TIP3    H254362   3.570   0.378  11.442  0.0556 -3.8439 -1.5987
10983TIP3   OH254363   4.135   3.651   1.946 -0.2844 -0.3399  0.4182
10983TIP3    H154364   4.118   3.685   1.858 -0.2384  2.1890  1.2931
10983TIP3    H254365   4.076   3.576   1.954 -0.0378 -0.8476 -1.8643
10984TIP3   OH254366   1.989   3.684  16.967  0.4995  0.2683 -0.3444
10984TIP3    H154367   2.065   3.712  16.915  0.1041 -0.9033 -1.6084
10984TIP3    H254368   2.017   3.602  17.006  0.3189  0.4820  0.2348
10985TIP3   OH254369   0.955   0.399   3.158 -0.1375  0.6947  0.4222
10985TIP3    H154370   0.989   0.310   3.174 -0.2918  0.6131  0.3039
10985TIP3    H254371   0.860   0.387   3.152 -0.0375  0.5327 -1.6830
10986TIP3   OH254372   1.848   6.337   5.967 -0.1089 -0.0646 -0.4010
10986TIP3    H154373   1.919   6.370   6.021 -0.3253  0.9537 -0.7152
10986TIP3    H254374   1.781   6.308   6.029  1.1614 -2.5313 -0.0425
10987TIP3   OH254375   2.735   0.825  11.066  0.2815  0.1500  0.8535
10987TIP3    H154376   2.695   0.817  10.980  1.2742 -0.3840  0.4228
10987TIP3    H254377   2.735   0.736  11.102 -0.4019  0.4137  1.5506
10988TIP3   OH254378   0.514   3.213   4.982  0.3545  0.2315  1.4751
10988TIP3    H154379   0.579   3.168   5.036 -0.2458 -1.3016  0.9572
10988TIP3    H254380   0.565   3.255   4.913  0.8876 -0.1514  1.6269
10989TIP3   OH254381   5.594   5.816  14.125  0.2223 -0.3275 -0.3433
10989TIP3    H154382   5.530   5.783  14.188 -0.1225  1.6529  0.4192
10989TIP3    H254383   5.598   5.748  14.058 -0.8678 -1.6070  0.8082
10990TIP3   OH254384   6.221   2.193  13.982  0.3665 -0.0695 -0.2366
10990TIP3    H154385   6.220   2.207  13.887  0.7858  2.2977  0.0419
10990TIP3    H254386   6.312   2.170  14.001  0.6392  0.9456 -0.2576
10991TIP3   OH254387   1.690   5.274  16.717  0.4231 -0.5206 -0.2435
10991TIP3    H154388   1.613   5.312  16.674  0.7653  0.0752 -0.3329
10991TIP3    H254389   1.714   5.200  16.661 -2.1816 -2.9967  1.6131
10992TIP3   OH254390   1.674   2.496   2.688 -0.4948 -0.5679  0.3359
10992TIP3    H154391   1.697   2.416   2.640 -0.9000  0.0996 -1.0233
10992TIP3    H254392   1.745   2.508   2.751  0.4651 -1.0530 -0.6246
10993TIP3   OH254393   2.172   4.429   3.695  0.3827  0.1782 -0.9253
10993TIP3    H154394   2.231   4.354   3.702  0.4624  0.3194  0.1186
10993TIP3    H254395   2.216   4.499   3.743 -0.1683  0.5860 -1.0042
10994TIP3   OH254396   2.119   3.502  12.139 -0.4489  0.1952  0.2457
10994TIP3    H154397   2.157   3.518  12.053 -1.2054  1.0644  0.0526
10994TIP3    H254398   2.092   3.589  12.169 -0.9105 -0.2067  1.0173
10995TIP3   OH254399   5.008   3.284   3.335 -0.2031  0.0167 -0.2529
10995TIP3    H154400   5.099   3.263   3.315 -0.3826 -0.5507 -0.4778
10995TIP3    H254401   4.966   3.295   3.250 -0.9246 -2.2108 -0.2562
10996TIP3   OH254402   0.050   1.882   2.948 -0.1957 -0.3704 -0.1067
10996TIP3    H154403  -0.015   1.840   2.892  2.5029 -1.8263 -2.4400
10996TIP3    H254404   0.063   1.821   3.021 -0.4517 -0.7550 -0.3822
10997TIP3   OH254405   0.118   2.406  14.186  0.0835 -0.1243 -0.2934
10997TIP3    H154406   0.032   2.364  14.179  0.8350 -1.7865  0.1467
10997TIP3    H254407   0.132   2.418  14.280  0.3662  0.0936 -0.3599
10998TIP3   OH254408   5.143   3.451  15.968  0.0022  0.0484  0.1632
10998TIP3    H154409   5.064   3.431  15.919 -0.1179  0.3055  0.2494
10998TIP3    H254410   5.207   3.477  15.901 -0.2763  0.7644  0.1718
10999TIP3   OH254411   5.912   0.714  13.761  0.0858 -0.0348  0.5821
10999TIP3    H154412   6.003   0.701  13.788  0.4506 -0.4551 -0.7420
10999TIP3    H254413   5.910   0.804  13.727 -0.3474  0.4637  1.8941
11000TIP3   OH254414   0.273   4.041   0.475  0.3321  0.4250  0.3559
11000TIP3    H154415   0.321   3.981   0.418  1.9227  0.4699  1.5924
11000TIP3    H254416   0.236   3.984   0.543  0.4308  0.6491  0.5971
11001TIP3   OH254417   5.867   5.033  16.361  0.0007 -0.0430 -0.1697
11001TIP3    H154418   5.811   5.086  16.304 -0.8379  0.5410  1.1483
11001TIP3    H254419   5.905   4.967  16.303 -0.2142  0.9945 -1.5378
11002TIP3   OH254420   3.219   2.510  13.787 -0.1968 -0.5009  0.1405
11002TIP3    H154421   3.157   2.455  13.739 -0.5469 -0.2007  0.2401
11002TIP3    H254422   3.274   2.549  13.719 -2.2946  1.9247 -0.3232
11003TIP3   OH254423   3.831   3.348  12.197 -0.0659 -0.2513 -0.4111
11003TIP3    H154424   3.916   3.383  12.169  0.4944 -1.1440  0.1336
11003TIP3    H254425   3.850   3.296  12.274 -1.0043 -1.0495 -0.6941
11004TIP3   OH254426   1.216   4.104   4.202  0.3028  0.5357 -0.1105
11004TIP3    H154427   1.217   4.162   4.279  1.6252 -0.5697  0.7429
11004TIP3    H254428   1.184   4.020   4.235 -0.5960  0.4612 -1.1178
11005TIP3   OH254429   0.274   0.006  13.835  0.1431  0.5933 -0.2627
11005TIP3    H154430   0.281   0.098  13.809  0.3770  0.7432  0.3252
11005TIP3    H254431   0.181  -0.008  13.849  0.0933  0.7026 -0.4753
11006TIP3   OH254432   0.993   2.594   5.058 -0.0178 -0.4363 -0.1696
11006TIP3    H154433   0.992   2.499   5.052  1.6401 -0.5204  0.3573
11006TIP3    H254434   1.000   2.625   4.968  1.5622 -0.9072 -0.2371
11007TIP3   OH254435   5.746   3.141   6.003  0.6252  0.6592  0.0496
11007TIP3    H154436   5.713   3.150   5.914 -1.3735 -0.3161  0.6413
11007TIP3    H254437   5.839   3.117   5.992  0.1753 -0.4058 -1.7986
11008TIP3   OH254438   3.601   4.663   1.960  0.2564  0.0796  0.5759
11008TIP3    H154439   3.654   4.679   1.882  1.1076 -1.0904  0.8852
11008TIP3    H254440   3.591   4.567   1.963 -1.5044  0.2377  0.7829
11009TIP3   OH254441   2.146   2.158   3.521 -0.3016  0.2164 -0.3167
11009TIP3    H154442   2.192   2.074   3.516  0.1112  0.4866 -1.3678
11009TIP3    H254443   2.053   2.134   3.521 -0.2156 -0.3409  2.0036
11010TIP3   OH254444   2.311   3.797  16.327  0.5509 -0.1977 -0.2193
11010TIP3    H154445   2.333   3.758  16.243  1.4332  0.2500 -0.2118
11010TIP3    H254446   2.282   3.886  16.306  1.6020  0.2120  0.0022
11011TIP3   OH254447   4.971   0.796   4.376  0.5550 -0.5970  0.0838
11011TIP3    H154448   4.887   0.788   4.420  0.3576  2.4773  0.5262
11011TIP3    H254449   5.036   0.781   4.444  0.2837  0.1854  0.5322
11012TIP3   OH254450   5.060   4.716  14.749  0.4213  0.3623 -0.0619
11012TIP3    H154451   5.001   4.790  14.762  1.7250  1.3231  0.5519
11012TIP3    H254452   5.059   4.669  14.832  1.7442  1.3020  0.4989
11013TIP3   OH254453   2.328   2.850  15.714 -0.0634  0.1643  0.0364
11013TIP3    H154454   2.241   2.812  15.720  0.3217 -0.7956 -0.2976
11013TIP3    H254455   2.343   2.861  15.620  0.4652 -0.3707  0.0555
11014TIP3   OH254456   3.757   1.408   2.115 -0.3242 -0.4401 -0.2406
11014TIP3    H154457   3.734   1.374   2.028  0.5026  0.8688 -1.0084
11014TIP3    H254458   3.778   1.501   2.100 -2.7965  0.5813  1.7974
11015TIP3   OH254459   5.410   6.714  14.775 -0.3765 -0.2848  0.2093
11015TIP3    H154460   5.365   6.650  14.719  0.7405 -1.2819  0.4099
11015TIP3    H254461   5.340   6.771  14.807 -1.2845 -0.8374 -0.7104
11016TIP3   OH254462   2.206   3.093   1.587  0.2686  0.1954 -0.6148
11016TIP3    H154463   2.214   3.187   1.571  1.6091 -0.1066 -1.8220
11016TIP3    H254464   2.115   3.073   1.564 -0.1680  1.2470  0.0901
11017TIP3   OH254465   3.642   2.343   4.699 -0.1512 -0.0108  0.9121
11017TIP3    H154466   3.678   2.315   4.783  1.8077 -2.8573 -0.6952
11017TIP3    H254467   3.618   2.261   4.655 -1.0135  1.3675 -1.3623
11018TIP3   OH254468   4.706   5.478   5.678  0.3406  0.1880 -0.0271
11018TIP3    H154469   4.716   5.419   5.603  1.8047 -0.3300  0.5283
11018TIP3    H254470   4.791   5.476   5.721 -1.1745 -1.7415  3.2493
11019TIP3   OH254471   1.399   4.322  15.610 -0.1509 -0.2427  0.3359
11019TIP3    H154472   1.443   4.238  15.594  0.3324  0.0037  0.3527
11019TIP3    H254473   1.367   4.316  15.699 -0.6275 -0.6358  0.1427
11020TIP3   OH254474   6.534   4.003   2.435 -0.2805  0.2264 -0.0931
11020TIP3    H154475   6.535   3.970   2.524  1.0274 -0.9645 -0.5078
11020TIP3    H254476   6.508   3.928   2.381  0.2450  0.5538 -0.8250
11021TIP3   OH254477   2.281   1.950   4.705 -0.2780  0.1200 -0.0366
11021TIP3    H154478   2.250   1.898   4.779 -0.3832  0.6594  0.3027
11021TIP3    H254479   2.280   1.889   4.631  0.8684 -0.7237  0.6190
11022TIP3   OH254480   5.269   0.428  13.720  0.0278  0.1325  0.3334
11022TIP3    H154481   5.203   0.474  13.670  1.1731  0.7319 -0.6889
11022TIP3    H254482   5.328   0.391  13.654  0.0185 -1.4761  1.1675
11023TIP3   OH254483   0.960   4.613   1.775  0.5214 -0.0449  0.5286
11023TIP3    H154484   1.009   4.572   1.846 -1.4725  1.1711  2.7728
11023TIP3    H254485   1.002   4.698   1.762  1.3172 -0.5507 -0.2728
11024TIP3   OH254486   1.180   1.438  16.700 -0.4390  0.2936 -0.5980
11024TIP3    H154487   1.173   1.496  16.775  2.9630 -0.5438  0.5270
11024TIP3    H254488   1.158   1.352  16.733  1.2100 -0.1038 -0.4176
11025TIP3   OH254489   3.073   0.677   1.334 -0.2595  0.0712  0.1282
11025TIP3    H154490   3.133   0.615   1.292 -0.6373  0.1612 -0.5502
11025TIP3    H254491   3.122   0.760   1.337 -0.1567  0.0131  0.0537
11026TIP3   OH254492   5.045   4.340  11.693  0.0362  0.2563 -0.4446
11026TIP3    H154493   5.066   4.286  11.769  0.5786  0.1330 -0.6819
11026TIP3    H254494   5.126   4.385  11.671 -0.9790  3.2234  1.3348
11027TIP3   OH254495   4.542   0.939   0.581 -0.1994  0.1231  0.2688
11027TIP3    H154496   4.520   0.847   0.588  1.6867 -0.4495 -0.6820
11027TIP3    H254497   4.605   0.955   0.651 -1.7697  1.1773  1.5392
11028TIP3   OH254498   6.383   0.386  11.558 -0.1126  0.0078  0.1930
11028TIP3    H154499   6.366   0.353  11.647  0.3228  0.3500  0.4048
11028TIP3    H254500   6.476   0.371  11.545 -0.7076 -3.1246 -1.4827
11029TIP3   OH254501   3.646   4.652   4.983  0.3030  0.5125  0.1749
11029TIP3    H154502   3.626   4.569   4.940 -1.1989  1.1442 -0.4187
11029TIP3    H254503   3.658   4.629   5.076  3.1342 -0.7991 -0.4095
11030TIP3   OH254504   4.666   1.079   4.823  0.6793 -0.2589  0.3423
11030TIP3    H154505   4.741   1.029   4.791  1.1058  1.0747 -0.8459
11030TIP3    H254506   4.678   1.083   4.918  3.4073  1.7967  0.0569
11031TIP3   OH254507   4.620   5.145  12.226 -0.3723 -0.2173 -0.0180
11031TIP3    H154508   4.714   5.155  12.214 -0.3802 -0.9286 -0.6949
11031TIP3    H254509   4.581   5.190  12.151 -0.5554 -0.4575 -0.0668
11032TIP3   OH254510   4.656   2.863   2.962  0.5234 -0.2202 -0.6743
11032TIP3    H154511   4.745   2.857   2.997 -0.2551 -2.9238  1.0733
11032TIP3    H254512   4.622   2.944   2.999  1.2208 -0.7598  1.2325
11033TIP3   OH254513   5.659   4.190  12.849  0.3116  0.0188  0.1225
11033TIP3    H154514   5.565   4.187  12.866  0.0642 -1.8767 -1.2759
11033TIP3    H254515   5.683   4.099  12.831  1.6873  0.8833 -3.1545
11034TIP3   OH254516   5.901   1.498  15.485 -0.2741  0.3114  0.0815
11034TIP3    H154517   5.830   1.562  15.489 -1.3991 -0.9040  0.6445
11034TIP3    H254518   5.935   1.506  15.395 -1.1310  0.9250 -0.2055
11035TIP3   OH254519   5.082   0.688  16.093  0.1105  0.0500 -0.1092
11035TIP3    H154520   5.172   0.658  16.082 -0.1541 -0.5774 -0.5644
11035TIP3    H254521   5.027   0.616  16.062 -0.6438 -0.7724  2.7794
11036TIP3   OH254522   6.387   1.541  11.905  0.3359 -0.0412 -0.5987
11036TIP3    H154523   6.296   1.519  11.922  0.6226 -0.2703  0.8105
11036TIP3    H254524   6.436   1.496  11.974  1.2965  1.8682  0.0483
11037TIP3   OH254525   6.799   3.756  15.263 -0.2852  0.1442  0.1214
11037TIP3    H154526   6.757   3.696  15.325 -0.3731 -0.1950 -0.2605
11037TIP3    H254527   6.791   3.712  15.178  2.7902 -1.0401  0.3046
11038TIP3   OH254528   1.235   0.974  16.599 -0.6676 -0.0753 -0.3083
11038TIP3    H154529   1.186   0.893  16.609 -1.4336  0.3857 -0.2213
11038TIP3    H254530   1.261   0.976  16.507 -0.8865 -0.2905 -0.3769
11039TIP3   OH254531   5.600   0.821  16.529  0.1163 -0.1698  0.3978
11039TIP3    H154532   5.569   0.732  16.515 -3.2386  0.7955  0.7917
11039TIP3    H254533   5.551   0.874  16.466  2.5043  1.4210 -0.3070
11040TIP3   OH254534   5.855   1.358  12.723 -0.1388  0.1175 -0.0246
11040TIP3    H154535   5.942   1.386  12.752  0.2057 -1.0405  0.1053
11040TIP3    H254536   5.840   1.406  12.641  1.0060 -0.3380 -0.5189
11041TIP3   OH254537   6.347   4.617   1.353 -0.5666  0.6957 -0.3298
11041TIP3    H154538   6.275   4.553   1.345  0.9385 -1.0203 -0.9153
11041TIP3    H254539   6.303   4.702   1.356 -2.7744 -0.3731  1.8625
11042TIP3   OH254540   0.330   4.902  14.951 -0.1714 -0.0940  0.3244
11042TIP3    H154541   0.329   4.834  14.884  0.9525 -0.4298  0.6263
11042TIP3    H254542   0.412   4.950  14.936 -1.1075  1.4642 -0.1196
11043TIP3   OH254543   0.118   1.867   2.616 -0.1202  0.4894 -0.4714
11043TIP3    H154544   0.042   1.830   2.571  0.6887 -0.2198 -1.2728
11043TIP3    H254545   0.131   1.952   2.574 -0.0557  0.3137 -0.8099
11044TIP3   OH254546   0.427   2.365   3.104  0.0329  0.3742 -0.1683
11044TIP3    H154547   0.371   2.351   3.181  0.9641 -0.2982  0.4037
11044TIP3    H254548   0.365   2.379   3.033 -0.9224 -1.2504  0.2672
11045TIP3   OH254549   1.782   0.001  16.313 -0.0947 -0.3757  0.0847
11045TIP3    H154550   1.707   0.059  16.302  0.4595  0.7197  1.6147
11045TIP3    H254551   1.807  -0.023  16.224  0.6624  3.0937 -0.8058
11046TIP3   OH254552   1.800   6.785  13.446 -0.7311  0.1369  0.3713
11046TIP3    H154553   1.861   6.771  13.518  0.3198  1.2113 -0.2738
11046TIP3    H254554   1.842   6.852  13.391 -2.3276  0.6579 -0.2807
11047TIP3   OH254555   6.501   3.026  10.884  0.6135  0.0975  0.1702
11047TIP3    H154556   6.450   3.034  10.804 -0.4276  1.6792  0.9505
11047TIP3    H254557   6.592   3.021  10.853  0.1914 -0.1263 -1.1178
11048TIP3   OH254558   1.396   5.987  15.458 -0.3010  0.2536  0.3058
11048TIP3    H154559   1.322   6.044  15.480 -1.8912 -1.1654 -1.1060
11048TIP3    H254560   1.465   6.047  15.431 -1.4188  1.5676  0.2574
11049TIP3   OH254561   6.573   1.370   5.988 -0.0882 -0.3584  0.1269
11049TIP3    H154562   6.650   1.414   5.952  1.4039 -2.9710 -0.1112
11049TIP3    H254563   6.527   1.438   6.038  3.1883  0.9796  1.5715
11050TIP3   OH254564   6.528   4.792   4.360 -0.2124 -0.0816  0.2314
11050TIP3    H154565   6.587   4.827   4.293 -1.5805 -0.2087 -1.0966
11050TIP3    H254566   6.472   4.866   4.384  0.6465  0.1352  1.7477
11051TIP3   OH254567   3.812   1.169   5.766 -0.0084 -0.6128  0.0142
11051TIP3    H154568   3.902   1.196   5.787  0.1037 -0.3269 -0.7872
11051TIP3    H254569   3.762   1.251   5.767  0.0124 -0.5722 -0.8293
11052TIP3   OH254570   5.902   0.577  11.964  0.6742  0.3752 -0.3235
11052TIP3    H154571   5.855   0.610  12.040  1.3775 -0.6054  0.5626
11052TIP3    H254572   5.975   0.526  12.000  1.6429  0.7508 -1.6573
11053TIP3   OH254573   1.692   6.673  13.180  0.1865 -0.1416  0.1995
11053TIP3    H154574   1.680   6.717  13.265  0.2479 -0.1829  0.2301
11053TIP3    H254575   1.747   6.597  13.201  0.7588  0.2116  0.0110
11054TIP3   OH254576   0.978   0.660   4.083  0.9488 -0.3886 -0.5479
11054TIP3    H154577   0.886   0.671   4.060  0.9905 -2.4520 -2.0184
11054TIP3    H254578   0.976   0.612   4.166  0.6718 -0.6290 -0.6892
11055TIP3   OH254579   3.913   4.955  16.561 -0.4628 -0.1666  0.6582
11055TIP3    H154580   3.948   4.924  16.645  0.5722  1.6775  0.9572
11055TIP3    H254581   3.867   5.036  16.583 -2.5042 -1.0176 -0.1995
11056TIP3   OH254582   4.177   4.975  15.795 -0.5983 -0.1156  0.0617
11056TIP3    H154583   4.201   5.036  15.726 -0.1558 -0.9055 -0.5036
11056TIP3    H254584   4.231   4.898  15.779 -0.6091 -0.3817  1.1940
11057TIP3   OH254585   4.080   6.414   4.140 -0.3012 -0.0108  0.3011
11057TIP3    H154586   4.038   6.348   4.195  0.4157 -1.4421 -0.7987
11057TIP3    H254587   4.022   6.490   4.145 -0.7078 -0.3817  2.2965
11058TIP3   OH254588   0.375   5.254  15.264 -0.0917 -0.2200 -0.2945
11058TIP3    H154589   0.468   5.250  15.288  0.3903  0.3368 -1.9515
11058TIP3    H254590   0.352   5.163  15.243 -0.5002 -0.7077  2.0184
11059TIP3   OH254591   1.571   2.983   0.610  0.7604  0.3474  0.0206
11059TIP3    H154592   1.666   2.989   0.618  1.1122 -1.4673 -1.7578
11059TIP3    H254593   1.553   2.889   0.606 -0.6644  0.6076 -3.1200
11060TIP3   OH254594   2.869   5.284  16.704 -0.1732  0.2384 -0.1769
11060TIP3    H154595   2.881   5.342  16.780 -0.5289  0.5737 -0.3694
11060TIP3    H254596   2.947   5.228  16.704 -0.8329 -0.7529  1.2755
11061TIP3   OH254597   6.335   0.372  12.261  0.0730  0.1305 -0.2981
11061TIP3    H154598   6.422   0.372  12.222  0.3242  0.0499  0.2513
11061TIP3    H254599   6.350   0.353  12.354 -0.6506 -1.4432 -0.4736
11062TIP3   OH254600   3.225   6.098   4.922  0.1567  0.2626  0.5635
11062TIP3    H154601   3.156   6.113   4.857  0.7966 -0.2849 -0.2603
11062TIP3    H254602   3.201   6.154   4.996 -0.4749  1.0589 -0.2259
11063TIP3   OH254603   1.200   4.390   3.136  0.0459  0.0239 -0.1636
11063TIP3    H154604   1.196   4.409   3.042  1.0578 -2.9206 -0.9270
11063TIP3    H254605   1.133   4.323   3.150 -0.2180  0.5453  1.2769
11064TIP3   OH254606   1.866   2.863  11.092  0.1137  0.1488  0.1595
11064TIP3    H154607   1.872   2.777  11.132  0.0582  0.4207  0.7673
11064TIP3    H254608   1.950   2.875  11.047  0.3107 -0.0176  0.4826
11065TIP3   OH254609   1.100   1.187   2.629 -0.2845  0.1946  0.7802
11065TIP3    H154610   1.013   1.150   2.614  0.8153 -1.3014 -3.4886
11065TIP3    H254611   1.152   1.114   2.664 -0.2946  0.5089  1.4532
11066TIP3   OH254612   0.092   5.769  13.366  0.1250  0.1243 -0.8353
11066TIP3    H154613   0.045   5.689  13.342  0.0865 -0.4378  0.9563
11066TIP3    H254614   0.083   5.774  13.461 -0.0232  2.3714 -0.9231
11067TIP3   OH254615   1.813   4.634   1.135  0.2655 -0.1691  0.0271
11067TIP3    H154616   1.843   4.610   1.048 -1.3173 -1.0563 -0.3249
11067TIP3    H254617   1.855   4.571   1.194 -0.8560 -1.4445 -0.4614
11068TIP3   OH254618   0.560   5.294   1.076 -0.3270 -0.1812  0.6690
11068TIP3    H154619   0.486   5.309   1.135 -0.2961 -0.6386  0.8274
11068TIP3    H254620   0.580   5.201   1.086  0.3265 -0.0389  0.6962
11069TIP3   OH254621   1.316   0.231   2.898  0.0360 -0.1620 -0.5003
11069TIP3    H154622   1.332   0.205   2.807 -1.4416 -0.6693 -0.6403
11069TIP3    H254623   1.291   0.323   2.893 -3.7623 -1.0579 -1.1424
11070TIP3   OH254624   0.155   5.283  16.061  0.0557 -0.1345 -0.3172
11070TIP3    H154625   0.171   5.331  16.143 -0.6307  0.1214 -0.3317
11070TIP3    H254626   0.237   5.236  16.046  0.1190 -0.3563  0.6364
11071TIP3   OH254627   2.141   6.448  14.277  0.0427  0.7259 -0.4331
11071TIP3    H154628   2.212   6.399  14.319 -1.6931 -0.9920  0.7124
11071TIP3    H254629   2.129   6.405  14.192 -1.1399 -0.6332  0.3625
11072TIP3   OH254630   6.427   5.158  15.936  0.0657  0.3469 -0.2948
11072TIP3    H154631   6.431   5.154  15.840 -2.0947 -1.0135 -0.3855
11072TIP3    H254632   6.397   5.247  15.955  2.0735  1.1790 -0.7408
11073TIP3   OH254633   5.412   5.819  15.835  0.2204  0.9528  0.6668
11073TIP3    H154634   5.461   5.740  15.857  0.8255  0.6581 -1.5239
11073TIP3    H254635   5.470   5.891  15.862  0.7372  0.6268  0.4233
11074TIP3   OH254636   3.615   2.413   0.146  0.5316  0.4261 -0.3676
11074TIP3    H154637   3.645   2.354   0.216  0.9750  0.7623 -0.2707
11074TIP3    H254638   3.521   2.422   0.162  0.4256 -0.3656 -0.4699
11075TIP3   OH254639   2.662   5.013  11.245  0.4650 -0.4048 -0.6696
11075TIP3    H154640   2.624   4.931  11.277  0.8733  0.8422  3.5814
11075TIP3    H254641   2.589   5.074  11.240  0.3739 -0.6149 -2.5670
11076TIP3   OH254642   3.440   0.130  16.905  0.4469  0.3211 -0.3072
11076TIP3    H154643   3.529   0.106  16.879 -0.4165 -1.2677 -2.0739
11076TIP3    H254644   3.422   0.075  16.981  0.5737 -0.2350 -0.6742
11077TIP3   OH254645   0.703   5.950   1.029 -0.1317 -0.3572 -0.1494
11077TIP3    H154646   0.688   5.856   1.021  0.2365 -0.5021  0.6934
11077TIP3    H254647   0.618   5.987   1.053  0.0547 -0.7037  1.1260
11078TIP3   OH254648   6.470   1.062   0.890  0.3321  0.0380  1.1871
11078TIP3    H154649   6.465   0.969   0.911  0.0415 -0.3954 -0.6410
11078TIP3    H254650   6.517   1.065   0.807 -2.8919  1.2002 -0.7565
11079TIP3   OH254651   2.824   4.515   5.821 -0.5705  0.5624 -0.4664
11079TIP3    H154652   2.901   4.571   5.824 -0.8680  0.9528 -0.0855
11079TIP3    H254653   2.859   4.427   5.807 -0.0928  0.8137 -0.8507
11080TIP3   OH254654   3.287   2.635   2.361  0.0325  0.0403  0.2169
11080TIP3    H154655   3.311   2.718   2.402 -1.7473  0.7567 -0.0999
11080TIP3    H254656   3.365   2.609   2.313  1.1733  0.6881  1.6417
11081TIP3   OH254657   0.043   6.122   0.580 -0.3112 -0.1840 -0.1835
11081TIP3    H154658   0.080   6.104   0.493  1.7825  0.6837  0.4874
11081TIP3    H254659  -0.039   6.072   0.581  1.4237 -3.3089 -1.2541
11082TIP3   OH254660   2.391   5.491  14.219 -0.1433 -0.2523 -0.2179
11082TIP3    H154661   2.477   5.453  14.235 -0.2770 -0.4043  0.1352
11082TIP3    H254662   2.329   5.426  14.250 -0.3864 -0.1089 -0.3975
11083TIP3   OH254663   4.591   6.569   0.354  0.0698 -0.2037  0.1535
11083TIP3    H154664   4.681   6.583   0.326  0.5952  1.6934  2.4326
11083TIP3    H254665   4.539   6.625   0.296  0.1666 -2.0858 -1.8460
11084TIP3   OH254666   0.791   0.890   4.004  0.0411  0.3795 -0.4092
11084TIP3    H154667   0.720   0.885   3.939 -1.7961  0.5226  1.4977
11084TIP3    H254668   0.828   0.978   3.992 -2.7912  1.9242  1.1348
11085TIP3   OH254669   2.233   0.492  16.040  0.5658  0.4279  0.3576
11085TIP3    H154670   2.218   0.406  16.079  0.0831 -0.0209 -0.7891
11085TIP3    H254671   2.290   0.537  16.103 -0.3902 -0.1730  1.6988
11086TIP3   OH254672   1.490   1.110  16.426 -0.2074 -0.1667 -0.3201
11086TIP3    H154673   1.488   1.182  16.363 -1.5370 -0.1802 -0.3353
11086TIP3    H254674   1.430   1.138  16.496 -1.3099 -1.5454 -0.6767
11087TIP3   OH254675   2.886   2.107   0.193 -0.1089  0.3581 -0.1209
11087TIP3    H154676   2.793   2.105   0.171  0.3754 -0.9205 -2.4485
11087TIP3    H254677   2.930   2.076   0.114  2.2882  0.5707  1.0257
11088TIP3   OH254678   3.361   3.225   6.456  0.0264 -0.4242 -0.0793
11088TIP3    H154679   3.282   3.274   6.432  0.3766  0.1834 -0.0082
11088TIP3    H254680   3.410   3.218   6.374  0.4266  0.1834  0.1038
11089TIP3   OH254681   3.397   5.065  15.113  0.5730 -0.0599 -0.1633
11089TIP3    H154682   3.449   4.986  15.101  2.5535  1.4129 -2.1431
11089TIP3    H254683   3.317   5.035  15.157  1.3652 -3.0552 -0.5443
11090TIP3   OH254684   4.581   2.315   2.001  0.3305 -0.2909 -0.1089
11090TIP3    H154685   4.677   2.313   2.005  0.4028  0.7193 -0.7583
11090TIP3    H254686   4.559   2.266   1.922  0.2350 -1.4856  0.6466
11091TIP3   OH254687   0.459   3.855   3.898 -0.3302  0.7352 -0.1244
11091TIP3    H154688   0.552   3.853   3.921 -0.6286  1.9676  1.3521
11091TIP3    H254689   0.457   3.835   3.805  1.6729  3.1870 -0.8205
11092TIP3   OH254690   2.548   4.552   4.483 -0.6308 -1.1980 -0.4892
11092TIP3    H154691   2.546   4.499   4.562 -0.1651  0.9197  1.0282
11092TIP3    H254692   2.482   4.619   4.497  0.6227  0.2255 -1.1207
11093TIP3   OH254693   5.818   0.034  11.661  0.3719  0.1950  0.3172
11093TIP3    H154694   5.875  -0.005  11.727 -1.2598 -0.7048  1.2682
11093TIP3    H254695   5.783   0.112  11.703 -1.5297 -0.9576  1.0552
11094TIP3   OH254696   4.134   0.745  13.950 -0.4361  0.3237  1.0660
11094TIP3    H154697   4.160   0.655  13.931  1.3524  0.8593  0.7986
11094TIP3    H254698   4.113   0.782  13.864  3.1480  1.3847  0.4736
11095TIP3   OH254699   4.711   4.235   3.633 -0.0845 -0.2980  0.1908
11095TIP3    H154700   4.734   4.313   3.683  3.3341 -0.8455 -0.2907
11095TIP3    H254701   4.674   4.175   3.698 -1.2386  1.0853  0.8636
11096TIP3   OH254702   1.059   6.680  15.750 -0.6523 -0.0184  0.3487
11096TIP3    H154703   1.094   6.653  15.666  0.3363  1.1608  0.3538
11096TIP3    H254704   1.099   6.621  15.814 -0.0167  0.2036  0.1654
11097TIP3   OH254705   3.287   4.261   0.891 -0.3471  0.1448  0.0397
11097TIP3    H154706   3.293   4.166   0.893  1.0574  0.2007 -0.7873
11097TIP3    H254707   3.266   4.282   0.800 -1.8593  0.6020  0.4520
11098TIP3   OH254708   5.857   5.794  14.540 -0.2496 -0.0913 -0.2322
11098TIP3    H154709   5.833   5.826  14.453 -2.7987 -3.4714 -1.0135
11098TIP3    H254710   5.914   5.719  14.524  2.9552  1.7979  1.3460
11099TIP3   OH254711   1.730   5.184   2.840  0.3306 -0.0584  0.0456
11099TIP3    H154712   1.778   5.259   2.804  1.0190 -0.9545 -0.9759
11099TIP3    H254713   1.643   5.191   2.801 -0.0292  0.9146  0.9742
11100TIP3   OH254714   4.228   3.913  17.159 -0.2301  0.0167  0.4326
11100TIP3    H154715   4.276   3.833  17.182 -1.7236 -0.5319  1.8114
11100TIP3    H254716   4.137   3.886  17.155 -0.4293  0.7689 -3.3741
11101TIP3   OH254717   2.448   1.790  12.668  0.0955  0.7761  0.1438
11101TIP3    H154718   2.484   1.719  12.722  0.4009  1.9511  1.5318
11101TIP3    H254719   2.354   1.772  12.666  0.3063 -0.3817 -0.6318
11102TIP3   OH254720   5.956   2.292   1.142 -0.1494 -0.1171  0.0076
11102TIP3    H154721   6.013   2.274   1.217 -0.8062 -0.7721  0.3562
11102TIP3    H254722   5.926   2.206   1.113  1.6373 -0.0776 -2.2708
11103TIP3   OH254723   0.840   2.865  12.933 -0.5314 -0.0029 -0.2410
11103TIP3    H154724   0.896   2.794  12.902 -2.5457 -0.2781 -3.6718
11103TIP3    H254725   0.772   2.822  12.985 -0.6116 -0.3383 -0.6252
11104TIP3   OH254726   4.585   3.114   3.338 -0.3489  0.8763 -0.1729
11104TIP3    H154727   4.673   3.107   3.375  0.3848  1.9054 -1.6370
11104TIP3    H254728   4.530   3.063   3.397  1.5725 -1.6056 -0.3450
11105TIP3   OH254729   6.411   0.491  16.649 -0.6744 -0.4848 -0.0833
11105TIP3    H154730   6.365   0.412  16.623 -1.2835  0.0700 -0.7069
11105TIP3    H254731   6.353   0.534  16.712 -0.5578 -0.2884 -0.1064
11106TIP3   OH254732   1.749   5.943  15.434  0.4916  0.2292 -0.4152
11106TIP3    H154733   1.811   5.885  15.479  1.5535  1.1953 -0.5921
11106TIP3    H254734   1.780   5.944  15.343  0.7423  1.3911 -0.3288
11107TIP3   OH254735   2.298   0.252   5.948  0.2438  0.5229 -0.4112
11107TIP3    H154736   2.314   0.324   6.009  1.1177  0.1413 -0.1796
11107TIP3    H254737   2.373   0.253   5.889 -1.5515  2.1898 -2.8320
11108TIP3   OH254738   1.680   5.224   3.488 -0.0431 -0.5657  0.1275
11108TIP3    H154739   1.720   5.211   3.574  0.4575 -2.6807 -0.3750
11108TIP3    H254740   1.720   5.305   3.455 -0.1804  0.2424  1.8082
11109TIP3   OH254741   3.415   3.532  13.026 -0.3225 -0.2571 -0.3459
11109TIP3    H154742   3.368   3.574  12.955 -1.5924  1.2295  1.2803
11109TIP3    H254743   3.475   3.471  12.983 -1.8406 -0.2695 -2.6087
11110TIP3   OH254744   0.185   0.721   6.570 -0.2282  0.0343  0.2877
11110TIP3    H154745   0.256   0.704   6.632  0.0651  1.5990  0.4320
11110TIP3    H254746   0.157   0.811   6.590 -1.3557 -0.0792 -0.6503
11111TIP3   OH254747   1.609   4.433   1.106  0.5109  0.2665 -0.1515
11111TIP3    H154748   1.550   4.452   1.033  0.9248  1.3327 -0.2180
11111TIP3    H254749   1.650   4.517   1.127  1.3944 -0.2926  0.4336
11112TIP3   OH254750   5.015   4.129   4.874  0.5910  0.1691 -0.5081
11112TIP3    H154751   4.999   4.136   4.968  2.2367 -0.1489 -0.1818
11112TIP3    H254752   5.058   4.044   4.863  2.5741  1.1907 -1.1938
11113TIP3   OH254753   1.744   2.490   4.861  0.1410  0.3440 -0.2171
11113TIP3    H154754   1.696   2.506   4.942  0.6655 -1.0481  0.3951
11113TIP3    H254755   1.776   2.577   4.835  2.0357  0.5795  2.4081
11114TIP3   OH254756   5.048   3.819  12.974  0.5592 -0.3271 -0.1410
11114TIP3    H154757   4.970   3.819  13.030  1.4787 -1.5142  1.2173
11114TIP3    H254758   5.067   3.726  12.959  2.0275 -0.0863  0.0440
11115TIP3   OH254759   2.457   6.138   2.817  0.7353  0.4976  0.2020
11115TIP3    H154760   2.540   6.092   2.807  0.3164 -0.2034 -0.2313
11115TIP3    H254761   2.412   6.123   2.734  0.9770  2.5614 -0.3537
11116TIP3   OH254762   5.771   2.956  15.757  0.4482 -0.1371  0.9420
11116TIP3    H154763   5.715   2.939  15.834  0.3322  0.6609  1.0459
11116TIP3    H254764   5.712   2.996  15.693  0.2364 -2.0067 -0.0958
11117TIP3   OH254765   4.771   1.916   3.939 -0.1588  0.0228 -0.0054
11117TIP3    H154766   4.755   1.993   3.884  1.3591  1.6649  1.6994
11117TIP3    H254767   4.726   1.935   4.021 -1.2774 -1.7785 -0.1512
11118TIP3   OH254768   5.330   0.024   2.247 -0.0442 -0.2420 -0.0898
11118TIP3    H154769   5.299   0.095   2.303 -0.8018  0.7524 -1.6748
11118TIP3    H254770   5.251  -0.027   2.227  0.2646 -0.7506 -0.0374
11119TIP3   OH254771   5.635   1.504   4.510 -0.1116 -0.0468 -0.2758
11119TIP3    H154772   5.683   1.557   4.447 -1.0898 -1.8754 -2.6907
11119TIP3    H254773   5.551   1.549   4.520 -0.1887 -0.0848 -0.7616
11120TIP3   OH254774   5.667   1.815   1.733 -0.2653 -0.5003 -0.1419
11120TIP3    H154775   5.744   1.869   1.713 -0.0153 -1.4322 -1.8585
11120TIP3    H254776   5.615   1.817   1.652 -2.4113  0.6052  1.1505
11121TIP3   OH254777   4.449   1.703   4.209  0.4233 -0.2348  0.2151
11121TIP3    H154778   4.505   1.747   4.144  0.6024 -1.9737 -0.8822
11121TIP3    H254779   4.388   1.771   4.238  0.8471  0.8021 -1.2043
11122TIP3   OH254780   4.879   4.663  10.912 -0.2261 -0.3960  0.0843
11122TIP3    H154781   4.806   4.646  10.971  0.3874 -2.5662  0.2896
11122TIP3    H254782   4.957   4.641  10.963  0.3601 -1.5510 -1.2546
11123TIP3   OH254783   4.288   6.291  15.727 -0.5679 -0.2626  0.1107
11123TIP3    H154784   4.229   6.284  15.802 -2.1138  1.2193 -0.8831
11123TIP3    H254785   4.310   6.201  15.705 -1.2773 -0.7858  1.4051
11124TIP3   OH254786   3.768   3.787  16.410 -0.3756  0.2949  0.3288
11124TIP3    H154787   3.735   3.717  16.467 -1.6285  0.5071 -0.1156
11124TIP3    H254788   3.722   3.774  16.327  2.3080 -0.7625 -1.1172
11125TIP3   OH254789   2.802   2.152  12.856  0.2519  0.6627 -0.4267
11125TIP3    H154790   2.825   2.065  12.823 -1.6890 -0.1014  0.0681
11125TIP3    H254791   2.793   2.205  12.777 -0.8429 -0.2298 -0.9496
11126TIP3   OH254792   5.267   5.323   5.667 -0.2771  0.0036  0.7557
11126TIP3    H154793   5.356   5.288   5.666 -0.4131 -0.3496  0.9713
11126TIP3    H254794   5.247   5.336   5.760 -1.0246 -1.3905  0.8094
11127TIP3   OH254795   5.443   4.685  15.920 -0.3160 -0.0110 -0.2530
11127TIP3    H154796   5.500   4.612  15.894  0.4849  0.6999 -0.5361
11127TIP3    H254797   5.503   4.753  15.950 -1.1146 -0.1346  1.8573
11128TIP3   OH254798   5.339   3.617  12.277 -0.2721  0.2065 -0.6891
11128TIP3    H154799   5.430   3.596  12.257  0.3444  1.6404  0.4844
11128TIP3    H254800   5.302   3.534  12.309  0.7236 -0.2924 -0.8070
11129TIP3   OH254801   1.051   3.473  17.075  0.3241  0.0920 -0.1319
11129TIP3    H154802   1.026   3.381  17.076  0.9479 -0.1074  2.0025
11129TIP3    H254803   0.981   3.517  17.123  0.2486  0.6944 -0.7728
11130TIP3   OH254804   6.664   2.780  15.653 -0.8039 -0.8997 -0.3295
11130TIP3    H154805   6.612   2.719  15.706  0.6242 -0.7363  1.3645
11130TIP3    H254806   6.733   2.810  15.713 -0.1816  0.7045 -1.7830
11131TIP3   OH254807   2.223   4.378  12.410 -0.7847 -0.4954 -0.2210
11131TIP3    H154808   2.225   4.458  12.464 -0.9129  0.3898 -1.4931
11131TIP3    H254809   2.292   4.323  12.448 -2.5908 -1.0756  2.5333
11132TIP3   OH254810   5.433   5.333   0.018  0.4796  0.4879  0.4625
11132TIP3    H154811   5.396   5.397   0.079  1.7409  1.9399 -0.2046
11132TIP3    H254812   5.490   5.278   0.072  0.1712  0.5754  0.8824
11133TIP3   OH254813   0.236   6.632  14.204  0.4265 -0.2075  0.6796
11133TIP3    H154814   0.328   6.615  14.226  0.7643  0.1948 -0.3570
11133TIP3    H254815   0.205   6.550  14.166  0.7441  0.0483 -0.1574
11134TIP3   OH254816   3.122   0.632  12.792  0.5373 -0.3988 -0.6718
11134TIP3    H154817   3.154   0.619  12.702  1.7749 -2.2452 -0.0300
11134TIP3    H254818   3.186   0.693  12.831  0.7175 -0.5737 -0.6903
11135TIP3   OH254819   5.756   3.378   3.969 -0.5437  0.1193  0.2324
11135TIP3    H154820   5.701   3.388   4.047 -1.5027  0.3023 -0.4567
11135TIP3    H254821   5.803   3.461   3.962  2.0700 -0.9916  2.4454
11136TIP3   OH254822   4.739   0.594  11.542  0.3786 -0.2319  1.3480
11136TIP3    H154823   4.773   0.591  11.453  2.9841  0.0077  2.2379
11136TIP3    H254824   4.652   0.554  11.536  0.4968 -0.2594 -1.2559
11137TIP3   OH254825   1.155   4.665  16.656  0.2258  0.1775 -0.1337
11137TIP3    H154826   1.241   4.670  16.615  0.1213  1.5877 -0.2325
11137TIP3    H254827   1.154   4.579  16.700  1.7674  0.2420  0.0757
11138TIP3   OH254828   4.986   4.512  13.499 -0.3949  0.0221 -0.1950
11138TIP3    H154829   4.943   4.441  13.548 -0.5777 -0.3844 -0.9279
11138TIP3    H254830   4.984   4.587  13.558  1.7615 -1.1321  1.5247
11139TIP3   OH254831   4.933   3.059   3.737 -0.0632  0.1606  0.3676
11139TIP3    H154832   4.890   3.087   3.818  0.8445 -0.8459  1.2358
11139TIP3    H254833   4.875   2.991   3.702 -1.4647  1.9504 -0.9101
11140TIP3   OH254834   5.606   5.659  12.362 -0.9334  0.2870  0.2843
11140TIP3    H154835   5.563   5.585  12.320 -0.8703  0.2725  0.2448
11140TIP3    H254836   5.681   5.620  12.408 -0.5867  0.3923 -0.1766
11141TIP3   OH254837   3.971   1.309  15.293  0.9750 -0.1206  0.0261
11141TIP3    H154838   3.993   1.247  15.224 -0.6387 -0.1240 -0.5223
11141TIP3    H254839   3.899   1.268  15.341 -1.2312  1.8811 -1.3154
11142TIP3   OH254840   1.908   2.796  16.179 -0.6245  0.2000  0.1453
11142TIP3    H154841   1.919   2.878  16.132  1.3495  0.3590  0.7726
11142TIP3    H254842   1.897   2.821  16.271  1.2367 -0.2089  0.5248
11143TIP3   OH254843   4.204   2.847   3.072  0.6596  0.1821  0.0419
11143TIP3    H154844   4.238   2.902   3.143  1.7001  0.4727 -0.6713
11143TIP3    H254845   4.268   2.777   3.062  0.5611  0.1844 -0.6625
11144TIP3   OH254846   5.573   0.603   5.369 -0.4332  0.1623  0.1218
11144TIP3    H154847   5.547   0.680   5.318  0.3179  0.2408 -0.1679
11144TIP3    H254848   5.638   0.637   5.431  1.0787 -0.4683 -1.0263
11145TIP3   OH254849   5.428   4.741   0.252 -0.3726  0.0624 -0.0216
11145TIP3    H154850   5.376   4.819   0.270 -3.0662 -1.7948  0.7689
11145TIP3    H254851   5.414   4.724   0.159 -1.9115 -0.9032  0.3724
11146TIP3   OH254852   1.421   0.019  12.890 -0.0117  0.3699  0.2578
11146TIP3    H154853   1.502   0.069  12.881 -0.5700  1.1830 -0.4168
11146TIP3    H254854   1.353   0.085  12.900 -0.6661 -0.2864  0.2410
11147TIP3   OH254855   6.079   1.941  13.462 -0.0606  0.0017 -0.1781
11147TIP3    H154856   6.113   1.930  13.551  1.0296  0.1194 -0.5576
11147TIP3    H254857   6.006   1.879  13.456 -1.2504  1.1711  1.3211
11148TIP3   OH254858   4.052   1.210   4.080  0.7366 -0.1487  0.2689
11148TIP3    H154859   3.988   1.140   4.075  1.1767 -0.6339  1.2982
11148TIP3    H254860   4.038   1.261   4.000 -0.2186 -0.8518 -0.0216
11149TIP3   OH254861   4.765   2.117   5.744 -0.3180  0.1961  0.2503
11149TIP3    H154862   4.780   2.022   5.741 -1.5219 -0.0086  0.0766
11149TIP3    H254863   4.830   2.154   5.684  1.0382 -0.3832  1.3101
11150TIP3   OH254864   5.953   5.473  10.613 -0.4904 -0.2750  0.1811
11150TIP3    H154865   5.867   5.466  10.573 -0.0320  0.0667 -0.9147
11150TIP3    H254866   5.962   5.395  10.667 -0.8654 -1.0934 -0.9219
11151TIP3   OH254867   5.025   5.852   1.491  0.4333  0.1709  0.0220
11151TIP3    H154868   4.938   5.862   1.452  0.8450  1.3964 -0.6472
11151TIP3    H254869   5.058   5.769   1.456 -0.6281 -0.5380  0.6411
11152TIP3   OH254870   4.537   1.944   0.353  0.1634 -0.8983  0.2451
11152TIP3    H154871   4.531   1.937   0.449  0.3650 -1.2401  0.2312
11152TIP3    H254872   4.562   2.036   0.338  0.6840 -0.9886  0.5445
11153TIP3   OH254873   5.667   4.906  11.203 -0.4952  0.1069  0.1135
11153TIP3    H154874   5.719   4.961  11.261  0.7743 -1.0998  0.1581
11153TIP3    H254875   5.585   4.891  11.250 -0.0463  0.3120  0.9695
11154TIP3   OH254876   3.556   0.293   0.441 -0.0944  0.4047 -0.1084
11154TIP3    H154877   3.515   0.214   0.476 -1.0485  1.7575  2.0720
11154TIP3    H254878   3.484   0.342   0.402  0.1111  1.1049  0.3786
11155TIP3   OH254879   3.748   0.683  13.355  0.8073 -0.2339  0.1479
11155TIP3    H154880   3.820   0.623  13.335  0.5692 -0.5172  0.1301
11155TIP3    H254881   3.669   0.631  13.341  0.6187 -0.3341  1.4478
11156TIP3   OH254882   6.625   4.769  17.109  0.1132  0.6626 -0.0540
11156TIP3    H154883   6.605   4.775  17.016 -1.0440  1.8481  0.2314
11156TIP3    H254884   6.603   4.856  17.144  2.2018  0.8277  1.0362
11157TIP3   OH254885   2.553   5.770   1.335  0.9927  0.5639  0.4711
11157TIP3    H154886   2.524   5.850   1.379  0.0699  0.7617 -0.4556
11157TIP3    H254887   2.647   5.783   1.322  0.9978  1.1402  1.0551
11158TIP3   OH254888   4.038   2.465   1.035 -0.4989  0.4080 -0.2236
11158TIP3    H154889   4.075   2.553   1.023 -0.2195 -0.0199 -3.0107
11158TIP3    H254890   4.107   2.416   1.080 -0.5897  1.5123  1.1941
11159TIP3   OH254891   2.611   2.682   3.501 -0.2096  0.3582  0.1828
11159TIP3    H154892   2.586   2.603   3.454  0.9286  0.1331 -0.0786
11159TIP3    H254893   2.528   2.727   3.519 -0.9499 -1.2267  0.9731
11160TIP3   OH254894   5.907   6.296  17.093  0.0108 -0.4826  0.0083
11160TIP3    H154895   5.959   6.229  17.138  2.4414  1.4612  0.3819
11160TIP3    H254896   5.929   6.285  17.000  1.1863  0.2955  0.1589
11161TIP3   OH254897   4.175   2.613  16.004 -0.1884  0.4883  0.4460
11161TIP3    H154898   4.154   2.668  15.929 -1.6155  0.3192  0.7006
11161TIP3    H254899   4.259   2.573  15.982 -1.2669 -0.7363 -1.7294
11162TIP3   OH254900   3.586   4.345   3.829  0.1898  0.4372  0.3494
11162TIP3    H154901   3.634   4.356   3.911 -0.8448 -1.3637  1.2961
11162TIP3    H254902   3.552   4.432   3.808  0.1484  0.8755  2.0812
11163TIP3   OH254903   5.024   1.057  16.408 -0.1278  0.1244  0.1203
11163TIP3    H154904   5.012   1.037  16.315 -0.6117  1.3783 -0.1013
11163TIP3    H254905   4.939   1.037  16.448 -0.6678  1.7720 -0.1307
11164TIP3   OH254906   4.932   0.335   0.879  0.6341  0.2896 -0.6840
11164TIP3    H154907   4.862   0.272   0.861 -0.4412  1.4656 -0.7916
11164TIP3    H254908   4.967   0.357   0.792  0.9773 -0.1315 -0.6503
11165TIP3   OH254909   2.045   3.176   1.962 -0.7143 -0.2027  0.0188
11165TIP3    H154910   2.106   3.114   1.922  0.0497 -0.0756  0.9401
11165TIP3    H254911   2.064   3.171   2.055 -1.3672  0.6474  0.2084
11166TIP3   OH254912   1.542   0.777   0.624 -0.3850 -0.0515 -0.0164
11166TIP3    H154913   1.482   0.799   0.695  0.2997 -0.5127  0.7225
11166TIP3    H254914   1.629   0.775   0.665  0.4286  2.4543 -1.4045
11167TIP3   OH254915   5.510   3.693  11.657  0.4725  0.4050 -0.2209
11167TIP3    H154916   5.539   3.767  11.604 -0.8146  0.9075 -0.2685
11167TIP3    H254917   5.494   3.623  11.594  2.8173 -0.3315 -0.0617
11168TIP3   OH254918   2.883   0.153   0.066 -0.6772  0.1591 -0.2877
11168TIP3    H154919   2.791   0.145   0.093 -0.9395 -1.1494 -1.4407
11168TIP3    H254920   2.910   0.063   0.048  1.3945  0.2979  1.6778
11169TIP3   OH254921   5.703   4.701   2.341  0.2068 -0.0161 -0.4959
11169TIP3    H154922   5.682   4.608   2.353 -0.0826  0.1402  0.2553
11169TIP3    H254923   5.667   4.722   2.255  0.9580 -0.7904 -1.0179
11170TIP3   OH254924   2.279   4.929  13.540  0.0946  0.1577 -0.1175
11170TIP3    H154925   2.291   4.935  13.635 -2.8672  1.8040  0.2889
11170TIP3    H254926   2.322   5.007  13.506  0.8807 -0.2683 -0.1334
11171TIP3   OH254927   1.214   1.289  13.927 -0.8856 -0.5351  0.4680
11171TIP3    H154928   1.246   1.326  13.845  0.5148 -3.7089 -0.5648
11171TIP3    H254929   1.125   1.324  13.936 -0.5515  1.0412 -1.6123
11172TIP3   OH254930   1.862   3.759   3.659 -0.0169 -0.5438  0.0131
11172TIP3    H154931   1.926   3.819   3.696 -0.0850 -0.4416 -0.0357
11172TIP3    H254932   1.906   3.719   3.584  0.0967 -0.6992  0.1644
11173TIP3   OH254933   6.370   2.667   5.285 -0.0045  0.3137  0.1778
11173TIP3    H154934   6.322   2.729   5.230  0.4599 -0.6626 -1.4003
11173TIP3    H254935   6.421   2.722   5.344 -1.9395  1.3851  0.9660
11174TIP3   OH254936   0.292   6.715   5.999 -0.1942  0.0079  0.4088
11174TIP3    H154937   0.224   6.660   6.037  0.4986 -0.7172  0.6332
11174TIP3    H254938   0.313   6.672   5.916  1.7464 -1.2490  1.4771
11175TIP3   OH254939   3.816   2.068  14.819 -0.2099 -0.0492  0.2711
11175TIP3    H154940   3.730   2.045  14.785 -0.5853  2.3052 -0.4992
11175TIP3    H254941   3.876   2.054  14.745  0.1530 -1.7335  0.8193
11176TIP3   OH254942   0.773   0.448  12.443  0.4185  0.0496 -0.3917
11176TIP3    H154943   0.801   0.539  12.433  0.4985  0.1116  0.3902
11176TIP3    H254944   0.798   0.406  12.360  2.5991  0.1641  0.1574
11177TIP3   OH254945   4.532   3.619  12.735 -0.0700  0.0729 -0.2550
11177TIP3    H154946   4.442   3.620  12.702 -0.4984 -0.5653  0.8085
11177TIP3    H254947   4.583   3.579  12.665 -0.7403 -0.1902 -0.6023
11178TIP3   OH254948   4.419   0.439   2.904 -0.6212 -0.5616 -0.6555
11178TIP3    H154949   4.418   0.394   2.820 -1.7426 -0.5981 -0.6259
11178TIP3    H254950   4.335   0.419   2.945 -0.3296 -0.0780  0.2297
11179TIP3   OH254951   0.045   6.284  11.798 -0.2273 -0.5594 -0.1290
11179TIP3    H154952   0.038   6.265  11.891  1.2890 -0.2937  0.0763
11179TIP3    H254953  -0.044   6.306  11.770 -0.6171 -0.1635  1.3536
11180TIP3   OH254954   1.845   0.750   5.463  0.3037  0.1868  0.4054
11180TIP3    H154955   1.760   0.718   5.434  0.9049 -0.2615 -0.9470
11180TIP3    H254956   1.835   0.844   5.469 -0.4558  0.0815  0.8467
11181TIP3   OH254957   1.403   0.308  11.344  0.2201 -0.2817 -0.3906
11181TIP3    H154958   1.466   0.296  11.415  1.0867 -0.2063 -1.1179
11181TIP3    H254959   1.393   0.220  11.307 -2.1397 -0.8290  1.3355
11182TIP3   OH254960   3.610   0.114  15.332  0.2372  0.2473  0.4579
11182TIP3    H154961   3.606   0.202  15.295 -1.1073 -0.6140 -1.6408
11182TIP3    H254962   3.558   0.118  15.412  2.2193  1.8926  1.7505
11183TIP3   OH254963   0.527   6.429   2.305 -0.6851 -0.4290  0.6139
11183TIP3    H154964   0.497   6.406   2.217 -1.1647  0.0796  0.6365
11183TIP3    H254965   0.449   6.420   2.359 -0.3057 -1.1000  1.0612
11184TIP3   OH254966   3.321   1.317  14.165  0.0818  0.2591  0.2354
11184TIP3    H154967   3.376   1.238  14.162 -2.8468 -1.9250 -0.9657
11184TIP3    H254968   3.307   1.340  14.073 -1.0413  0.7041  0.4946
11185TIP3   OH254969   3.271   6.461   0.027 -0.2322  0.2656 -0.5908
11185TIP3    H154970   3.251   6.405  -0.048 -0.4062  0.2727 -0.5517
11185TIP3    H254971   3.332   6.526  -0.007  0.1994 -0.1222 -0.5627
11186TIP3   OH254972   4.064   1.866  12.506 -0.1894  0.3607  0.1085
11186TIP3    H154973   4.086   1.957  12.526  0.2333  0.2317  0.2333
11186TIP3    H254974   4.091   1.817  12.584 -0.6369  0.1584  0.1388
11187TIP3   OH254975   3.502   5.387   6.491  0.4183  0.6023  0.0362
11187TIP3    H154976   3.539   5.432   6.416 -0.9188 -0.8004 -1.5561
11187TIP3    H254977   3.451   5.454   6.537 -0.6217  1.0338 -1.6373
11188TIP3   OH254978   6.037   6.487  16.290 -0.2810  0.1154  0.1531
11188TIP3    H154979   6.098   6.555  16.261 -2.2986  1.8500 -0.3169
11188TIP3    H254980   5.975   6.534  16.347  0.1034 -2.0204  2.5315
11189TIP3   OH254981   6.531   5.512  12.492 -0.0285  0.0133  0.7974
11189TIP3    H154982   6.562   5.479  12.576  1.0743 -0.2269  0.3172
11189TIP3    H254983   6.603   5.565  12.458 -1.3393  2.0569  1.0377
11190TIP3   OH254984   2.261   5.236   3.314 -0.1848 -0.4232 -0.2795
11190TIP3    H154985   2.197   5.285   3.262 -0.5795  0.2026  0.7511
11190TIP3    H254986   2.304   5.178   3.252 -0.2544  0.6817 -1.3932
11191TIP3   OH254987   6.366   0.671   2.814  0.3339 -0.3599  0.7697
11191TIP3    H154988   6.449   0.637   2.779  1.2291  1.5008  0.9724
11191TIP3    H254989   6.359   0.759   2.778 -1.8329 -0.6516  0.3803
11192TIP3   OH254990   6.455   3.095   5.085  0.0702  0.2458  0.2403
11192TIP3    H154991   6.489   3.160   5.024 -0.2703 -0.4089 -0.6656
11192TIP3    H254992   6.509   3.105   5.164 -0.1686  1.7999  0.2235
11193TIP3   OH254993   0.692   5.530  16.498  0.1459  0.5701  0.2528
11193TIP3    H154994   0.614   5.573  16.536 -1.0301 -0.3966 -0.9938
11193TIP3    H254995   0.657   5.459  16.444  1.9696 -0.7291  0.6884
11194TIP3   OH254996   1.350   5.428   0.755 -0.2981 -0.0103 -0.4934
11194TIP3    H154997   1.436   5.457   0.725 -0.9042  2.3670 -0.2007
11194TIP3    H254998   1.291   5.448   0.682 -0.9489  0.7011  0.2020
11195TIP3   OH254999   0.654   5.267  15.347 -0.6338  0.3266  0.0426
11195TIP3    H155000   0.738   5.239  15.310 -1.4159  0.8132 -2.2742
11195TIP3    H255001   0.653   5.229  15.435  1.8666  0.0677  0.0474
11196TIP3   OH255002   6.088   2.204  16.643  1.0257 -0.6015  0.3674
11196TIP3    H155003   6.108   2.213  16.550 -1.0663 -3.4137 -0.4974
11196TIP3    H255004   6.150   2.138  16.675  0.1653 -1.4884  0.2801
11197TIP3   OH255005   1.096   5.682   6.141  0.6674  0.4210 -0.5216
11197TIP3    H155006   1.046   5.727   6.209  1.7505  0.6918  0.1268
11197TIP3    H255007   1.181   5.665   6.182  1.3351  0.5623 -1.8056
11198TIP3   OH255008   5.153   3.389  13.648 -0.2576 -0.0242  0.4503
11198TIP3    H155009   5.108   3.420  13.569 -0.3256 -0.6659  0.2295
11198TIP3    H255010   5.187   3.303  13.623 -0.6251 -0.4093  1.2486
11199TIP3   OH255011   2.878   1.870   3.414  0.0022  0.1643  0.4827
11199TIP3    H155012   2.901   1.961   3.394 -1.0084  0.2834 -0.2429
11199TIP3    H255013   2.956   1.820   3.389 -0.4550  0.5349 -1.9483
11200TIP3   OH255014   6.163   0.178   3.624  0.2903 -0.0522 -0.5971
11200TIP3    H155015   6.238   0.120   3.632  0.7324  0.6677  0.8156
11200TIP3    H255016   6.161   0.202   3.531 -0.2618 -2.7108 -1.3680
11201TIP3   OH255017   6.480   1.519   1.791 -0.0672  0.4963  0.6011
11201TIP3    H155018   6.430   1.525   1.710  0.2056  0.2437  0.4140
11201TIP3    H255019   6.464   1.430   1.823 -1.1407  0.9654  1.4559
11202TIP3   OH255020   5.287   1.868   6.267  0.0755  0.1905  0.0206
11202TIP3    H155021   5.214   1.807   6.259 -0.9847  1.2676  1.1058
11202TIP3    H255022   5.363   1.812   6.284 -1.2040 -0.7996  3.1942
11203TIP3   OH255023   2.896   4.487  12.931  0.4926  0.0128 -0.5517
11203TIP3    H155024   2.912   4.515  12.841  1.2960 -1.2026 -0.8075
11203TIP3    H255025   2.976   4.511  12.978  0.0240  0.7636 -0.1209
11204TIP3   OH255026   6.760   1.431   4.791  0.1578 -0.2735 -0.1143
11204TIP3    H155027   6.698   1.365   4.758 -0.7635  1.1281 -1.3423
11204TIP3    H255028   6.790   1.477   4.712 -1.6296  2.7872  0.8240
11205TIP3   OH255029   4.907   6.752  12.148  0.6444 -0.3491  0.0264
11205TIP3    H155030   4.926   6.845  12.137 -1.1460 -0.0863 -1.3913
11205TIP3    H255031   4.881   6.744  12.240 -0.2547  0.7950 -0.1022
11206TIP3   OH255032   5.092   6.740   0.734 -0.2273  0.1275 -0.4448
11206TIP3    H155033   5.045   6.768   0.656 -0.7278  1.4338  0.2851
11206TIP3    H255034   5.139   6.818   0.763  0.9434 -0.6717 -0.1211
11207TIP3   OH255035   5.174   0.694  15.421  0.7106  0.1854  0.9240
11207TIP3    H155036   5.163   0.668  15.330 -1.6135 -1.7194  1.6422
11207TIP3    H255037   5.178   0.790  15.418  1.8193  0.1444 -1.2093
11208TIP3   OH255038   5.446   5.097   3.273  0.2482 -0.0061 -0.1384
11208TIP3    H155039   5.493   5.027   3.318  1.1509  1.1013  0.6912
11208TIP3    H255040   5.367   5.110   3.325  0.6800  0.4244  0.4119
11209TIP3   OH255041   5.189   6.320   2.059  0.3749  0.1798 -0.3239
11209TIP3    H155042   5.224   6.402   2.093  2.9004 -1.0178  0.1414
11209TIP3    H255043   5.211   6.321   1.966 -1.4704  0.8984 -0.8030
11210TIP3   OH255044   6.565   2.628   1.932 -0.3927  0.0791 -0.4631
11210TIP3    H155045   6.641   2.599   1.881 -1.3045 -1.7203 -0.8966
11210TIP3    H255046   6.575   2.723   1.939  1.3374  0.0053 -1.3852
11211TIP3   OH255047   6.317   4.172  14.877 -0.1389  0.4348 -0.0232
11211TIP3    H155048   6.288   4.141  14.962  1.4080 -1.2500 -0.0476
11211TIP3    H255049   6.376   4.245  14.897 -0.3682  0.5362  0.2898
11212TIP3   OH255050   0.957   4.705   5.587  0.2763  0.2670 -0.4308
11212TIP3    H155051   0.949   4.609   5.581  0.2125  0.2781 -0.5294
11212TIP3    H255052   1.050   4.720   5.603 -0.0961  0.0638  2.4415
11213TIP3   OH255053   4.341   6.109  11.908 -0.1517  0.1390  0.4164
11213TIP3    H155054   4.308   6.094  11.996 -0.9989  1.8440  0.4287
11213TIP3    H255055   4.322   6.201  11.890  1.3008  0.2188 -1.0083
11214TIP3   OH255056   1.639   2.466  13.883 -0.2315 -0.5534 -0.1287
11214TIP3    H155057   1.720   2.416  13.871 -1.0625 -2.3740  1.4494
11214TIP3    H255058   1.642   2.497  13.973 -0.8181  0.3297 -0.3934
11215TIP3   OH255059   6.014   1.312  14.011 -0.2024 -0.5620 -0.2314
11215TIP3    H155060   5.987   1.297  14.102 -0.6307 -0.1337 -0.2831
11215TIP3    H255061   6.107   1.291  14.011 -0.3634 -1.3082  0.1308
11216TIP3   OH255062   0.147   0.522   0.477 -0.0877  0.4301 -0.2453
11216TIP3    H155063   0.080   0.534   0.545  0.6650  0.1820  0.5489
11216TIP3    H255064   0.212   0.465   0.517  0.4795  0.4565 -1.1082
11217TIP3   OH255065   0.412   5.987   5.922 -0.1889  0.3675  0.1681
11217TIP3    H155066   0.379   6.068   5.883 -2.0458 -0.0326  0.8237
11217TIP3    H255067   0.375   5.986   6.011  1.6154 -0.1401  0.9671
11218TIP3   OH255068   6.170   0.622  16.474  0.1732  0.0371  0.1540
11218TIP3    H155069   6.204   0.644  16.387  0.3190  0.2550  0.2656
11218TIP3    H255070   6.206   0.535  16.493 -0.2684 -0.2340 -0.2178
11219TIP3   OH255071   0.093   6.053  13.668  0.1522  0.0275  0.3167
11219TIP3    H155072   0.043   6.002  13.731 -0.0235  0.3485  0.4413
11219TIP3    H255073   0.048   6.041  13.585 -0.1626  0.3554  0.4376
11220TIP3   OH255074   0.616   6.035  12.138 -0.3544 -0.4733 -0.0511
11220TIP3    H155075   0.527   6.010  12.114 -0.2244 -0.9459 -0.0485
11220TIP3    H255076   0.671   5.991  12.074 -0.1617  0.4421 -0.5351
11221TIP3   OH255077   5.186   5.449  16.732  0.0020  0.1844 -0.1807
11221TIP3    H155078   5.247   5.449  16.658 -0.1743 -1.4542 -0.3709
11221TIP3    H255079   5.224   5.387  16.794 -1.8464 -1.5535 -0.6728
11222TIP3   OH255080   3.893   6.384  16.951 -0.6263 -0.3513 -0.2609
11222TIP3    H155081   3.882   6.441  16.875  1.2585 -0.3973 -0.6199
11222TIP3    H255082   3.923   6.442  17.021 -0.8237 -0.5582 -0.0037
11223TIP3   OH255083   5.632   5.172  14.578  0.6988 -0.5573  0.4002
11223TIP3    H155084   5.716   5.185  14.533 -0.7127  0.1278 -2.2675
11223TIP3    H255085   5.617   5.254  14.625  1.0986 -0.2928  0.0766
11224TIP3   OH255086   6.597   4.747   3.849 -0.0125  0.2624  0.4026
11224TIP3    H155087   6.593   4.652   3.837  2.1031  0.3071 -1.4384
11224TIP3    H255088   6.519   4.780   3.806  0.3494 -0.5462 -0.9406
11225TIP3   OH255089   6.117   1.542   1.318  0.3125 -0.4990  0.4594
11225TIP3    H155090   6.091   1.576   1.404 -1.3709 -0.8250  0.1259
11225TIP3    H255091   6.122   1.620   1.263 -0.8962 -0.4757  0.3366
11226TIP3   OH255092   1.968   3.809   3.092 -0.1161 -0.3648  0.4553
11226TIP3    H155093   1.908   3.735   3.092 -1.2337  0.5185 -0.0521
11226TIP3    H255094   1.912   3.886   3.098  0.9062  0.5257 -0.8611
11227TIP3   OH255095   1.382   2.608  14.252 -0.5716 -0.2987 -0.2358
11227TIP3    H155096   1.446   2.649  14.310 -1.1638 -0.2789  0.4162
11227TIP3    H255097   1.384   2.661  14.172  0.5774 -0.5937 -0.4152
11228TIP3   OH255098   2.047   5.280   5.498 -0.1750  0.3014  0.7316
11228TIP3    H155099   2.118   5.298   5.560 -0.0731 -0.1996  0.7636
11228TIP3    H255100   1.968   5.315   5.541 -0.1472 -0.2670  1.2655
11229TIP3   OH255101   0.413   4.175  16.965 -0.7322  0.0368  0.0518
11229TIP3    H155102   0.415   4.270  16.957  2.2214  0.0221 -0.4897
11229TIP3    H255103   0.474   4.155  17.035 -1.1972 -1.4856  0.0639
11230TIP3   OH255104   2.704   4.635   0.378  0.4243 -0.3840  0.0574
11230TIP3    H155105   2.710   4.549   0.337 -1.0394  0.2934 -1.6936
11230TIP3    H255106   2.774   4.687   0.337 -0.4844  0.0391 -1.0124
11231TIP3   OH255107   2.991   1.770   6.185 -0.3510 -0.1978 -0.2973
11231TIP3    H155108   2.988   1.677   6.206  1.5632 -0.1910  0.2845
11231TIP3    H255109   2.927   1.810   6.243 -0.6525 -1.0691 -0.0159
11232TIP3   OH255110   6.501   6.358   1.751  0.0680  0.0978 -0.3366
11232TIP3    H155111   6.537   6.446   1.742 -0.5202  0.4287  0.3875
11232TIP3    H255112   6.497   6.324   1.662 -0.4080  1.0999 -0.7106
11233TIP3   OH255113   6.336   3.503   0.339  0.4595  0.2437  0.3248
11233TIP3    H155114   6.416   3.452   0.332 -0.3782 -0.9457 -1.2270
11233TIP3    H255115   6.269   3.440   0.364 -0.3654  0.7858 -0.4267
11234TIP3   OH255116   0.221   1.660  16.070 -0.0667 -0.5977 -0.2500
11234TIP3    H155117   0.219   1.601  15.994 -2.2499 -0.0402 -0.6928
11234TIP3    H255118   0.243   1.745  16.032  2.4953 -0.9378  0.3095
11235TIP3   OH255119   1.900   1.828  13.178 -0.1276  0.1010 -1.0071
11235TIP3    H155120   1.902   1.877  13.260 -2.6384  0.3331 -1.0201
11235TIP3    H255121   1.818   1.854  13.136  0.0563 -1.6471 -2.5900
11236TIP3   OH255122   2.634   2.509   1.026  0.5384 -0.5840  0.1239
11236TIP3    H155123   2.639   2.482   1.118 -1.5226 -0.3030  0.3579
11236TIP3    H255124   2.704   2.460   0.983  0.7072 -1.7042  1.6055
11237TIP3   OH255125   1.118   2.752   3.556  0.2175 -0.0117 -0.2616
11237TIP3    H155126   1.135   2.708   3.639  1.0408  2.0977  0.7661
11237TIP3    H255127   1.101   2.843   3.580 -0.1920  0.5236 -2.3653
11238TIP3   OH255128   2.452   0.158   2.712 -0.4849  0.2042  0.2909
11238TIP3    H155129   2.363   0.123   2.701 -0.6546  0.0416  1.9265
11238TIP3    H255130   2.446   0.248   2.678 -1.7715  0.8151  1.9897
11239TIP3   OH255131   2.148   6.516  12.822  0.1962  0.3018  0.0267
11239TIP3    H155132   2.093   6.572  12.876 -1.4350 -0.4657 -0.7775
11239TIP3    H255133   2.155   6.434  12.871 -1.0535 -0.2959 -0.7522
11240TIP3   OH255134   2.562   3.311  10.746 -0.1775 -0.0159  0.2149
11240TIP3    H155135   2.612   3.313  10.664 -2.3197 -0.2985 -1.1612
11240TIP3    H255136   2.584   3.226  10.785  1.7612  0.5992  0.5900
11241TIP3   OH255137   3.187   3.868   1.914 -0.1009 -0.3244  0.1484
11241TIP3    H155138   3.093   3.849   1.911 -0.0383 -0.8116  0.8837
11241TIP3    H255139   3.199   3.916   1.997  0.1507  0.6214 -0.4248
11242TIP3   OH255140   1.193   3.448   1.103  0.7856 -0.2249  0.3951
11242TIP3    H155141   1.275   3.495   1.111  0.2197  0.7580  0.5064
11242TIP3    H255142   1.165   3.463   1.013  1.0852 -1.1771  0.1288
11243TIP3   OH255143   6.607   1.620   3.398  0.1992  0.1534 -0.2520
11243TIP3    H155144   6.692   1.636   3.441 -0.8699  1.4727  1.5331
11243TIP3    H255145   6.622   1.544   3.343  2.4226  0.0497  0.3971
11244TIP3   OH255146   4.789   1.720  13.338  0.1849  0.2278 -0.7389
11244TIP3    H155147   4.846   1.797  13.348 -0.3054  0.8293 -2.3138
11244TIP3    H255148   4.737   1.739  13.260 -0.5932 -1.3141 -0.6204
11245TIP3   OH255149   1.788   6.226   1.100 -0.4337 -0.3057  0.3447
11245TIP3    H155150   1.863   6.202   1.155 -1.6319  2.6219  3.6623
11245TIP3    H255151   1.816   6.305   1.054 -1.4204  1.0251  1.8847
11246TIP3   OH255152   5.430   4.976   3.788  0.3562 -0.4522  0.0275
11246TIP3    H155153   5.414   4.912   3.719  2.5806 -0.8348 -0.2192
11246TIP3    H255154   5.470   5.051   3.743 -1.1324  0.6577  0.4788
11247TIP3   OH255155   4.248   3.003   5.511  0.4751  0.2434  0.0350
11247TIP3    H155156   4.285   2.997   5.423  1.7619  1.9363  0.4231
11247TIP3    H255157   4.324   3.008   5.569 -0.3521  1.1957  1.0836
11248TIP3   OH255158   0.156   5.674   2.625 -0.0523  0.3731  0.2484
11248TIP3    H155159   0.120   5.711   2.544  0.2939  1.6931  0.6641
11248TIP3    H255160   0.114   5.725   2.695  2.7931  2.2735  0.7520
11249TIP3   OH255161   3.252   1.843   2.673  0.5113 -0.6040  0.1953
11249TIP3    H155162   3.269   1.837   2.579  0.2778 -0.1505  0.1221
11249TIP3    H255163   3.161   1.817   2.682  0.6600 -1.0797  0.3511
11250TIP3   OH255164   1.279   2.261   5.099 -0.1193 -0.1703  0.0434
11250TIP3    H155165   1.329   2.259   5.180  0.7438 -1.3028 -0.4918
11250TIP3    H255166   1.334   2.311   5.038  0.0016 -0.7286 -0.3117
11251TIP3   OH255167   1.506   2.153  15.361 -0.1162 -1.0162  0.6309
11251TIP3    H155168   1.448   2.227  15.381 -0.6806 -1.4551  0.6528
11251TIP3    H255169   1.470   2.116  15.280  0.5401 -0.8872  0.2740
11252TIP3   OH255170   5.471   2.333  16.809 -0.0033 -0.0349  0.5481
11252TIP3    H155171   5.535   2.302  16.744 -0.7943 -1.5046  0.4277
11252TIP3    H255172   5.458   2.425  16.787  2.1277  0.3570  0.6442
11253TIP3   OH255173   0.177   5.235   5.949  0.0066  0.1486  0.2335
11253TIP3    H155174   0.224   5.216   6.030  2.2839 -0.0867 -1.0614
11253TIP3    H255175   0.141   5.323   5.962 -0.6872 -0.3430  1.8993
11254TIP3   OH255176   3.611   6.517   5.580 -0.0823  0.4842 -0.8516
11254TIP3    H155177   3.567   6.435   5.600 -1.1060  1.2183  0.0180
11254TIP3    H255178   3.692   6.491   5.535 -0.1922 -0.9994 -0.2363
11255TIP3   OH255179   6.784   1.817  12.942  0.4549  0.3621  0.5241
11255TIP3    H155180   6.812   1.731  12.911 -1.6344 -1.2036  2.5674
11255TIP3    H255181   6.697   1.829  12.903  0.7860  1.6711  0.1314
11256TIP3   OH255182   6.413   6.468  14.480 -0.0219  0.3841 -0.2694
11256TIP3    H155183   6.363   6.395  14.517  0.1235  0.5371  0.2357
11256TIP3    H255184   6.358   6.500  14.408  0.0151 -0.3584 -0.6389
11257TIP3   OH255185   4.816   5.774  11.901  0.3341  0.2790 -0.4355
11257TIP3    H155186   4.766   5.708  11.949  1.1806 -0.1324 -0.1002
11257TIP3    H255187   4.752   5.842  11.882 -0.9967 -1.3639 -2.2808
11258TIP3   OH255188   3.351   1.682  15.085 -0.1021  0.3018 -0.0152
11258TIP3    H155189   3.306   1.666  15.002  0.0719  1.6814 -0.3973
11258TIP3    H255190   3.281   1.694  15.148 -0.2869  1.6211 -0.4467
11259TIP3   OH255191   4.182   6.584   5.230 -0.6532  0.3637  0.0248
11259TIP3    H155192   4.166   6.591   5.136  0.1140 -2.7283 -0.4372
11259TIP3    H255193   4.108   6.532   5.263 -0.3039  0.4091  0.9089
11260TIP3   OH255194   0.901   0.745   0.915 -0.6864  0.0200 -0.3523
11260TIP3    H155195   0.937   0.759   0.828 -1.9922 -0.5807 -1.0136
11260TIP3    H255196   0.856   0.827   0.935 -2.7619 -0.7767 -1.4633
11261TIP3   OH255197   3.049   4.809   5.465 -0.2350  0.6820  0.2439
11261TIP3    H155198   3.031   4.746   5.395 -0.8279  2.4225 -1.2650
11261TIP3    H255199   3.101   4.878   5.422  0.8463  0.9850  1.9508
11262TIP3   OH255200   5.931   6.243   4.743 -0.2510 -0.0185  0.1247
11262TIP3    H155201   5.985   6.318   4.719 -0.1589 -0.5127 -1.3504
11262TIP3    H255202   5.870   6.276   4.809  1.5256  0.6698  1.5066
11263TIP3   OH255203   0.192   2.446  11.988 -0.1967 -1.0769  0.0040
11263TIP3    H155204   0.105   2.429  11.953  0.2173  0.0743 -1.6917
11263TIP3    H255205   0.175   2.492  12.070 -1.1952 -0.4479 -0.5282
11264TIP3   OH255206   1.249   5.291  11.213  0.0758 -0.8437  0.0749
11264TIP3    H155207   1.254   5.260  11.123  1.7647 -0.9880  0.1909
11264TIP3    H255208   1.222   5.383  11.205  0.7994 -0.6779 -0.6276
11265TIP3   OH255209   4.580   2.468  15.131 -0.0917  0.4956  0.0469
11265TIP3    H155210   4.553   2.533  15.196 -2.2967 -1.0502  0.8194
11265TIP3    H255211   4.523   2.393  15.148  0.8299 -0.8177 -2.2385
11266TIP3   OH255212   0.146   3.907   6.278  0.7924  0.5977 -0.2116
11266TIP3    H155213   0.212   3.839   6.263 -0.1044 -0.1966 -0.6255
11266TIP3    H255214   0.093   3.907   6.199 -1.9314 -1.3033  1.4193
11267TIP3   OH255215   4.612   2.759   4.218  0.2022 -0.1285 -0.5665
11267TIP3    H155216   4.531   2.742   4.170 -0.1591  0.7425 -0.2766
11267TIP3    H255217   4.644   2.842   4.181  0.4581  0.0184 -0.0236
11268TIP3   OH255218   6.229   4.290   2.503 -0.4026 -0.4594 -0.0850
11268TIP3    H155219   6.219   4.347   2.579 -0.3729  1.1796 -1.2547
11268TIP3    H255220   6.144   4.246   2.495  0.0692 -1.8327  1.7357
11269TIP3   OH255221   2.682   5.190   1.064  0.0842 -0.0671 -0.5637
11269TIP3    H155222   2.651   5.146   1.143 -1.6710  1.7272 -0.1751
11269TIP3    H255223   2.756   5.137   1.035 -0.3753 -1.8286  1.2247
11270TIP3   OH255224   5.892   1.252   2.294  0.0256 -0.4681 -0.2130
11270TIP3    H155225   5.894   1.264   2.199  0.1854 -1.5653 -0.3554
11270TIP3    H255226   5.861   1.336   2.328  1.0695  0.3268 -1.1521
11271TIP3   OH255227   0.746   5.017  10.891  0.0450  0.0445  0.0139
11271TIP3    H155228   0.796   5.035  10.812  0.4461  0.6709  0.4032
11271TIP3    H255229   0.775   5.083  10.954 -0.3545 -0.3682  0.6476
11272TIP3   OH255230   2.199   0.470   3.431  0.7511 -0.4111 -0.7139
11272TIP3    H155231   2.223   0.383   3.464  0.0212 -0.9309 -1.5084
11272TIP3    H255232   2.116   0.490   3.476  0.8761 -0.1583 -0.5934
11273TIP3   OH255233   3.715   4.867  10.680  0.2604 -0.2061 -0.3096
11273TIP3    H155234   3.709   4.791  10.738  1.4367 -1.2551 -1.4999
11273TIP3    H255235   3.809   4.879  10.665  0.4740  3.8589  2.7855
11274TIP3   OH255236   6.018   3.157  16.463 -0.2157 -0.1406 -0.6536
11274TIP3    H155237   5.926   3.173  16.446 -0.3312 -1.6760 -1.7388
11274TIP3    H255238   6.064   3.224  16.413 -0.7266 -0.5226 -1.6695
11275TIP3   OH255239   1.860   4.781  16.545 -0.2662 -0.6132  0.6572
11275TIP3    H155240   1.932   4.726  16.515 -1.3511 -1.5835 -0.2520
11275TIP3    H255241   1.892   4.819  16.627  0.8264 -1.9619  0.9002
11276TIP3   OH255242   0.308   5.388  14.917 -0.2711  0.3938  0.1190
11276TIP3    H155243   0.270   5.312  14.873 -0.2110  1.4729 -1.9586
11276TIP3    H255244   0.234   5.431  14.959 -0.5749  0.0114 -0.0211
11277TIP3   OH255245   2.327   6.457   4.748  0.4616  0.0736  0.1829
11277TIP3    H155246   2.297   6.545   4.773  1.6738  0.0331  1.8873
11277TIP3    H255247   2.246   6.408   4.732 -0.2402  1.3906 -0.5031
11278TIP3   OH255248   5.616   1.795  13.602 -0.0255  0.4556 -0.5149
11278TIP3    H155249   5.620   1.837  13.516  1.6470  1.4062 -0.0107
11278TIP3    H255250   5.707   1.781  13.627 -0.4835 -0.2499  0.9033
11279TIP3   OH255251   1.281   3.737  12.352 -0.1311  0.3485  0.4697
11279TIP3    H155252   1.212   3.677  12.324  1.2692 -1.7250  1.1764
11279TIP3    H255253   1.260   3.757  12.443  0.8860 -1.5117  1.1886
11280TIP3   OH255254   5.426   3.428  16.099 -0.7019 -0.0535 -0.2813
11280TIP3    H155255   5.413   3.399  16.190  0.9501 -0.3256 -0.1003
11280TIP3    H255256   5.394   3.518  16.098 -0.9804 -0.1329  0.5136
11281TIP3   OH255257   5.274   3.460  16.947  0.1139 -0.3800  0.3704
11281TIP3    H155258   5.282   3.371  16.913  0.8695  0.1387 -0.9085
11281TIP3    H255259   5.211   3.454  17.018 -0.6909 -1.7375 -0.4294
11282TIP3   OH255260   3.291   4.571   0.028  0.0765  0.4113  0.0649
11282TIP3    H155261   3.353   4.569   0.101 -0.4308 -0.4688  0.4907
11282TIP3    H255262   3.344   4.599  -0.048  1.0283 -0.4339  0.3901
11283TIP3   OH255263   4.618   6.049  15.965 -0.2896  0.1035 -0.2979
11283TIP3    H155264   4.604   5.965  15.921 -1.0235 -0.2133  0.5251
11283TIP3    H255265   4.535   6.067  16.010  0.1879  0.7975  0.3206
11284TIP3   OH255266   5.815   2.710   2.296  0.0534 -0.0071 -0.3859
11284TIP3    H155267   5.749   2.669   2.241 -0.8567  0.0962  0.5879
11284TIP3    H255268   5.847   2.784   2.245 -0.1654 -0.4016 -1.1046
11285TIP3   OH255269   3.705   3.187   5.212  0.3601  0.2009 -0.4539
11285TIP3    H155270   3.763   3.239   5.156 -0.8169  2.3592  0.2363
11285TIP3    H255271   3.762   3.155   5.282  1.4123 -0.8079 -1.7076
11286TIP3   OH255272   5.168   2.090  15.234 -0.3867  0.3670 -0.5171
11286TIP3    H155273   5.089   2.083  15.288  0.1643  1.4598  0.4761
11286TIP3    H255274   5.239   2.106  15.297  0.2852  1.6228 -1.5430
11287TIP3   OH255275   1.313   0.931  12.614 -0.1539  0.0217 -0.5267
11287TIP3    H155276   1.297   0.990  12.541  0.7597  0.9585  0.0050
11287TIP3    H255277   1.406   0.942  12.634 -0.3761 -0.2362  0.7531
11288TIP3   OH255278   1.355   1.574   2.585  0.0828  0.4875  0.4474
11288TIP3    H155279   1.365   1.646   2.648  3.7631  0.2993  0.2989
11288TIP3    H255280   1.445   1.546   2.566 -1.0504 -1.8381 -2.2120
11289TIP3   OH255281   6.167   2.306  11.788 -0.0923 -0.3772 -0.1059
11289TIP3    H155282   6.078   2.337  11.772  0.3658  0.4370 -1.2183
11289TIP3    H255283   6.202   2.367  11.854  0.5776  1.1426 -1.7907
11290TIP3   OH255284   5.240   3.502   5.294 -0.4570  0.1857 -0.1409
11290TIP3    H155285   5.188   3.543   5.362 -3.1343  0.4209 -2.1703
11290TIP3    H255286   5.257   3.572   5.231  0.9213 -0.2883 -0.3334
11291TIP3   OH255287   5.504   5.938   4.747  0.1562 -0.2096  0.0013
11291TIP3    H155288   5.533   5.871   4.809 -0.7800 -0.1368  0.5252
11291TIP3    H255289   5.473   6.010   4.801  1.8678  1.0253 -0.5400
11292TIP3   OH255290   2.552   3.426  13.626  0.0800  0.0383 -0.2229
11292TIP3    H155291   2.602   3.503  13.652 -1.3438  1.3058 -1.0794
11292TIP3    H255292   2.618   3.358  13.612  1.3494  0.9975  0.8451
11293TIP3   OH255293   4.110   2.800  16.601  0.0125 -0.1274  0.1677
11293TIP3    H155294   4.143   2.848  16.526 -0.4679 -1.5626 -1.0042
11293TIP3    H255295   4.036   2.749  16.568 -0.8582 -0.0344  1.8371
11294TIP3   OH255296   3.253   1.201   5.506 -0.0634  0.0068  0.2878
11294TIP3    H155297   3.204   1.143   5.563 -2.1975  0.6890 -0.7655
11294TIP3    H255298   3.252   1.158   5.420 -1.7021  1.5301 -0.5213
11295TIP3   OH255299   0.925   2.689  11.292  0.3072 -0.4410 -0.3637
11295TIP3    H155300   0.898   2.722  11.206  0.9717  0.9932 -0.0368
11295TIP3    H255301   0.843   2.660  11.332 -0.3578  1.0708 -0.5671
11296TIP3   OH255302   5.885   4.793   2.015  0.4425 -0.0920 -0.2328
11296TIP3    H155303   5.823   4.753   1.953  2.4081 -1.5811 -1.3316
11296TIP3    H255304   5.901   4.725   2.080 -1.3076  1.3317  1.8123
11297TIP3   OH255305   1.083   0.447   3.929  0.4014 -0.1947  0.6222
11297TIP3    H155306   1.033   0.524   3.953  0.8059  0.0640  0.6426
11297TIP3    H255307   1.153   0.442   3.995  0.5845 -0.3769  0.4165
11298TIP3   OH255308   0.220   5.524  15.884  0.2430 -0.2919  0.0187
11298TIP3    H155309   0.153   5.577  15.928  0.4995 -0.4511  0.6176
11298TIP3    H255310   0.180   5.438  15.874 -0.2078  0.0329 -1.0384
11299TIP3   OH255311   6.144   1.785   1.197  0.0327  1.2586 -0.1825
11299TIP3    H155312   6.234   1.771   1.169 -0.4598 -0.4032 -1.0900
11299TIP3    H255313   6.124   1.874   1.170  0.9322  1.1269 -1.3666
11300TIP3   OH255314   5.334   3.125  10.654 -0.0389  0.1826 -0.2445
11300TIP3    H155315   5.260   3.147  10.711  0.0327 -0.5959  0.1494
11300TIP3    H255316   5.361   3.210  10.618 -0.3246  0.6348  0.5805
11301TIP3   OH255317   5.761   5.875  16.996  0.0502  0.2291 -0.4035
11301TIP3    H155318   5.747   5.932  17.072 -2.6141 -0.9274  0.0863
11301TIP3    H255319   5.776   5.788  17.034 -0.2005 -0.1614 -1.1912
11302TIP3   OH255320   4.100   2.935  14.923  0.2888  0.4369 -0.6468
11302TIP3    H155321   4.087   2.978  14.838  2.0583  1.3034 -0.5131
11302TIP3    H255322   4.011   2.914  14.952 -0.5246  2.3559 -1.5664
11303TIP3   OH255323   1.658   3.751   4.419 -0.0246  0.0106  0.6109
11303TIP3    H155324   1.702   3.827   4.457 -1.5488  1.1026  0.3375
11303TIP3    H255325   1.727   3.701   4.376  0.8332  2.1871 -0.7244
11304TIP3   OH255326   2.165   3.961  12.323  0.5451 -0.2357 -0.0025
11304TIP3    H155327   2.257   3.986  12.331  0.4848 -0.2887  0.9933
11304TIP3    H255328   2.121   4.042  12.298  0.5376  0.4281  1.9391
11305TIP3   OH255329   6.731   0.465  11.224  0.4078 -0.1953 -0.3093
11305TIP3    H155330   6.778   0.385  11.201  1.7548  0.4582  0.0301
11305TIP3    H255331   6.752   0.526  11.154 -1.4440 -0.4133 -1.1061
11306TIP3   OH255332   3.598   0.808   3.460  1.0925 -0.4334  0.4571
11306TIP3    H155333   3.619   0.862   3.384  0.3795  0.4950  0.8918
11306TIP3    H255334   3.628   0.720   3.437  3.8994  0.4385  0.3844
11307TIP3   OH255335   3.329   1.071  11.903  0.2559 -0.5302 -0.3661
11307TIP3    H155336   3.315   1.030  11.817  0.8848 -0.9240 -0.2822
11307TIP3    H255337   3.245   1.113  11.922 -0.0080 -0.7379 -1.0123
11308TIP3   OH255338   5.444   1.854  16.264 -0.0640 -0.2019  0.1860
11308TIP3    H155339   5.529   1.855  16.309  0.0555 -1.3324  0.0088
11308TIP3    H255340   5.460   1.900  16.182  0.1436  0.3791  0.5431
11309TIP3   OH255341   0.211   1.091  15.086  0.4201 -0.5268  0.1093
11309TIP3    H155342   0.183   1.000  15.101  0.9331 -0.5402  1.0549
11309TIP3    H255343   0.129   1.140  15.079  0.1312 -0.8164  1.2183
11310TIP3   OH255344   3.464   6.508  10.611 -0.4313 -0.2266 -0.2649
11310TIP3    H155345   3.427   6.441  10.554 -2.8741  2.1080 -1.6029
11310TIP3    H255346   3.484   6.581  10.553  1.2047  0.6498  1.3016
11311TIP3   OH255347   4.067   3.879  11.153 -0.4862 -0.7680  0.9074
11311TIP3    H155348   4.082   3.968  11.184  2.1573 -0.3700 -1.1220
11311TIP3    H255349   3.995   3.886  11.090  1.1333  0.4444 -0.9059
11312TIP3   OH255350   1.175   4.497   1.552  0.2618  0.0389 -0.3364
11312TIP3    H155351   1.208   4.587   1.559 -0.8349  0.3531  1.6233
11312TIP3    H255352   1.204   4.468   1.466  2.3867  1.5577 -0.2430
11313TIP3   OH255353   3.329   4.093   3.660 -0.1464  0.7388 -0.3524
11313TIP3    H155354   3.276   4.155   3.611  0.0860  2.6576  1.6625
11313TIP3    H255355   3.267   4.028   3.692 -1.2432  2.5285  1.3388
11314TIP3   OH255356   5.905   5.945  11.876  0.1303  0.5043 -0.1197
11314TIP3    H155357   5.896   6.039  11.856 -0.3560  0.8385  1.4822
11314TIP3    H255358   5.996   5.936  11.903  0.6356  0.1602 -1.8338
11315TIP3   OH255359   4.160   0.944  13.178 -0.2469  0.7132 -0.1983
11315TIP3    H155360   4.220   0.899  13.237 -0.4174  0.9868  0.1956
11315TIP3    H255361   4.076   0.944  13.225  0.1402  2.9770  0.6347
11316TIP3   OH255362   2.563   3.814   3.900  0.3570  0.4586 -0.1058
11316TIP3    H155363   2.497   3.873   3.862 -0.2501 -1.1050 -1.5779
11316TIP3    H255364   2.645   3.842   3.861 -0.3964 -1.9550 -3.9260
11317TIP3   OH255365   6.464   6.802   2.958  1.0099 -0.6889 -0.1769
11317TIP3    H155366   6.510   6.885   2.945 -0.5917  0.2288 -0.3364
11317TIP3    H255367   6.408   6.818   3.035 -2.5727  0.0015 -2.6426
11318TIP3   OH255368   0.389   5.042  13.332 -0.7066  0.5590 -0.6509
11318TIP3    H155369   0.459   5.042  13.267 -1.2293  1.5157 -1.2310
11318TIP3    H255370   0.409   5.114  13.391  0.3966 -1.0118  0.9965
11319TIP3   OH255371   1.999   6.085   6.292 -0.6953 -0.5017  0.1458
11319TIP3    H155372   1.925   6.144   6.301 -0.6208 -0.3347 -0.2901
11319TIP3    H255373   1.974   6.007   6.341 -1.6119 -0.8708 -0.8660
11320TIP3   OH255374   4.218   0.725  10.885  0.2958  0.3644 -0.1300
11320TIP3    H155375   4.178   0.705  10.800 -0.8578  0.1844  0.4326
11320TIP3    H255376   4.278   0.652  10.901 -1.1187 -0.7754  0.1972
11321TIP3   OH255377   2.599   6.657  11.427  0.0097 -0.2627  0.3503
11321TIP3    H155378   2.622   6.590  11.363  1.6894  1.0416 -0.5006
11321TIP3    H255379   2.592   6.738  11.376  2.0092  0.9348  1.8218
11322TIP3   OH255380   6.408   0.771  15.025 -0.3146 -0.4293  0.0582
11322TIP3    H155381   6.397   0.816  15.108 -0.4496  0.2510 -0.3207
11322TIP3    H255382   6.470   0.700  15.044  2.3700  1.7366  0.0450
11323TIP3   OH255383   3.348   5.560  14.579  0.1599 -0.0903 -0.2036
11323TIP3    H155384   3.369   5.645  14.618 -0.5066  0.1687 -0.3940
11323TIP3    H255385   3.255   5.566  14.557  0.3353 -0.5250 -1.1067
11324TIP3   OH255386   1.454   3.752  12.106 -0.0368  0.7442  0.7131
11324TIP3    H155387   1.393   3.730  12.176  0.3454 -0.2143  0.7657
11324TIP3    H255388   1.522   3.804  12.149  0.7600 -0.7279  1.3115
11325TIP3   OH255389   4.312   3.578   4.705  0.0166  0.0755  0.2424
11325TIP3    H155390   4.367   3.523   4.760  0.2098  0.3310  0.3095
11325TIP3    H255391   4.351   3.665   4.712  0.7609 -0.1110 -1.2444
11326TIP3   OH255392   2.831   5.727   0.255  0.3329 -0.5250  0.0197
11326TIP3    H155393   2.786   5.744   0.172 -2.4353 -1.3260  1.2218
11326TIP3    H255394   2.846   5.813   0.294 -0.7815 -0.2398 -0.1576
11327TIP3   OH255395   1.324   0.622  11.885 -0.3020  0.5023  0.3762
11327TIP3    H155396   1.337   0.597  11.794 -0.8573 -1.1258  0.7035
11327TIP3    H255397   1.313   0.717  11.883  2.4713  0.9094 -0.9124
11328TIP3   OH255398   0.800   6.162   4.870 -0.1959 -0.3621 -0.2177
11328TIP3    H155399   0.784   6.086   4.925 -1.0861  0.4924  0.7422
11328TIP3    H255400   0.861   6.216   4.919 -0.1335 -0.1017 -0.5738
11329TIP3   OH255401   2.731   2.662   3.055 -0.1655 -0.1894  0.0817
11329TIP3    H155402   2.756   2.672   2.963  2.0164  1.1250  0.7652
11329TIP3    H255403   2.696   2.748   3.079  0.4337 -0.1442  0.8028
11330TIP3   OH255404   1.714   1.424  13.259  0.0335 -0.3691 -0.1419
11330TIP3    H155405   1.767   1.445  13.182 -0.1091 -0.0607 -0.1578
11330TIP3    H255406   1.773   1.375  13.316  0.0492 -0.8659 -0.5783
11331TIP3   OH255407   2.804   4.849   5.619  0.4344  0.3557  0.0444
11331TIP3    H155408   2.780   4.935   5.654  1.8096  1.7905 -2.2971
11331TIP3    H255409   2.856   4.868   5.541  2.2426 -2.5958  0.3532
11332TIP3   OH255410   6.510   4.419  14.305 -0.8448  0.4151  0.4970
11332TIP3    H155411   6.456   4.341  14.313 -1.3898  0.6851 -0.3441
11332TIP3    H255412   6.502   4.464  14.389 -1.0082 -0.1298  0.7721
11333TIP3   OH255413   3.154   1.158  15.524 -0.3163 -0.2537  0.3981
11333TIP3    H155414   3.146   1.153  15.619 -0.9646  2.5625  0.5863
11333TIP3    H255415   3.220   1.225  15.509  0.8193 -1.6412 -1.2020
11334TIP3   OH255416   2.965   5.010   2.530  0.3921 -0.5710 -0.8433
11334TIP3    H155417   3.060   5.007   2.523  0.4863 -1.7983  0.5328
11334TIP3    H255418   2.938   5.073   2.462  2.2540  0.8433 -0.3518
11335TIP3   OH255419   0.839   1.898   5.489  0.5647  0.0914  0.7106
11335TIP3    H155420   0.909   1.883   5.553  1.9301  0.2015 -0.6822
11335TIP3    H255421   0.774   1.951   5.536  1.6368  0.3704  1.9320
11336TIP3   OH255422   5.592   5.288   3.943  0.0326 -0.1235 -0.6560
11336TIP3    H155423   5.574   5.278   3.849  2.6311 -1.6551 -1.0810
11336TIP3    H255424   5.536   5.222   3.985  0.7036 -1.2034 -1.4048
11337TIP3   OH255425   3.977   4.970   5.457 -0.2048  0.0406  0.3770
11337TIP3    H155426   4.005   4.942   5.544  0.0338 -3.8683 -0.7585
11337TIP3    H255427   4.058   4.988   5.409 -0.2269  0.0822  0.3547
11338TIP3   OH255428   2.129   2.229   2.200  0.3867  0.7648  0.4483
11338TIP3    H155429   2.105   2.148   2.155 -1.0666  1.1582  0.4734
11338TIP3    H255430   2.223   2.238   2.185  0.5999 -0.9765  0.5339
11339TIP3   OH255431   3.111   0.564  11.180 -0.3478 -0.0046 -0.1320
11339TIP3    H155432   3.105   0.470  11.197 -0.2878  0.2508  1.5369
11339TIP3    H255433   3.063   0.577  11.098  0.9622 -1.6739 -1.2383
11340TIP3   OH255434   1.130   1.329   5.266 -0.6495  0.3278 -0.2271
11340TIP3    H155435   1.042   1.328   5.304 -0.6213 -0.0025 -0.1692
11340TIP3    H255436   1.171   1.408   5.303 -1.2264  0.9930 -0.9615
11341TIP3   OH255437   6.810   6.201   5.354 -0.4391 -0.6887  0.3880
11341TIP3    H155438   6.755   6.258   5.299  1.6177  0.6321 -0.4007
11341TIP3    H255439   6.777   6.113   5.336 -1.6627 -0.0357 -0.7902
11342TIP3   OH255440   4.357   5.146   5.715 -0.0388  0.1135 -0.0782
11342TIP3    H155441   4.333   5.070   5.768  0.8246  0.7262  1.2621
11342TIP3    H255442   4.451   5.135   5.698  0.4351  1.5215  1.3372
11343TIP3   OH255443   3.595   2.179   5.370 -0.4216  0.4708 -0.5757
11343TIP3    H155444   3.552   2.258   5.336 -1.5740  0.2781  0.3644
11343TIP3    H255445   3.528   2.137   5.425  0.4937 -0.6498 -0.2798
11344TIP3   OH255446   3.225   1.736  10.959  0.6070  0.1768 -0.1410
11344TIP3    H155447   3.151   1.696  10.914 -1.2955  1.7892  1.3832
11344TIP3    H255448   3.280   1.662  10.986  0.4755 -0.9603 -2.7143
11345TIP3   OH255449   3.156   4.339   1.888 -0.7014  0.6103  0.7750
11345TIP3    H155450   3.179   4.251   1.858  0.8633  1.3068 -0.2106
11345TIP3    H255451   3.185   4.341   1.979 -1.4915 -0.1414  1.0516
11346TIP3   OH255452   5.338   0.362   3.710  0.0180  0.2671  0.5706
11346TIP3    H155453   5.383   0.304   3.770  1.1271 -0.3583 -0.8255
11346TIP3    H255454   5.383   0.351   3.626  0.7925  3.6702  0.3849
11347TIP3   OH255455   4.955   3.654  16.476 -0.3320  0.2900 -0.3148
11347TIP3    H155456   5.002   3.735  16.493 -1.6229  1.2668 -1.2026
11347TIP3    H255457   5.023   3.590  16.454  0.6641  1.2519 -0.1109
11348TIP3   OH255458   3.079   1.509   3.884 -0.4199  0.2180  0.1443
11348TIP3    H155459   3.110   1.595   3.857 -0.6204  1.3436  3.1862
11348TIP3    H255460   2.989   1.505   3.852 -0.0950  0.6749 -0.8882
11349TIP3   OH255461   0.891   2.733  16.157 -0.3770 -0.4398 -0.1380
11349TIP3    H155462   0.819   2.788  16.187 -0.1525  0.0342 -0.4422
11349TIP3    H255463   0.927   2.780  16.082 -1.0872 -1.7324 -1.3334
11350TIP3   OH255464   2.866   5.599  11.651 -0.0022 -0.2528 -0.4775
11350TIP3    H155465   2.839   5.575  11.740 -0.7288  0.0671 -0.6059
11350TIP3    H255466   2.958   5.573  11.646  0.1834  0.1559  0.5311
11351TIP3   OH255467   6.137   3.358  13.993 -0.1772  0.9070  0.0106
11351TIP3    H155468   6.172   3.353  14.082 -1.1978  0.2613  0.3841
11351TIP3    H255469   6.048   3.392  14.003 -0.4079  0.5567 -0.7357
11352TIP3   OH255470   0.537   6.626   3.021  0.4668 -0.1710 -0.0523
11352TIP3    H155471   0.631   6.643   3.009  0.0049  1.1424 -2.4842
11352TIP3    H255472   0.507   6.597   2.934 -1.0487 -2.5252  1.1562
11353TIP3   OH255473   2.509   2.831  14.223 -0.1270  0.1268 -0.2901
11353TIP3    H155474   2.437   2.785  14.180  0.6052 -1.6442  0.3061
11353TIP3    H255475   2.466   2.899  14.275 -1.1893  0.5457 -1.6557
11354TIP3   OH255476   0.506   5.534   0.921  0.3271 -0.3176  0.1768
11354TIP3    H155477   0.584   5.586   0.901  1.2393 -2.3051 -1.7077
11354TIP3    H255478   0.539   5.454   0.960 -0.9840 -0.1734  1.7240
11355TIP3   OH255479   3.534   2.132  15.005 -0.3295  0.7607 -0.0388
11355TIP3    H155480   3.544   2.037  14.998  0.4608  0.9421 -2.2942
11355TIP3    H255481   3.616   2.163  15.044 -1.0458  0.4708  1.7964
11356TIP3   OH255482   1.187   4.937   4.349 -0.1725  0.1671 -0.0320
11356TIP3    H155483   1.205   4.852   4.388 -0.2028 -0.4997 -1.3889
11356TIP3    H255484   1.092   4.937   4.333 -0.2551  0.6719  0.4417
11357TIP3   OH255485   3.042   0.449   5.545  0.1982 -0.2774  0.2462
11357TIP3    H155486   3.004   0.492   5.622  0.1584  2.0165 -0.9754
11357TIP3    H255487   2.978   0.463   5.476  1.8439  0.9503 -1.0961
11358TIP3   OH255488   1.893   6.550  14.314  0.2826  0.5607  0.1254
11358TIP3    H155489   1.974   6.524  14.270 -0.3868  1.2862 -1.6042
11358TIP3    H255490   1.916   6.550  14.407  2.1684  0.4361 -0.2977
11359TIP3   OH255491   1.028   3.268  15.808  0.2604 -1.0037  0.0365
11359TIP3    H155492   0.979   3.350  15.812 -0.7275 -1.4791 -1.5936
11359TIP3    H255493   1.118   3.292  15.832 -0.1001  0.4561 -0.0145
11360TIP3   OH255494   0.669   5.766  15.473  0.4326  0.5273 -0.6270
11360TIP3    H155495   0.613   5.702  15.518  1.3689  0.0731 -0.0689
11360TIP3    H255496   0.620   5.848  15.476 -1.1801 -0.3168 -2.0948
11361TIP3   OH255497   6.460   6.339  16.921 -0.2903  0.4609 -0.2159
11361TIP3    H155498   6.366   6.348  16.935 -0.1621  2.7080 -0.3533
11361TIP3    H255499   6.473   6.359  16.828  0.3532  0.6833 -0.0850
11362TIP3   OH255500   2.273   1.593   6.046  0.2563 -0.0446  0.2447
11362TIP3    H155501   2.285   1.544   5.964  0.9327 -1.7529  1.3102
11362TIP3    H255502   2.352   1.647   6.053 -0.1343  0.6467 -0.5689
11363TIP3   OH255503   1.024   5.842   2.712  0.5824 -0.8126  0.1284
11363TIP3    H155504   0.954   5.842   2.776  0.0296 -0.3753 -0.4618
11363TIP3    H255505   1.100   5.878   2.759  0.4528 -1.3822  0.7926
11364TIP3   OH255506   4.242   3.581  10.360  0.1253 -0.0858  0.5071
11364TIP3    H155507   4.197   3.655  10.318 -1.0389  1.7991  4.5990
11364TIP3    H255508   4.173   3.531  10.403  1.2195 -1.8851  0.2861
11365TIP3   OH255509   3.817   0.394  16.261  0.1593 -0.3203 -0.2753
11365TIP3    H155510   3.845   0.326  16.199  2.9140  1.8456 -1.6554
11365TIP3    H255511   3.896   0.414  16.312 -0.8621  1.0770  0.8398
11366TIP3   OH255512   1.886   1.682  15.985 -0.6056 -0.0724  0.0323
11366TIP3    H155513   1.921   1.736  15.913  0.2048  1.6447  1.6173
11366TIP3    H255514   1.797   1.660  15.958 -0.5697  1.1405 -1.1985
11367TIP3   OH255515   4.111   2.111   4.266 -0.0608 -0.5273  0.2587
11367TIP3    H155516   4.031   2.097   4.317  1.4746  0.6013  3.2390
11367TIP3    H255517   4.114   2.205   4.250  0.3045 -0.6564 -0.4686
11368TIP3   OH255518   3.490   4.881  14.382  0.2115 -0.1495 -0.0193
11368TIP3    H155519   3.571   4.860  14.429  0.3984  0.2191 -0.1741
11368TIP3    H255520   3.509   4.862  14.291 -0.0270 -0.4956  0.0025
11369TIP3   OH255521   3.790   3.818   5.158 -0.5377 -0.1919 -0.1407
11369TIP3    H155522   3.789   3.873   5.236 -0.8484 -1.9252  1.1322
11369TIP3    H255523   3.820   3.876   5.088 -0.9388  1.5953  1.1061
11370TIP3   OH255524   1.509   3.589  12.582  0.4668 -0.1626  0.4242
11370TIP3    H155525   1.457   3.663  12.550 -0.0060  0.0065  1.5156
11370TIP3    H255526   1.592   3.594  12.534 -0.2613 -0.0467 -0.8745
11371TIP3   OH255527   5.915   6.018   3.755  0.7676 -0.1895  0.5159
11371TIP3    H155528   5.852   5.946   3.754  0.5349  0.0132 -1.1065
11371TIP3    H255529   5.899   6.066   3.674  0.4899  2.1018  1.8502
11372TIP3   OH255530   6.771   6.270   3.253  0.4630 -0.4036  0.0603
11372TIP3    H155531   6.747   6.229   3.170 -1.3642  0.4371  0.1396
11372TIP3    H255532   6.744   6.207   3.320  0.3772 -0.3464  0.0794
11373TIP3   OH255533   6.563   5.619   2.437  0.2702 -0.6881 -0.5505
11373TIP3    H155534   6.622   5.571   2.495  1.6156  1.2826 -0.1635
11373TIP3    H255535   6.479   5.619   2.483  0.6490 -1.3563  0.1625
11374TIP3   OH255536   1.910   0.521   3.971  0.1143  0.8006  0.1915
11374TIP3    H155537   1.899   0.522   4.066  0.5840  0.4640  0.2526
11374TIP3    H255538   1.874   0.436   3.944  0.3768  0.7139  0.1164
11375TIP3   OH255539   1.576   4.944   3.015 -0.3420  0.1799 -0.1444
11375TIP3    H155540   1.495   4.990   2.994 -1.0079 -2.3412 -3.9789
11375TIP3    H255541   1.630   4.951   2.937  1.3815 -1.7179  0.7575
11376TIP3   OH255542   2.455   3.501  15.212 -0.3485  0.3129 -0.0240
11376TIP3    H155543   2.454   3.589  15.174 -0.1591  0.2166 -0.2556
11376TIP3    H255544   2.548   3.485  15.232 -0.7068  1.3650  2.8539
11377TIP3   OH255545   1.873   3.385  16.756  0.0307  0.3213  0.2924
11377TIP3    H155546   1.828   3.418  16.678 -1.1969 -0.6255  0.5679
11377TIP3    H255547   1.813   3.405  16.828  1.3661  1.6383  1.0981
11378TIP3   OH255548   3.866   4.314  16.641  0.2354  0.1155  0.2319
11378TIP3    H155549   3.822   4.244  16.593 -0.9034  1.0425 -0.1419
11378TIP3    H255550   3.943   4.335  16.588 -0.1362  0.0283 -0.3584
11379TIP3   OH255551   2.229   6.764   0.623  0.5270  0.3829  0.5151
11379TIP3    H155552   2.267   6.833   0.568  0.0486  0.8380  0.7396
11379TIP3    H255553   2.268   6.683   0.590  0.1956  0.6360 -0.5524
11380TIP3   OH255554   4.975   2.928  16.514 -0.0004  0.6846  0.1560
11380TIP3    H155555   4.921   2.985  16.569  1.2715 -0.2804  2.5735
11380TIP3    H255556   4.939   2.840  16.528  0.8882  0.3094  0.1725
11381TIP3   OH255557   0.815   0.215   0.717  0.3596  0.1893  0.2970
11381TIP3    H155558   0.883   0.244   0.778  0.4108 -1.6699  1.1845
11381TIP3    H255559   0.807   0.121   0.732  0.3536 -0.3684 -2.5815
11382TIP3   OH255560   2.954   6.293  11.292 -0.0086 -0.1577 -0.6045
11382TIP3    H155561   2.858   6.288  11.288 -0.1252  1.2814 -0.0918
11382TIP3    H255562   2.984   6.213  11.247 -1.4424 -1.6147  0.8918
11383TIP3   OH255563   4.073   2.512  12.134 -0.1220 -0.0830  0.0528
11383TIP3    H155564   4.147   2.462  12.101 -0.4515 -1.2636  1.0230
11383TIP3    H255565   4.000   2.449  12.134 -0.4660  0.2626  1.6206
11384TIP3   OH255566   1.373   1.704  10.632  0.2751 -0.3303  0.5332
11384TIP3    H155567   1.328   1.785  10.656  1.1502  0.0332  1.0115
11384TIP3    H255568   1.463   1.717  10.663  0.6713 -1.0903 -0.2643
11385TIP3   OH255569   6.541   4.852  14.682 -0.6200  0.0637  0.1961
11385TIP3    H155570   6.530   4.821  14.772  0.8826  1.9934  1.1376
11385TIP3    H255571   6.577   4.776  14.635  0.4101 -0.4456  1.7184
11386TIP3   OH255572   6.655   4.221  15.830  0.4038 -0.3018  0.1133
11386TIP3    H155573   6.655   4.150  15.894 -0.8535 -1.0445 -0.6653
11386TIP3    H255574   6.604   4.290  15.871 -2.1525 -1.5271 -0.7953
11387TIP3   OH255575   1.456   4.204   1.545  0.0061 -0.3475  0.2359
11387TIP3    H155576   1.461   4.132   1.482 -2.0983 -1.6240  1.4355
11387TIP3    H255577   1.428   4.279   1.493  0.0099 -0.9490 -0.6598
11388TIP3   OH255578   0.837   6.463   4.977  0.0638  0.2892 -0.4110
11388TIP3    H155579   0.757   6.429   5.019  1.1867  0.5825  2.1635
11388TIP3    H255580   0.805   6.511   4.901 -1.9161 -2.5813 -1.6017
11389TIP3   OH255581   5.833   3.929   0.769  0.5249  0.2104  0.3406
11389TIP3    H155582   5.874   3.850   0.805 -0.0448 -0.4986 -0.5160
11389TIP3    H255583   5.905   3.976   0.727  0.3678 -1.6362 -2.2455
11390TIP3   OH255584   5.206   3.127  11.814  0.5308  0.6347  0.3545
11390TIP3    H155585   5.154   3.055  11.849  1.0633  0.0960  0.0655
11390TIP3    H255586   5.223   3.102  11.723 -1.2865  2.2574 -0.4942
11391TIP3   OH255587   2.903   1.268  11.746  0.5956 -0.1214  0.3274
11391TIP3    H155588   2.955   1.282  11.667  0.6921 -1.7802  0.0552
11391TIP3    H255589   2.864   1.353  11.765 -2.0128 -0.2524 -3.3570
11392TIP3   OH255590   4.954   3.351  15.247 -0.3845 -0.3717 -0.0453
11392TIP3    H155591   4.885   3.382  15.189 -0.8137  1.0981  1.1863
11392TIP3    H255592   4.908   3.324  15.327  0.5041  2.2834  1.4861
11393TIP3   OH255593   0.975   2.621  15.760  0.3145  0.5025  0.2006
11393TIP3    H155594   1.046   2.658  15.708 -0.9692  2.1697 -0.4645
11393TIP3    H255595   0.943   2.694  15.813 -0.2920 -0.4499  1.1883
11394TIP3   OH255596   6.181   4.319  13.018  0.0486 -0.4787 -0.8200
11394TIP3    H155597   6.185   4.242  13.075 -0.4069 -2.0440 -2.7756
11394TIP3    H255598   6.091   4.322  12.988  0.1713  0.5755 -1.1194
11395TIP3   OH255599   1.821   4.655   2.886 -0.2627  0.1262  0.6596
11395TIP3    H155600   1.805   4.746   2.863 -1.5617 -0.5898 -1.5658
11395TIP3    H255601   1.910   4.637   2.856 -0.9972 -0.0551 -1.5664
11396TIP3   OH255602   2.255   3.976   5.344 -0.0609 -0.3848  0.0173
11396TIP3    H155603   2.305   3.901   5.376 -0.2334  0.9745  4.0899
11396TIP3    H255604   2.318   4.028   5.295  1.6609 -0.5324  1.9242
11397TIP3   OH255605   2.747   5.896  12.181 -0.7040  1.4322 -0.0109
11397TIP3    H155606   2.712   5.970  12.230 -1.4023  0.3233  1.2293
11397TIP3    H255607   2.734   5.820  12.239  2.4823  0.7263 -0.0707
11398TIP3   OH255608   3.062   4.096   0.035 -0.1138 -0.2966  0.4717
11398TIP3    H155609   3.112   4.016   0.053 -0.6170 -1.1668 -1.7572
11398TIP3    H255610   3.127   4.166   0.043  1.1601 -1.2606 -0.9049
11399TIP3   OH255611   1.464   6.221   4.588  0.2153 -0.5252 -0.0297
11399TIP3    H155612   1.541   6.275   4.609 -0.4025  0.5176 -0.3421
11399TIP3    H255613   1.441   6.246   4.499 -0.1667 -1.2256 -0.1314
11400TIP3   OH255614   2.296   3.541  13.496  0.2193 -0.8431  0.4575
11400TIP3    H155615   2.253   3.484  13.432  0.6361  0.2416 -0.8284
11400TIP3    H255616   2.388   3.514  13.496  0.8628  1.0422 -1.6573
11401TIP3   OH255617   0.229   0.244  14.798 -0.6260  0.0610 -0.5530
11401TIP3    H155618   0.135   0.228  14.786 -0.9682  0.7138  0.9687
11401TIP3    H255619   0.256   0.178  14.862  0.5047 -1.6087 -2.6547
11402TIP3   OH255620   1.340   4.169   3.695  0.1369  0.1277 -0.0321
11402TIP3    H155621   1.386   4.164   3.611 -1.0833  3.4570 -1.0669
11402TIP3    H255622   1.404   4.206   3.755  0.4438 -0.4985  0.0356
11403TIP3   OH255623   4.084   3.866   3.557 -0.0341  0.2623  0.1219
11403TIP3    H155624   4.162   3.897   3.511 -0.6236  0.9703 -0.4145
11403TIP3    H255625   4.044   3.803   3.497 -0.6030  0.9135 -0.1966
11404TIP3   OH255626   2.434   2.280   2.510  0.2696  0.3966  0.3857
11404TIP3    H155627   2.345   2.243   2.517  0.2717  0.6242  1.9124
11404TIP3    H255628   2.421   2.364   2.465 -0.3739  0.7009  1.1193
11405TIP3   OH255629   2.670   3.668  15.503  0.0225 -0.2388 -0.0184
11405TIP3    H155630   2.651   3.598  15.565  0.9602 -0.4748  0.0198
11405TIP3    H255631   2.642   3.748  15.547  0.9685 -0.3649  0.8640
11406TIP3   OH255632   5.797   0.691   2.764  0.2336  0.1104 -0.1558
11406TIP3    H155633   5.821   0.737   2.845  1.7043  1.0918 -1.1029
11406TIP3    H255634   5.727   0.744   2.726  1.2704  1.1047 -0.7595
11407TIP3   OH255635   3.506   2.055  16.379 -0.7697  0.7253  0.7651
11407TIP3    H155636   3.487   2.105  16.458 -1.1599 -0.5673  1.5129
11407TIP3    H255637   3.438   1.988  16.376  0.6638 -0.7902  0.6927
11408TIP3   OH255638   6.554   2.295   5.220  0.1504  0.1954 -0.7468
11408TIP3    H155639   6.470   2.249   5.223  1.0844 -1.6776 -1.8820
11408TIP3    H255640   6.609   2.249   5.284  0.7027  0.5876 -0.9338
11409TIP3   OH255641   1.122   6.224  14.788  0.0688  0.8447  0.0325
11409TIP3    H155642   1.032   6.191  14.780  0.7508 -1.1128 -0.1253
11409TIP3    H255643   1.148   6.246  14.699  0.1124  0.3719 -0.0724
11410TIP3   OH255644   5.357   3.829  10.971  1.1773  0.5212 -0.3218
11410TIP3    H155645   5.394   3.783  10.896  1.6504 -0.6173  0.5737
11410TIP3    H255646   5.277   3.780  10.992  1.7152  0.0266  0.6724
11411TIP3   OH255647   4.128   0.430  15.443  0.1531  0.0331 -0.1633
11411TIP3    H155648   4.076   0.350  15.447  0.3835 -0.2271 -1.7270
11411TIP3    H255649   4.067   0.496  15.409  0.1327  0.3898  0.5444
11412TIP3   OH255650   2.932   0.096  11.135 -0.5203 -0.0850  0.3451
11412TIP3    H155651   2.904   0.078  11.045 -1.2374  1.1161  0.3073
11412TIP3    H255652   2.912   0.015  11.183  0.3344 -0.9279 -0.6534
11413TIP3   OH255653   6.162   6.780   2.532 -0.2259  0.0038  0.7583
11413TIP3    H155654   6.239   6.760   2.585  0.3082  1.6565  0.6625
11413TIP3    H255655   6.109   6.700   2.536  0.8950 -0.7289  1.8470
11414TIP3   OH255656   6.452   0.032  11.218  0.8026 -0.0957 -0.3364
11414TIP3    H155657   6.489  -0.054  11.197  3.0915  0.9891 -1.0653
11414TIP3    H255658   6.523   0.078  11.263 -0.2785  1.5094 -0.2011
11415TIP3   OH255659   0.639   0.691  14.055  0.2636 -0.5664 -0.4210
11415TIP3    H155660   0.603   0.769  14.097  0.9705  0.0080 -0.8309
11415TIP3    H255661   0.727   0.719  14.027  1.4014 -2.1727  1.3379
11416TIP3   OH255662   2.087   6.225   2.021 -0.0874  0.7163 -0.4006
11416TIP3    H155663   2.038   6.179   1.953  0.9004  0.7978 -1.1848
11416TIP3    H255664   2.026   6.232   2.094 -1.6431  1.8013 -1.7362
11417TIP3   OH255665   2.820   0.026  14.856 -0.2471 -0.3708  0.0911
11417TIP3    H155666   2.809  -0.006  14.946  0.0631  0.6875  0.5202
11417TIP3    H255667   2.762  -0.030  14.804  1.0460 -2.3332  0.6240
11418TIP3   OH255668   5.012   5.867   3.697 -0.4384  0.3809 -0.0451
11418TIP3    H155669   4.943   5.850   3.634  1.4343  3.7478 -3.3999
11418TIP3    H255670   5.085   5.811   3.669 -0.7732 -1.0472  1.7309
11419TIP3   OH255671   5.689   1.330  13.668 -0.4207  0.0572  0.3033
11419TIP3    H155672   5.711   1.242  13.698 -1.9901 -0.8512 -1.0397
11419TIP3    H255673   5.684   1.382  13.748  3.3992 -0.2898  0.9545
11420TIP3   OH255674   2.169   3.742   2.243 -0.6574 -0.0592  0.2122
11420TIP3    H155675   2.148   3.808   2.310 -0.0829  0.0567  0.2848
11420TIP3    H255676   2.180   3.661   2.292  1.8632  0.4105  0.5893
11421TIP3   OH255677   5.551   2.700  13.302  0.0166  0.2812 -0.2739
11421TIP3    H155678   5.571   2.606  13.296  1.4369  0.4376  1.3964
11421TIP3    H255679   5.476   2.704  13.360 -0.0457  0.1782 -0.3454
11422TIP3   OH255680   0.875   3.603   3.228  0.2994  0.5786  0.3826
11422TIP3    H155681   0.829   3.680   3.196 -0.9777 -0.8160 -1.3917
11422TIP3    H255682   0.898   3.555   3.148  0.5839 -1.1195  1.4367
11423TIP3   OH255683   4.532   4.969   6.495 -0.5529  0.3960 -0.5724
11423TIP3    H155684   4.572   5.055   6.483  0.0515  0.6056  2.3457
11423TIP3    H255685   4.447   4.977   6.452 -0.5155  2.4520 -0.3919
11424TIP3   OH255686   1.564   2.398   2.293 -1.0079 -0.2444 -0.1715
11424TIP3    H155687   1.644   2.443   2.266 -1.1056 -0.1128 -0.2403
11424TIP3    H255688   1.493   2.450   2.256 -1.1055 -0.7995 -0.8027
11425TIP3   OH255689   3.744   2.862   2.678  0.2122 -0.0722  0.0999
11425TIP3    H155690   3.677   2.806   2.638  0.3945 -0.0191 -0.2829
11425TIP3    H255691   3.710   2.881   2.766  0.0940 -0.6819  0.1910
11426TIP3   OH255692   3.864   1.078  13.610  0.0084  0.6666  0.0299
11426TIP3    H155693   3.780   1.038  13.635  0.8606 -1.3773 -0.1502
11426TIP3    H255694   3.840   1.162  13.571 -2.0534 -0.3585 -1.0877
11427TIP3   OH255695   5.039   3.801  15.423  0.1521 -0.2466  1.2644
11427TIP3    H155696   5.066   3.710  15.413  0.4068 -0.1247  0.7741
11427TIP3    H255697   5.119   3.851  15.407 -0.3046  0.1146 -0.0149
11428TIP3   OH255698   4.284   5.441   4.838 -0.2853  0.5169 -0.0196
11428TIP3    H155699   4.357   5.498   4.862  0.6699 -0.8882  0.4962
11428TIP3    H255700   4.239   5.488   4.768  2.2139  0.5977 -1.6908
11429TIP3   OH255701   6.376   1.589   2.223  0.3432 -0.2561 -0.2005
11429TIP3    H155702   6.407   1.643   2.150 -0.6357 -0.6288 -0.9026
11429TIP3    H255703   6.407   1.501   2.203  2.3873  0.0776  1.2050
11430TIP3   OH255704   5.272   5.519  14.874 -0.3282 -0.0490  0.1374
11430TIP3    H155705   5.297   5.608  14.899 -0.3972  0.7680 -2.3696
11430TIP3    H255706   5.338   5.463  14.914 -1.1169  0.9269  3.0019
11431TIP3   OH255707   0.183   3.178   4.419  0.0052 -0.4637 -0.3986
11431TIP3    H155708   0.254   3.137   4.468 -1.4513 -1.1446  1.2609
11431TIP3    H255709   0.226   3.234   4.356  1.9984 -0.0914  1.2070
11432TIP3   OH255710   5.015   3.750  11.775  0.0856  0.2076  0.1718
11432TIP3    H155711   4.929   3.731  11.813 -0.9388 -1.9468 -2.8039
11432TIP3    H255712   5.020   3.845  11.772 -0.7971  0.4502  3.1560
11433TIP3   OH255713   5.086   4.161   3.259  0.1645  0.1508  0.0107
11433TIP3    H155714   5.142   4.232   3.289  0.7229 -0.6815  1.0337
11433TIP3    H255715   5.107   4.088   3.318  1.1898 -1.5395 -2.2812
11434TIP3   OH255716   6.406   3.625   0.106  0.3773 -0.8206  0.1834
11434TIP3    H155717   6.383   3.587   0.191  0.5408 -0.0399  0.5841
11434TIP3    H255718   6.339   3.692   0.092  0.2928 -1.0184 -0.3509
11435TIP3   OH255719   4.006   1.261   5.251  0.1878 -1.0111 -0.1871
11435TIP3    H155720   4.100   1.246   5.256  0.0566 -1.6263  0.6704
11435TIP3    H255721   3.992   1.342   5.298  0.0512 -2.0580  1.6709
11436TIP3   OH255722   2.817   6.647   3.036 -0.0566 -0.0401 -0.1112
11436TIP3    H155723   2.796   6.671   3.127  1.2770 -1.0441  0.4843
11436TIP3    H255724   2.877   6.715   3.007 -1.4605  1.0053 -0.7210
11437TIP3   OH255725   4.720   6.312   1.255 -0.3043 -0.2314 -0.5442
11437TIP3    H155726   4.663   6.365   1.200 -0.5036 -0.8284 -0.9211
11437TIP3    H255727   4.695   6.221   1.236  1.3676 -0.5572 -1.3929
11438TIP3   OH255728   5.551   1.043  11.589  0.4355 -0.1737 -0.8908
11438TIP3    H155729   5.460   1.050  11.560 -0.2719 -3.0728  0.1703
11438TIP3    H255730   5.592   0.983  11.526  0.9569 -0.6170 -0.1503
11439TIP3   OH255731   3.893   1.605   4.343  0.2169  0.0607 -0.0051
11439TIP3    H155732   3.953   1.531   4.351  3.1848  2.3968  1.1870
11439TIP3    H255733   3.830   1.592   4.414 -0.7524 -2.3895 -1.2115
11440TIP3   OH255734   3.695   5.470  13.992 -0.1085  0.1351 -0.3770
11440TIP3    H155735   3.615   5.417  13.996 -0.5757  0.5763 -2.5742
11440TIP3    H255736   3.691   5.526  14.069 -1.7816 -0.0397 -0.3075
11441TIP3   OH255737   5.625   4.562   4.947 -0.2848  0.1210  0.1723
11441TIP3    H155738   5.677   4.483   4.962 -0.8190  0.2290  3.2315
11441TIP3    H255739   5.545   4.531   4.905 -0.0703 -0.8177  0.4314
11442TIP3   OH255740   1.866   3.903   2.523  0.3826  0.2091  0.0657
11442TIP3    H155741   1.872   3.941   2.610  0.1830  0.9623 -0.2404
11442TIP3    H255742   1.824   3.971   2.470  2.2705  0.5647 -1.0905
11443TIP3   OH255743   0.170   2.095   3.930 -0.0296  0.0464 -0.4843
11443TIP3    H155744   0.117   2.175   3.936 -1.4623 -0.9577  2.6984
11443TIP3    H255745   0.146   2.057   3.846 -2.0488  1.1932 -0.4996
11444TIP3   OH255746   3.408   4.004  15.354 -0.1648 -0.3686  0.9068
11444TIP3    H155747   3.462   4.070  15.397  1.7945 -0.2319 -1.5201
11444TIP3    H255748   3.360   4.053  15.287 -1.6237 -0.8668  1.5541
11445TIP3   OH255749   4.739   1.196   2.338 -0.6255  0.2798 -0.5999
11445TIP3    H155750   4.764   1.197   2.246  0.3821  1.5555 -0.3423
11445TIP3    H255751   4.745   1.104   2.364  1.8160  0.2426 -1.0990
11446TIP3   OH255752   1.791   5.336  15.969 -0.6164 -0.1039 -0.0408
11446TIP3    H155753   1.746   5.274  15.911  0.5773 -0.6324 -0.4343
11446TIP3    H255754   1.739   5.335  16.050 -0.1310 -2.3604  0.3080
11447TIP3   OH255755   5.044   3.669   2.956  0.1232  0.0582 -0.5531
11447TIP3    H155756   5.016   3.759   2.972 -0.3484 -0.4350  1.7660
11447TIP3    H255757   4.975   3.632   2.900 -3.0471 -0.4977  3.2851
11448TIP3   OH255758   3.536   2.496  13.835 -0.3478 -0.3046 -0.4076
11448TIP3    H155759   3.492   2.415  13.809  0.6144 -1.0666  0.2728
11448TIP3    H255760   3.622   2.468  13.866 -0.1661  0.9343  0.2780
11449TIP3   OH255761   3.240   0.647   4.987  0.0912 -0.1637  0.3464
11449TIP3    H155762   3.267   0.602   5.067 -0.5000 -0.8965  0.1475
11449TIP3    H255763   3.201   0.578   4.932  0.4439  0.3363 -0.5525
11450TIP3   OH255764   4.440   4.147   2.799 -0.3880 -0.1179  0.1975
11450TIP3    H155765   4.465   4.059   2.827  0.7712 -0.2617 -1.2096
11450TIP3    H255766   4.395   4.184   2.875 -0.6784 -1.8234  0.9009
11451TIP3   OH255767   5.735   2.740  16.452  0.1067 -0.0609 -0.4417
11451TIP3    H155768   5.803   2.678  16.477  0.9839  0.7940 -0.6249
11451TIP3    H255769   5.712   2.785  16.534  0.4572  0.2988 -0.5315
11452TIP3   OH255770   2.706   3.488   3.373  0.3075 -0.0346 -0.2331
11452TIP3    H155771   2.758   3.410   3.355  0.9101  0.1059  0.8017
11452TIP3    H255772   2.737   3.518   3.459 -0.9986  0.4658  0.0773
11453TIP3   OH255773   4.275   2.378  13.119 -0.3259 -0.3394  0.1418
11453TIP3    H155774   4.346   2.342  13.173  1.3939  0.0499 -1.7406
11453TIP3    H255775   4.298   2.351  13.030 -1.1216  2.0407 -0.8362
11454TIP3   OH255776   2.040   1.472  12.478 -0.2309 -0.4352 -0.2898
11454TIP3    H155777   2.080   1.385  12.470  0.6513 -0.1968  1.1467
11454TIP3    H255778   2.071   1.505  12.562 -0.6298  1.2410 -0.7584
11455TIP3   OH255779   1.580   2.079  13.380 -0.3062 -0.2425 -0.4208
11455TIP3    H155780   1.618   2.167  13.382  0.6650 -0.6478 -0.3159
11455TIP3    H255781   1.649   2.023  13.415 -0.9142 -1.0474 -0.4919
11456TIP3   OH255782   4.041   1.466   6.501  0.0326  0.7498 -1.0287
11456TIP3    H155783   3.970   1.524   6.528  0.1747  0.4313  0.0857
11456TIP3    H255784   4.003   1.378   6.504  0.9201  0.3669  1.4131
11457TIP3   OH255785   6.739   6.041  12.047  0.1543  0.5603  0.7124
11457TIP3    H155786   6.688   6.012  12.123 -0.0159 -0.3894  0.2434
11457TIP3    H255787   6.724   6.136  12.043 -1.9780  0.2552  0.2970
11458TIP3   OH255788   5.096   2.528  15.029 -0.5516  0.0338 -0.1259
11458TIP3    H155789   5.141   2.483  14.957  1.4736  1.0074  0.4449
11458TIP3    H255790   5.008   2.490  15.031  0.2069 -1.9102 -1.3807
11459TIP3   OH255791   6.489   2.359  13.874  0.0211  0.3949 -0.1242
11459TIP3    H155792   6.441   2.410  13.939 -2.2878 -1.5311 -0.2029
11459TIP3    H255793   6.445   2.378  13.791  0.5926  0.0030 -0.5244
11460TIP3   OH255794   6.017   2.600   4.273 -0.4915  0.5123 -0.3925
11460TIP3    H155795   5.998   2.643   4.190 -2.5259  1.5919  0.5520
11460TIP3    H255796   6.097   2.642   4.304  0.4891 -0.1541 -1.9354
11461TIP3   OH255797   6.495   1.061   0.041  0.0583 -0.3249 -0.4897
11461TIP3    H155798   6.492   1.010  -0.040  0.5393 -2.4233  0.7194
11461TIP3    H255799   6.413   1.040   0.086  0.9075 -1.3185  0.7005
11462TIP3   OH255800   5.590   2.414   2.835  1.2497 -0.2318 -0.5154
11462TIP3    H155801   5.577   2.376   2.922  0.0905  0.5442 -0.3263
11462TIP3    H255802   5.685   2.413   2.823  1.3278 -2.4692 -0.2197
11463TIP3   OH255803   4.459   1.441  16.174 -0.2406  0.5621 -0.0439
11463TIP3    H155804   4.520   1.367  16.170  0.8767  1.4901 -1.1586
11463TIP3    H255805   4.384   1.408  16.224  1.0448 -0.7072  1.1448
11464TIP3   OH255806   2.331   1.833  16.301  0.1046  0.6106 -0.2656
11464TIP3    H155807   2.310   1.754  16.251  2.1459  1.0093 -1.9443
11464TIP3    H255808   2.361   1.801  16.386 -0.3094 -0.3237 -0.4570
11465TIP3   OH255809   3.035   3.381   0.157  0.1570  0.1202  0.1851
11465TIP3    H155810   2.944   3.406   0.174 -0.2108 -1.5362  0.8845
11465TIP3    H255811   3.066   3.343   0.239  0.9667 -0.7563 -0.4857
11466TIP3   OH255812   0.111   1.958   1.685  0.9051 -0.0472 -0.3920
11466TIP3    H155813   0.040   1.898   1.661  0.1828  1.1581 -1.4690
11466TIP3    H255814   0.179   1.903   1.723  0.0242 -1.4436 -0.7904
11467TIP3   OH255815   5.125   4.522  14.940 -0.0903  0.2398 -0.2610
11467TIP3    H155816   5.173   4.443  14.915  0.2529  0.0076  1.0304
11467TIP3    H255817   5.089   4.502  15.027  2.2260  2.3555  1.3562
11468TIP3   OH255818   3.238   2.273  10.549 -0.3148  0.0345  0.5057
11468TIP3    H155819   3.188   2.327  10.488 -1.3311 -0.1178  1.1628
11468TIP3    H255820   3.319   2.322  10.564 -0.1486  0.1840 -0.7606
11469TIP3   OH255821   3.052   0.076  15.561 -0.6766  0.4769 -0.2702
11469TIP3    H155822   3.044   0.165  15.528 -0.4704  0.7078  0.2795
11469TIP3    H255823   3.044   0.085  15.656 -0.1606 -0.0248 -0.1714
11470TIP3   OH255824   5.904   3.591  12.208  0.0069 -0.3766 -0.4715
11470TIP3    H155825   5.914   3.518  12.269  1.0963 -1.6684 -2.0768
11470TIP3    H255826   5.990   3.632  12.205 -0.4463  0.6353 -0.0191
11471TIP3   OH255827   4.829   2.340  15.776  0.6383  0.1340  0.0684
11471TIP3    H155828   4.804   2.415  15.723 -1.3815  1.0174  2.1027
11471TIP3    H255829   4.826   2.372  15.866  1.3454 -1.9662  0.9132
11472TIP3   OH255830   4.411   2.256  16.776  0.4372 -0.3351 -0.0384
11472TIP3    H155831   4.464   2.296  16.845  0.7084 -1.0753  0.1981
11472TIP3    H255832   4.388   2.328  16.718 -1.0010  0.5786  1.5877
11473TIP3   OH255833   1.240   3.644  11.604 -0.2241  0.8680  0.8242
11473TIP3    H155834   1.197   3.652  11.519 -0.6022 -0.6558  0.8471
11473TIP3    H255835   1.173   3.671  11.667 -0.5513  0.2619  0.7433
11474TIP3   OH255836   2.667   0.810   3.861  0.0874 -0.3031  0.0703
11474TIP3    H155837   2.667   0.751   3.937  0.0511 -1.0753 -0.5180
11474TIP3    H255838   2.580   0.799   3.823  1.1885 -2.5771 -2.0743
11475TIP3   OH255839   4.209   1.609  15.423 -0.3671  0.0449  0.2554
11475TIP3    H155840   4.233   1.604  15.516 -0.0669  2.3482  0.3457
11475TIP3    H255841   4.114   1.603  15.422 -0.2772 -2.2058  0.4821
11476TIP3   OH255842   4.624   1.515   4.333 -0.7118  0.1036 -0.0155
11476TIP3    H155843   4.567   1.439   4.316  1.2367 -1.9405  1.8307
11476TIP3    H255844   4.588   1.585   4.279 -2.6273 -2.1303 -1.8648
11477TIP3   OH255845   0.979   5.926  16.186 -0.4389 -0.1096  0.3008
11477TIP3    H155846   0.918   5.999  16.193 -2.5692 -1.8818  1.3644
11477TIP3    H255847   0.948   5.861  16.249 -0.1884 -2.9835 -2.2875
11478TIP3   OH255848   6.547   5.947  15.835  0.0448  0.2147 -0.1612
11478TIP3    H155849   6.484   5.894  15.883  0.7756 -0.8107 -0.3179
11478TIP3    H255850   6.524   5.936  15.743  0.5183 -0.2627 -0.2278
11479TIP3   OH255851   5.629   2.053   3.793 -0.1658  0.1733  0.9308
11479TIP3    H155852   5.553   2.020   3.841 -1.1416  0.3803 -0.3900
11479TIP3    H255853   5.591   2.105   3.722  1.2411  0.6939  0.5265
11480TIP3   OH255854   3.142   0.720   3.322 -0.3378 -0.2515  0.0112
11480TIP3    H155855   3.060   0.768   3.314  0.2798  0.8278 -0.1011
11480TIP3    H255856   3.134   0.647   3.261 -1.8702 -1.1648  1.2230
11481TIP3   OH255857   2.014   2.434   4.581 -0.1979  0.0310 -0.0210
11481TIP3    H155858   1.963   2.368   4.627  0.4290 -2.5419 -2.7477
11481TIP3    H255859   2.101   2.397   4.574  0.8173  2.1775  0.2172
11482TIP3   OH255860   1.134   5.529  11.152 -0.4951 -0.3034 -0.3670
11482TIP3    H155861   1.100   5.529  11.062 -0.2696  2.5315 -0.5321
11482TIP3    H255862   1.056   5.527  11.207 -0.6760 -0.5640 -0.6262
11483TIP3   OH255863   5.350   5.614  13.122 -0.3344  0.0418 -0.6235
11483TIP3    H155864   5.272   5.581  13.078  0.1540 -0.8655 -0.8373
11483TIP3    H255865   5.316   5.670  13.192 -1.2082 -0.9057 -0.2565
11484TIP3   OH255866   1.316   6.447   5.225 -0.6734 -0.4713  0.3022
11484TIP3    H155867   1.222   6.432   5.218 -1.0165  1.7729 -0.7474
11484TIP3    H255868   1.326   6.507   5.299 -0.1418 -0.1544 -0.0175
11485TIP3   OH255869   1.119   0.307   5.728  0.4811 -0.1652  0.2481
11485TIP3    H155870   1.055   0.359   5.776 -0.4463 -1.1546  0.1387
11485TIP3    H255871   1.201   0.355   5.736  0.2785 -0.1019  2.4726
11486TIP3   OH255872   3.637   2.883  10.658 -0.0925  0.5685 -0.4916
11486TIP3    H155873   3.724   2.860  10.627 -0.8402 -0.0950 -2.1737
11486TIP3    H255874   3.579   2.819  10.619 -1.6190  2.3039 -1.2370
11487TIP3   OH255875   1.046   0.508   4.333 -0.3788  0.3907 -0.0087
11487TIP3    H155876   1.066   0.415   4.339 -1.9208 -0.0509 -1.0161
11487TIP3    H255877   1.079   0.545   4.414  0.9704 -0.8832  0.0677
11488TIP3   OH255878   0.286   3.516   1.294 -0.0304 -0.4346  0.9873
11488TIP3    H155879   0.346   3.583   1.327 -0.0534 -0.7507  1.6911
11488TIP3    H255880   0.201   3.560   1.291  0.2779  0.1080 -0.3137
11489TIP3   OH255881   5.036   2.785   6.161 -0.3207  0.0600  0.0040
11489TIP3    H155882   4.976   2.858   6.179 -0.5534  0.1714 -1.0882
11489TIP3    H255883   5.107   2.796   6.223 -1.1030  0.3248  0.8817
11490TIP3   OH255884   6.646   5.845   3.281 -0.5963  0.1916 -0.5906
11490TIP3    H155885   6.660   5.769   3.338  1.0976  0.8306 -0.0845
11490TIP3    H255886   6.575   5.893   3.324 -1.8623 -1.1743 -1.0435
11491TIP3   OH255887   2.866   0.188  12.723 -0.0740 -0.0303  0.1030
11491TIP3    H155888   2.954   0.149  12.719 -0.2170 -0.6160  1.7574
11491TIP3    H255889   2.818   0.148  12.651  0.8537 -0.1306 -0.4721
11492TIP3   OH255890   1.951   5.245  11.101 -0.3252  0.2168 -0.4078
11492TIP3    H155891   1.962   5.206  11.187 -0.1013  0.9302 -0.1019
11492TIP3    H255892   1.860   5.277  11.100  0.1509  1.6889  0.2138
11493TIP3   OH255893   2.592   2.955   2.891 -0.6781  0.3900  0.3409
11493TIP3    H155894   2.520   2.895   2.869 -0.6238  0.1989  0.6838
11493TIP3    H255895   2.655   2.943   2.820 -0.5853 -0.0970  0.4985
11494TIP3   OH255896   3.909   1.761   5.704 -0.6457 -0.1359  0.3536
11494TIP3    H155897   3.884   1.681   5.658  2.4841 -0.4810 -1.0137
11494TIP3    H255898   3.962   1.810   5.640 -0.5887  1.9696  1.9039
11495TIP3   OH255899   0.531   0.885  16.831 -0.0233  0.0949 -0.2983
11495TIP3    H155900   0.505   0.832  16.906 -1.3673  1.1520  0.0221
11495TIP3    H255901   0.539   0.822  16.759  0.5524 -0.8255  0.5478
11496TIP3   OH255902   6.698   3.641   1.881  0.7124 -0.2134 -0.2488
11496TIP3    H155903   6.710   3.630   1.975  0.5908  1.9813  0.0637
11496TIP3    H255904   6.603   3.640   1.868  0.7079  0.1178 -0.2517
11497TIP3   OH255905   0.189   1.418   4.340 -0.0504  0.1135 -0.0613
11497TIP3    H155906   0.249   1.347   4.317 -1.4163 -1.2004  0.3418
11497TIP3    H255907   0.220   1.448   4.425  0.2492 -0.3056 -0.0170
11498TIP3   OH255908   2.639   4.689  12.075  0.3205  0.6702  0.4599
11498TIP3    H155909   2.706   4.648  12.020 -1.1395  1.4282 -2.0443
11498TIP3    H255910   2.580   4.617  12.099  0.9457  0.3433  1.0549
11499TIP3   OH255911   2.333   2.015  15.046 -0.7483 -0.5203 -0.0247
11499TIP3    H155912   2.293   1.989  14.963 -0.2264  0.5319 -0.6179
11499TIP3    H255913   2.392   2.087  15.023  1.5179 -1.9880  0.8092
11500TIP3   OH255914   4.126   2.682   4.091 -0.2405 -0.0870 -0.9146
11500TIP3    H155915   4.077   2.640   4.020  0.5504  1.1050 -2.2371
11500TIP3    H255916   4.218   2.667   4.068  0.0247  0.2473 -0.0974
11501TIP3   OH255917   1.973   0.969   4.660 -0.3669 -0.2892 -0.4025
11501TIP3    H155918   1.930   0.961   4.575 -3.3385 -1.6788  1.0792
11501TIP3    H255919   1.910   0.933   4.722  2.6053 -1.5669  2.1692
11502TIP3   OH255920   1.331   5.975   4.691 -0.3957  0.4517 -0.2000
11502TIP3    H155921   1.236   5.977   4.696 -0.4393  1.4498 -1.1510
11502TIP3    H255922   1.356   6.063   4.663  0.8148  0.2218  0.1000
11503TIP3   OH255923   3.223   4.094   1.758  0.5185  0.1293  0.1596
11503TIP3    H155924   3.207   4.008   1.798  1.2810 -1.4839 -2.7710
11503TIP3    H255925   3.277   4.076   1.681 -1.9364  2.8136 -2.4479
11504TIP3   OH255926   2.004   4.446  10.683 -0.6398  0.4170 -0.9657
11504TIP3    H155927   1.933   4.398  10.725 -0.3587  0.4939 -0.3845
11504TIP3    H255928   1.978   4.452  10.592 -0.4118 -1.3905 -1.2004
11505TIP3   OH255929   5.482   6.756   0.690 -0.7050  0.4281 -0.0472
11505TIP3    H155930   5.413   6.690   0.698 -0.2944 -0.1700 -1.1581
11505TIP3    H255931   5.515   6.745   0.601 -0.9390  2.4738 -0.4183
11506TIP3   OH255932   0.461   4.144   3.879 -0.1698 -0.4342  0.2857
11506TIP3    H155933   0.410   4.148   3.959  0.9404  0.0451  0.9855
11506TIP3    H255934   0.479   4.050   3.866 -1.5881 -0.6658 -0.2391
11507TIP3   OH255935   5.127   5.533  12.445 -0.0149  0.0444 -0.6280
11507TIP3    H155936   5.178   5.456  12.469  0.4470  0.1449 -1.2573
11507TIP3    H255937   5.134   5.537  12.349  1.1286  1.6418 -0.5209
11508TIP3   OH255938   1.965   2.763   4.017 -0.4935 -0.3624  0.4250
11508TIP3    H155939   1.924   2.849   4.029 -0.3361 -0.1667 -0.3921
11508TIP3    H255940   1.993   2.738   4.105 -0.6586  0.3624  0.6941
11509TIP3   OH255941   2.605   4.940   6.462  0.1748  0.3148 -0.2793
11509TIP3    H155942   2.557   4.857   6.469 -0.9702  1.0703  1.7541
11509TIP3    H255943   2.616   4.969   6.553 -0.3163  2.8591 -0.9489
11510TIP3   OH255944   4.040   6.075   6.540  0.1375  0.4064  0.3562
11510TIP3    H155945   3.948   6.047   6.534 -0.0640  1.1009 -0.0035
11510TIP3    H255946   4.036   6.158   6.588  0.7232 -0.2117  1.4909
11511TIP3   OH255947   0.359   1.654  13.113  0.6789  0.3023  0.3812
11511TIP3    H155948   0.428   1.681  13.052  1.1784 -0.0663  0.7736
11511TIP3    H255949   0.400   1.658  13.199  0.5533 -0.9670  0.5303
11512TIP3   OH255950   3.183   3.525  16.870 -0.3147 -0.1732  0.2330
11512TIP3    H155951   3.274   3.544  16.845  0.4795 -0.8128  2.3832
11512TIP3    H255952   3.161   3.445  16.822 -0.5670  1.1452 -1.9877
11513TIP3   OH255953   4.261   4.592  15.349  0.0707  0.6192  0.1674
11513TIP3    H155954   4.336   4.537  15.325  0.1779  1.0932 -0.6260
11513TIP3    H255955   4.185   4.539  15.325  0.0224 -0.8420  3.0608
11514TIP3   OH255956   1.702   6.655  15.119  0.1203  0.1641  0.0533
11514TIP3    H155957   1.685   6.622  15.207  0.6881  1.2123  0.5728
11514TIP3    H255958   1.626   6.708  15.098  0.2641  0.4159  0.1656
11515TIP3   OH255959   2.884   6.307  11.950  0.3016  0.4244  0.1652
11515TIP3    H155960   2.847   6.394  11.937  2.0130  1.2065  0.2712
11515TIP3    H255961   2.920   6.309  12.039  1.0131 -0.1147 -0.0964
11516TIP3   OH255962   1.833   4.827  14.111 -0.5436 -0.1347 -0.4277
11516TIP3    H155963   1.895   4.892  14.075 -1.2897  0.0834 -1.3751
11516TIP3    H255964   1.767   4.817  14.042 -0.6525 -1.6351 -0.1378
11517TIP3   OH255965   3.118   6.228   5.189 -0.1677 -0.0307 -0.0901
11517TIP3    H155966   3.161   6.217   5.274 -2.6320  0.5507  1.3463
11517TIP3    H255967   3.082   6.317   5.192 -2.7890 -0.9853 -0.4656
11518TIP3   OH255968   4.218   6.625   4.919  0.5174  0.0421 -0.0839
11518TIP3    H155969   4.224   6.576   4.838  0.5550 -0.1589  0.0405
11518TIP3    H255970   4.289   6.689   4.914 -0.5424  1.1807 -0.9798
11519TIP3   OH255971   3.123   0.161   4.800 -0.3925 -0.1625  0.2428
11519TIP3    H155972   3.039   0.205   4.790  0.2327  0.9095 -0.5675
11519TIP3    H255973   3.106   0.071   4.773 -1.4284 -0.1342  0.7579
11520TIP3   OH255974   5.988   4.550   2.104 -0.0829  0.2905 -0.3533
11520TIP3    H155975   5.959   4.500   2.180  2.0245  0.5254  0.6680
11520TIP3    H255976   6.007   4.483   2.038  0.7930 -0.1391  0.3181
11521TIP3   OH255977   5.630   2.020  14.181 -0.1986  0.2943  0.5582
11521TIP3    H155978   5.564   1.957  14.209  0.5790 -0.6039  0.4635
11521TIP3    H255979   5.699   1.965  14.142  0.4661  1.2195  0.4052
11522TIP3   OH255980   0.137   3.006   4.065  0.9370  0.0791  0.2529
11522TIP3    H155981   0.048   3.032   4.089 -0.2676 -1.6886 -1.9653
11522TIP3    H255982   0.181   2.991   4.149 -1.2591 -0.2564  1.4180
11523TIP3   OH255983   0.222   4.776  16.181  0.0327 -0.2002 -0.4552
11523TIP3    H155984   0.296   4.770  16.120  0.6278 -1.4795  0.3483
11523TIP3    H255985   0.255   4.832  16.252 -0.1763  0.1700 -0.6506
11524TIP3   OH255986   4.845   3.217   5.118 -0.0553  0.1497 -0.0786
11524TIP3    H155987   4.759   3.228   5.077 -0.4928 -0.2587  0.7130
11524TIP3    H255988   4.899   3.178   5.050 -1.1039 -1.6879  0.0586
11525TIP3   OH255989   0.600   4.894  13.630 -0.3814  0.1588  0.1034
11525TIP3    H155990   0.523   4.905  13.573 -0.3783 -0.4981 -0.0398
11525TIP3    H255991   0.656   4.833  13.582  0.4335  0.9718  0.0121
11526TIP3   OH255992   3.338   4.297   1.593  0.4977  0.0765 -0.2133
11526TIP3    H155993   3.418   4.339   1.623  0.3245 -0.3927  0.9589
11526TIP3    H255994   3.290   4.277   1.673 -0.5440 -0.1337 -0.8753
11527TIP3   OH255995   1.754   3.438   1.896  0.2293 -0.8552  0.2428
11527TIP3    H155996   1.716   3.404   1.815  1.3231 -3.1834  0.6333
11527TIP3    H255997   1.846   3.411   1.893  0.4623 -0.3946  1.9625
11528TIP3   OH255998   5.861   4.914   4.938  0.8460  0.2864 -0.6628
11528TIP3    H155999   5.949   4.952   4.930  1.2930 -0.9823 -2.3045
11528TIP3    H256000   5.871   4.824   4.907 -0.1724 -1.2574  2.9356
11529TIP3   OH256001   2.727   0.765   5.724  0.3403  0.1135  0.0245
11529TIP3    H156002   2.734   0.852   5.763  0.8045 -1.3655  3.5275
11529TIP3    H256003   2.816   0.729   5.727 -0.1545 -1.1465  0.3073
11530TIP3   OH256004   4.331   4.525  12.105 -0.5714 -0.2464 -0.2463
11530TIP3    H156005   4.420   4.516  12.072 -0.7109 -0.8633 -0.4738
11530TIP3    H256006   4.340   4.579  12.184 -0.1539  0.6777 -0.9111
11531TIP3   OH256007   2.882   0.538   3.271 -0.2655 -0.5331 -0.0216
11531TIP3    H156008   2.812   0.597   3.297 -1.3561 -1.2440 -1.2206
11531TIP3    H256009   2.929   0.585   3.202  0.4215 -0.0931  0.7213
11532TIP3   OH256010   3.653   2.465  14.365 -0.4192 -0.3209 -0.5205
11532TIP3    H156011   3.609   2.539  14.406 -0.6810 -0.5632 -0.3572
11532TIP3    H256012   3.682   2.411  14.439 -0.7877 -0.7012 -0.6495
11533TIP3   OH256013   1.607   1.769   2.496  0.0071  0.0857  0.3585
11533TIP3    H156014   1.572   1.732   2.577  2.1320 -1.1153  0.8169
11533TIP3    H256015   1.649   1.695   2.452  3.3362  1.5898  0.6845
11534TIP3   OH256016   4.449   3.077  13.765  0.2380  0.3603  0.0248
11534TIP3    H156017   4.517   3.099  13.829 -0.4082 -1.6727  1.4844
11534TIP3    H256018   4.378   3.138  13.784 -0.1244 -0.5058  1.5955
11535TIP3   OH256019   3.453   0.075   2.680  0.0609 -0.3751  0.6983
11535TIP3    H156020   3.392   0.141   2.646  1.6019  0.5455 -0.4063
11535TIP3    H256021   3.519   0.065   2.611  1.5615 -0.8172  2.1296
11536TIP3   OH256022   0.026   5.005  16.942 -0.4253 -0.2268  0.4142
11536TIP3    H156023  -0.058   4.960  16.935 -0.3711 -0.6417  2.1104
11536TIP3    H256024   0.068   4.991  16.857 -2.8491  1.6811 -1.2734
11537TIP3   OH256025   2.005   0.794   2.688  0.1190 -0.6630  0.2094
11537TIP3    H156026   1.956   0.864   2.730  0.3744 -1.1077  1.2900
11537TIP3    H256027   1.945   0.758   2.622  0.0147  0.5950 -0.4081
11538TIP3   OH256028   4.278   3.600  13.882 -0.0795  0.2238 -0.0092
11538TIP3    H156029   4.344   3.660  13.917 -3.1271  2.8698  1.7138
11538TIP3    H256030   4.232   3.568  13.959 -2.5619  0.6909 -1.2167
11539TIP3   OH256031   5.690   2.284  11.123 -0.3297  1.2419 -0.3577
11539TIP3    H156032   5.715   2.240  11.041 -1.4120 -0.2227  0.0486
11539TIP3    H256033   5.758   2.258  11.185  0.1542  1.8446 -0.6288
11540TIP3   OH256034   5.762   2.255  11.977 -0.5396  0.1528  0.3827
11540TIP3    H156035   5.680   2.298  11.999 -1.1362 -0.6563 -0.1837
11540TIP3    H256036   5.754   2.232  11.884 -0.9555 -2.5624  0.9889
11541TIP3   OH256037   2.444   3.235  16.851  0.0376  0.5323  0.5322
11541TIP3    H156038   2.399   3.255  16.769  2.6583  0.7854 -0.9666
11541TIP3    H256039   2.496   3.157  16.830  2.6788  2.0287  1.0769
11542TIP3   OH256040   6.442   3.393  10.661  0.2628  0.5614  0.2556
11542TIP3    H156041   6.529   3.428  10.642  0.9631 -1.0739  0.3699
11542TIP3    H256042   6.456   3.325  10.725 -0.9361 -0.6327 -0.6896
11543TIP3   OH256043   4.225   6.737   0.038  0.4885 -0.0363  0.0750
11543TIP3    H156044   4.133   6.712   0.040  0.6106 -0.4721  0.9753
11543TIP3    H256045   4.237   6.791   0.116  0.6495  1.3583 -0.8721
11544TIP3   OH256046   0.988   1.920   0.840  0.4640  0.4654 -0.1815
11544TIP3    H156047   1.013   1.922   0.932  0.8019  0.7907 -0.2783
11544TIP3    H256048   0.945   2.004   0.826  0.9860  0.6850 -0.4790
11545TIP3   OH256049   6.270   2.881   3.877 -0.5206 -0.8044  0.0618
11545TIP3    H156050   6.329   2.917   3.943 -1.1171 -2.1241  1.3853
11545TIP3    H256051   6.328   2.832   3.818  0.1152  1.0342 -0.9142
11546TIP3   OH256052   4.041   2.159   1.637  0.1369 -0.0462  0.1858
11546TIP3    H156053   3.980   2.233   1.631  3.8096  3.3056 -0.0831
11546TIP3    H256054   3.986   2.084   1.660 -4.2435  2.2079 -1.7454
11547TIP3   OH256055   4.918   2.600   2.502 -0.1825 -0.1632  0.1469
11547TIP3    H156056   4.980   2.591   2.430  0.7754  0.6226  0.8527
11547TIP3    H256057   4.933   2.523   2.557  1.2524  0.7477  1.1011
11548TIP3   OH256058   4.636   3.111  11.670 -0.2128 -0.3290  0.2490
11548TIP3    H156059   4.725   3.074  11.664  0.3475  0.9357  0.3367
11548TIP3    H256060   4.582   3.039  11.701  0.7660 -1.1630  0.0798
11549TIP3   OH256061   1.036   6.360  12.766 -0.0879  0.0729 -0.0244
11549TIP3    H156062   0.947   6.378  12.737  0.0410  0.9976  0.1512
11549TIP3    H256063   1.048   6.414  12.844  0.4765 -0.3854  0.2136
11550TIP3   OH256064   6.478   4.891  10.951  0.0317 -0.4413 -0.1451
11550TIP3    H156065   6.414   4.961  10.962  0.3598 -0.0214 -0.8750
11550TIP3    H256066   6.427   4.810  10.956 -0.5070 -0.1187 -0.3830
11551TIP3   OH256067   3.549   1.742  10.954 -0.3143  0.1613 -0.1228
11551TIP3    H156068   3.519   1.730  11.044 -1.3836  1.2010 -0.3181
11551TIP3    H256069   3.480   1.702  10.900 -0.1681  0.4184 -0.5062
11552TIP3   OH256070   4.829   4.154   0.097 -0.3470 -0.8081  0.4603
11552TIP3    H156071   4.831   4.074   0.149  0.3114 -0.1488  1.4915
11552TIP3    H256072   4.910   4.200   0.119 -0.0856 -0.4584 -1.1085
11553TIP3   OH256073   0.948   5.692   2.493  0.0712  0.1789 -0.4126
11553TIP3    H156074   0.998   5.611   2.504  0.6388  0.5895  0.0746
11553TIP3    H256075   0.973   5.746   2.568 -0.5780  0.6668 -0.5412
11554TIP3   OH256076   1.046   0.216   4.434 -0.1292  0.6226  0.0532
11554TIP3    H156077   1.103   0.139   4.430  0.9002  1.3679 -0.0183
11554TIP3    H256078   0.997   0.214   4.351  0.0465  0.1634 -0.0427
11555TIP3   OH256079   3.795   6.790  16.297  0.4939  0.0597 -0.7786
11555TIP3    H156080   3.884   6.761  16.316 -0.2686 -1.9325  0.0907
11555TIP3    H256081   3.761   6.725  16.235 -1.5266 -1.5653  1.7983
11556TIP3   OH256082   5.061   4.885  11.532  0.4144  0.5878  0.7425
11556TIP3    H156083   4.980   4.836  11.522  0.9992 -0.3357  0.3477
11556TIP3    H256084   5.111   4.865  11.452 -0.6526  4.5003 -1.2098
11557TIP3   OH256085   2.817   6.038  17.131 -0.2513 -0.2384 -0.2830
11557TIP3    H156086   2.884   6.102  17.107 -0.8058  0.3795 -0.2197
11557TIP3    H256087   2.739   6.091  17.150 -0.1175 -0.7260  1.9653
11558TIP3   OH256088   0.757   4.951  14.703 -0.0625  0.4572  0.0806
11558TIP3    H156089   0.765   4.987  14.791 -0.2152  0.3009  0.1587
11558TIP3    H256090   0.683   4.998  14.664 -1.2771 -0.8409  0.7213
11559TIP3   OH256091   1.390   0.282   2.259  0.1011  0.3925  0.1348
11559TIP3    H156092   1.304   0.280   2.300 -1.5264 -0.8460 -3.0075
11559TIP3    H256093   1.402   0.372   2.231 -0.0099  0.6297  0.8299
11560TIP3   OH256094   4.180   6.284  12.845  0.2484 -0.2362  0.1917
11560TIP3    H156095   4.181   6.336  12.926 -1.7806  0.5538 -0.2388
11560TIP3    H256096   4.087   6.269  12.827  0.5841  0.4016 -2.4912
11561TIP3   OH256097   4.288   6.381  16.278 -0.0422 -0.5458 -0.2437
11561TIP3    H156098   4.231   6.372  16.355  1.2845  2.5683  1.2584
11561TIP3    H256099   4.272   6.469  16.246  3.8937  0.5700  0.3332
11562TIP3   OH256100   4.618   5.600  14.271 -0.2518 -0.0722  0.1962
11562TIP3    H156101   4.523   5.618  14.272 -0.4434 -1.0402  1.6634
11562TIP3    H256102   4.625   5.514  14.230  0.0971  0.4211 -0.8033
11563TIP3   OH256103   4.041   5.458  14.255  0.4535 -1.0036 -0.4748
11563TIP3    H156104   4.021   5.481  14.165  0.7596  0.8480 -0.1137
11563TIP3    H256105   3.970   5.497  14.307  0.5884 -1.5398  0.1279
11564TIP3   OH256106   1.153   4.555   0.797  0.4273  0.0018 -0.4727
11564TIP3    H156107   1.190   4.631   0.752  0.0715 -0.6310 -1.8707
11564TIP3    H256108   1.065   4.546   0.760  0.1371 -0.5704  0.3276
11565TIP3   OH256109   2.489   5.103   5.011 -0.5848 -0.7437 -0.3440
11565TIP3    H156110   2.416   5.065   5.059  0.2101 -1.4775  0.3134
11565TIP3    H256111   2.555   5.122   5.078 -0.2139  0.0197 -0.9081
11566TIP3   OH256112   4.030   3.392   1.637  0.5193 -0.1039  0.0489
11566TIP3    H156113   4.048   3.399   1.544  0.4448  0.3086  0.0655
11566TIP3    H256114   4.110   3.354   1.674  0.7907  0.3221 -0.0944
11567TIP3   OH256115   4.549   4.961  15.714  0.2296 -0.3153  0.2377
11567TIP3    H156116   4.528   4.987  15.624 -1.4770 -0.2018  0.6472
11567TIP3    H256117   4.633   5.003  15.731  0.5536 -0.2657 -1.2645
11568TIP3   OH256118   3.670   0.759   6.060  0.8043 -0.3116 -0.2032
11568TIP3    H156119   3.618   0.679   6.068  0.4312 -0.5428 -3.4137
11568TIP3    H256120   3.616   0.827   6.100  0.0008 -1.2501  0.3524
11569TIP3   OH256121   3.256   4.563   2.542  0.0248  0.4522  0.2663
11569TIP3    H156122   3.216   4.557   2.455 -0.7073 -1.4134  0.6686
11569TIP3    H256123   3.333   4.618   2.530  0.7624 -0.9145 -1.9021
11570TIP3   OH256124   5.719   3.535  16.784 -0.3582 -0.5251  0.1849
11570TIP3    H156125   5.804   3.549  16.826 -1.5273  0.5065  2.3591
11570TIP3    H256126   5.673   3.618  16.794 -1.6444 -1.0500 -0.9862
11571TIP3   OH256127   0.210   5.768  13.765  0.3158 -0.2477  0.4038
11571TIP3    H156128   0.203   5.719  13.847 -0.2240 -3.1817 -1.2353
11571TIP3    H256129   0.121   5.767  13.730  0.5321  1.0038 -0.2314
11572TIP3   OH256130   6.168   4.867   1.103 -0.2390 -0.2127 -0.2759
11572TIP3    H156131   6.213   4.859   1.187 -0.1862  1.3517 -0.1264
11572TIP3    H256132   6.075   4.860   1.125 -0.3009  1.4563  0.1276
11573TIP3   OH256133   2.559   3.378  16.112  0.0455 -0.0655 -0.0500
11573TIP3    H156134   2.637   3.345  16.066  0.1585 -0.1365  0.1926
11573TIP3    H256135   2.496   3.306  16.109  0.3091 -0.3288  0.5213
11574TIP3   OH256136   5.841   0.912   5.011 -0.8950 -0.2034 -0.3470
11574TIP3    H156137   5.750   0.897   5.035 -1.3017  0.6275 -1.2969
11574TIP3    H256138   5.848   0.879   4.921  0.1849 -1.7857  0.2774
11575TIP3   OH256139   3.209   0.029  10.730 -0.0694  0.8015  0.1095
11575TIP3    H156140   3.128  -0.015  10.755 -1.1009  1.4800 -1.8496
11575TIP3    H256141   3.183   0.117  10.705  1.8434  2.3855  3.0580
11576TIP3   OH256142   1.268   0.366   4.896  0.2070 -0.0292  0.2036
11576TIP3    H156143   1.302   0.320   4.972  0.6143  0.8296  0.5524
11576TIP3    H256144   1.173   0.352   4.900  0.3351 -0.9968  0.1777
11577TIP3   OH256145   5.314   0.049   4.930 -0.6870  0.0894  0.0942
11577TIP3    H156146   5.329   0.143   4.940 -0.2308 -0.0693  1.0227
11577TIP3    H256147   5.224   0.036   4.961 -1.1093  0.3495 -0.9709
11578TIP3   OH256148   6.013   1.866  16.497  0.2200  0.3385  0.4509
11578TIP3    H156149   5.985   1.775  16.487 -0.5829  0.6341 -0.0276
11578TIP3    H256150   6.109   1.861  16.502  0.1255 -0.6251  1.5553
11579TIP3   OH256151   5.829   3.217   2.457 -0.0501 -0.0792 -0.1119
11579TIP3    H156152   5.856   3.309   2.446 -1.7455  0.7583  1.9835
11579TIP3    H256153   5.734   3.220   2.457 -0.1318 -1.7655  0.6089
11580TIP3   OH256154   0.119   0.148  12.485  0.0007  0.0759 -0.5963
11580TIP3    H156155   0.109   0.136  12.390 -0.4808 -1.1362 -0.4155
11580TIP3    H256156   0.092   0.238  12.501  0.8903  0.5695 -1.7179
11581TIP3   OH256157   2.330   6.541  15.812  0.0159 -0.2557  0.6505
11581TIP3    H156158   2.397   6.506  15.870 -0.0874 -0.3814  0.6941
11581TIP3    H256159   2.287   6.465  15.774  0.7020 -0.1706 -0.3138
11582TIP3   OH256160   4.208   0.078  15.198  0.0453  0.1977 -0.4573
11582TIP3    H156161   4.119   0.111  15.212  0.0064  0.3406 -1.0080
11582TIP3    H256162   4.244   0.066  15.286 -0.6628 -0.2530 -0.2293
11583TIP3   OH256163   1.244   1.663   0.194  0.6128 -0.0625  0.0935
11583TIP3    H156164   1.328   1.674   0.149  0.7466  1.2022  0.6143
11583TIP3    H256165   1.264   1.680   0.286 -0.1597 -0.0812  0.2711
11584TIP3   OH256166   1.300   5.518  16.459  0.2648 -0.1920  0.2026
11584TIP3    H156167   1.312   5.428  16.490 -1.1240 -0.3068  0.4777
11584TIP3    H256168   1.338   5.572  16.528 -0.5327 -0.5269  0.9213
11585TIP3   OH256169   6.379   0.849  12.077  0.2803  0.2110  0.0890
11585TIP3    H156170   6.410   0.853  12.168 -1.3141 -2.9908  0.9206
11585TIP3    H256171   6.439   0.789  12.034  1.4140  2.2040 -1.2489
11586TIP3   OH256172   3.904   1.699  14.067 -0.0147  0.2238  0.1266
11586TIP3    H156173   3.928   1.608  14.052  0.9891 -0.0745  2.9248
11586TIP3    H256174   3.809   1.698  14.079 -0.8250  0.3911 -4.4454
11587TIP3   OH256175   2.617   3.810  12.743  0.5068  0.2063  0.0035
11587TIP3    H156176   2.560   3.874  12.786  0.8319 -0.3747  1.3161
11587TIP3    H256177   2.558   3.739  12.718  0.0925  1.0796 -1.7085
11588TIP3   OH256178   2.675   0.623   4.951 -0.1730 -0.0742 -0.0149
11588TIP3    H156179   2.739   0.681   4.910 -0.2476 -0.0453 -0.0916
11588TIP3    H256180   2.618   0.595   4.879  1.4011 -2.3259 -0.5156
11589TIP3   OH256181   1.268   2.171   2.652  0.0523 -0.6534 -0.7359
11589TIP3    H156182   1.240   2.168   2.561  0.4068  0.4111 -0.8863
11589TIP3    H256183   1.228   2.251   2.687  0.8140 -0.4709 -0.2639
11590TIP3   OH256184   3.371   5.924  10.708 -0.2144  0.4566  0.8236
11590TIP3    H156185   3.305   5.899  10.643  2.0609 -0.1604 -1.4008
11590TIP3    H256186   3.436   5.853  10.705  2.8978  3.1164 -0.5491
11591TIP3   OH256187   2.329   4.591   4.747 -0.5674 -0.1683 -0.9077
11591TIP3    H156188   2.347   4.644   4.670  0.4263  0.0485 -0.5322
11591TIP3    H256189   2.370   4.638   4.819  0.9196 -1.7725 -0.6651
11592TIP3   OH256190   5.523   5.665   1.009 -0.0397 -0.0863  0.0551
11592TIP3    H156191   5.610   5.696   1.036  1.0427 -1.4330 -1.6427
11592TIP3    H256192   5.538   5.575   0.980 -2.3481 -0.9160  1.2414
11593TIP3   OH256193   4.227   2.946  15.479 -0.0186  0.0468 -0.2675
11593TIP3    H156194   4.311   2.933  15.435  0.9051  1.9696  0.7683
11593TIP3    H256195   4.173   2.992  15.414  0.7733  1.4020 -0.0245
11594TIP3   OH256196   0.107   0.110   0.297 -1.0359 -0.5222 -0.0868
11594TIP3    H156197   0.097   0.190   0.348  3.3577 -0.3335  0.8925
11594TIP3    H256198   0.149   0.048   0.357  1.6926 -1.2487 -2.5071
11595TIP3   OH256199   2.150   1.332  11.846 -1.1402  0.6532 -0.2994
11595TIP3    H156200   2.200   1.344  11.765  0.4655  1.3634  0.7506
11595TIP3    H256201   2.153   1.238  11.862  1.2858  0.8041  0.5470
11596TIP3   OH256202   0.504   0.164   5.070  0.3085  0.2271 -0.0190
11596TIP3    H156203   0.491   0.069   5.077 -0.6634  0.3981  1.0177
11596TIP3    H256204   0.415   0.200   5.076  0.6990  1.2195 -0.0281
11597TIP3   OH256205   1.323   2.078  15.611 -0.3901  0.6986 -0.2822
11597TIP3    H156206   1.279   2.053  15.530 -0.8560  1.4499 -0.2726
11597TIP3    H256207   1.408   2.110  15.582 -1.1672  2.5634 -0.6857
11598TIP3   OH256208   1.957   5.799   2.016 -0.1724  0.0427  0.0462
11598TIP3    H156209   1.868   5.827   1.995 -0.3150 -0.0825  0.4844
11598TIP3    H256210   2.011   5.840   1.948 -0.6922 -0.7990 -0.9006
11599TIP3   OH256211   1.163   2.234  15.866 -0.1643 -0.2856  0.2033
11599TIP3    H156212   1.140   2.208  15.777 -0.0242  1.9665 -0.5552
11599TIP3    H256213   1.084   2.217  15.917 -0.9437  0.2659 -0.7893
11600TIP3   OH256214   2.403   6.597  16.223  0.6222 -0.0722  0.3742
11600TIP3    H156215   2.383   6.530  16.288 -2.4708 -0.0502 -0.4034
11600TIP3    H256216   2.445   6.550  16.151 -0.5001 -0.9944  0.3081
11601TIP3   OH256217   2.520   1.550   3.753  0.0983 -0.1184 -0.7223
11601TIP3    H156218   2.447   1.604   3.722 -0.8895 -2.2043 -2.2377
11601TIP3    H256219   2.598   1.599   3.726 -0.6612  2.0544  0.7572
11602TIP3   OH256220   4.763   5.899  14.824  0.0811 -0.4651 -0.1818
11602TIP3    H156221   4.821   5.935  14.757  0.2371  0.9143  0.6644
11602TIP3    H256222   4.675   5.925  14.797  0.1154 -0.1805 -0.0228
11603TIP3   OH256223   0.001   6.429  11.520  0.6341  0.8270 -0.6162
11603TIP3    H156224  -0.027   6.406  11.431  0.0253 -2.0182  0.2155
11603TIP3    H256225  -0.077   6.415  11.574  1.4357  0.8931  0.6000
11604TIP3   OH256226   2.579   1.348  11.636 -0.3606  0.5039 -0.1131
11604TIP3    H156227   2.614   1.435  11.621  0.6383 -0.0440 -1.1299
11604TIP3    H256228   2.552   1.348  11.728  0.6983  1.5097  0.2212
11605TIP3   OH256229   4.482   6.133  13.950 -0.4381  0.4936 -0.2295
11605TIP3    H156230   4.549   6.177  13.898  0.2353 -1.8655 -1.5224
11605TIP3    H256231   4.531   6.083  14.015 -1.0133 -0.2030 -0.3171
11606TIP3   OH256232   0.471   3.559  14.784 -0.1966 -0.2682  0.3439
11606TIP3    H156233   0.475   3.655  14.791  0.4460 -0.3663  1.8068
11606TIP3    H256234   0.398   3.542  14.726 -0.3209  1.1202  0.0628
11607TIP3   OH256235   5.667   2.248  12.903  0.0621  0.4215 -0.4001
11607TIP3    H156236   5.576   2.220  12.910  0.1628  0.3081  0.5286
11607TIP3    H256237   5.718   2.175  12.939  0.5675  0.2272 -1.4695
11608TIP3   OH256238   4.841   5.151   0.351  0.2926  0.6888 -0.0841
11608TIP3    H156239   4.794   5.103   0.284  0.4522 -0.2589  0.4575
11608TIP3    H256240   4.776   5.210   0.389  0.2451  1.3464 -1.1678
11609TIP3   OH256241   5.836   6.561  11.323 -0.1043 -0.0143 -0.2392
11609TIP3    H156242   5.823   6.553  11.417  1.8399  1.9638  0.2721
11609TIP3    H256243   5.780   6.634  11.297 -1.5309 -1.2745 -0.9064
11610TIP3   OH256244   1.831   5.509   1.553  0.4193 -0.0260  0.5056
11610TIP3    H156245   1.924   5.495   1.534  0.6859 -1.4810  2.6164
11610TIP3    H256246   1.830   5.575   1.622 -0.2427  0.9471 -0.3846
11611TIP3   OH256247   5.994   0.079  10.645 -0.3755 -0.5634  0.6009
11611TIP3    H156248   5.991   0.117  10.558 -0.3479 -1.0191  0.4013
11611TIP3    H256249   5.959   0.148  10.702 -1.7237 -0.7635  0.0535
11612TIP3   OH256250   0.585   2.979   1.367 -0.3553  0.4019  0.6267
11612TIP3    H156251   0.540   2.969   1.451 -0.5009  0.5545  0.5660
11612TIP3    H256252   0.543   2.916   1.309 -1.3166  1.3848  0.2262
11613TIP3   OH256253   0.323   3.985  14.141  0.7965 -0.6720  0.0567
11613TIP3    H156254   0.297   4.025  14.057  0.5189 -0.8548  0.0552
11613TIP3    H256255   0.288   3.896  14.137  0.6587 -0.6367  0.4261
11614TIP3   OH256256   3.337   4.400   5.729 -0.0799  0.3976  0.1503
11614TIP3    H156257   3.317   4.452   5.806  1.5255 -0.4574  1.2134
11614TIP3    H256258   3.275   4.429   5.663 -2.0516  0.6028  1.9921
11615TIP3   OH256259   6.416   3.489   5.010  0.3696 -0.3896  0.9291
11615TIP3    H156260   6.336   3.532   5.041  0.4235  0.0653  0.4483
11615TIP3    H256261   6.385   3.411   4.965  0.1212  0.2739 -0.0818
11616TIP3   OH256262   2.704   1.777  11.517 -0.3529 -0.6873 -0.6279
11616TIP3    H156263   2.642   1.760  11.588  0.1665  0.3255  0.0955
11616TIP3    H256264   2.704   1.697  11.466 -0.8505 -1.3967  0.4398
11617TIP3   OH256265   0.211   2.205  14.581 -0.3394 -0.2741  0.8197
11617TIP3    H156266   0.157   2.129  14.559 -2.0041  0.7029  1.3980
11617TIP3    H256267   0.299   2.180  14.552 -1.2832 -1.4137 -1.3252
11618TIP3   OH256268   0.244   3.251  11.705  0.0296  0.3382 -0.6888
11618TIP3    H156269   0.313   3.308  11.737  0.5171 -0.3999 -0.3904
11618TIP3    H256270   0.191   3.306  11.647  0.6317  1.0118 -0.6034
11619TIP3   OH256271   2.140   2.350  12.411 -0.3009  0.2968 -0.2243
11619TIP3    H156272   2.185   2.427  12.446 -1.6656  0.8719  0.3767
11619TIP3    H256273   2.104   2.306  12.488 -1.1698  0.1406 -0.7063
11620TIP3   OH256274   1.319   2.391  16.039  0.4581 -0.0239 -0.1934
11620TIP3    H156275   1.379   2.323  16.008  0.4730 -0.5653  0.9788
11620TIP3    H256276   1.234   2.367  16.001  0.8120  0.3493 -1.2793
11621TIP3   OH256277   4.061   2.077   0.606  0.1863 -0.1161 -0.3461
11621TIP3    H156278   4.116   2.112   0.676 -0.5875 -0.6895  0.5662
11621TIP3    H256279   4.083   1.984   0.602 -1.8708 -0.7340  1.1860
11622TIP3   OH256280   0.966   0.719   3.497  0.6480  0.5616  0.1039
11622TIP3    H156281   1.022   0.761   3.562  0.1448  0.6170  0.5076
11622TIP3    H256282   0.896   0.679   3.548  1.1747 -0.8657 -0.2644
11623TIP3   OH256283   2.778   1.370  12.718  0.4568 -0.2524 -0.1076
11623TIP3    H156284   2.861   1.381  12.764  0.5058  0.4514 -0.3615
11623TIP3    H256285   2.712   1.367  12.787  0.3161  2.6232 -0.0004
11624TIP3   OH256286   4.179   6.462   5.517 -0.1493  0.0198 -0.2724
11624TIP3    H156287   4.095   6.505   5.532 -0.1491  0.2180 -0.8147
11624TIP3    H256288   4.242   6.534   5.514  0.0634 -0.1365  0.2535
11625TIP3   OH256289   5.331   2.072  15.461  0.1997 -0.2166  0.5676
11625TIP3    H156290   5.278   2.031  15.530 -0.6091  0.1006  0.1473
11625TIP3    H256291   5.421   2.048  15.483  0.0015  0.2242  1.9756
11626TIP3   OH256292   4.007   1.913  13.207 -0.0536 -0.4608  0.1757
11626TIP3    H156293   3.943   1.981  13.183  0.2691 -0.4757 -0.7887
11626TIP3    H256294   4.064   1.956  13.271 -0.4664 -0.1432  0.3342
11627TIP3   OH256295   5.852   6.225  11.820 -0.3692 -0.5886  0.2212
11627TIP3    H156296   5.850   6.242  11.726  0.0471  0.0841  0.3347
11627TIP3    H256297   5.933   6.265  11.851 -0.3627 -1.0462  0.8265
11628TIP3   OH256298   3.469   1.624  15.469 -0.0697 -0.5931 -0.1748
11628TIP3    H156299   3.388   1.675  15.470 -1.4744 -2.6777  1.1402
11628TIP3    H256300   3.515   1.653  15.391 -2.5634 -0.0415 -1.5496
11629TIP3   OH256301   0.588   5.519   1.875  0.5068  0.2270 -0.0351
11629TIP3    H156302   0.664   5.549   1.924 -0.0943 -0.0776  1.1282
11629TIP3    H256303   0.572   5.430   1.909 -1.6689  1.0769  1.3965
11630TIP3   OH256304   6.391   0.397   5.467 -0.0789  0.5235 -0.2324
11630TIP3    H156305   6.431   0.387   5.381  0.1374 -1.6817  0.0878
11630TIP3    H256306   6.465   0.408   5.527 -0.0962 -0.2475 -0.0590
11631TIP3   OH256307   4.742   2.642   1.739  0.9815  0.1154  0.9065
11631TIP3    H156308   4.805   2.572   1.754  1.6523  0.9600  2.2163
11631TIP3    H256309   4.666   2.620   1.793  0.8817  0.0232  0.7312
11632TIP3   OH256310   2.505   6.304  13.006 -0.0812  0.3001  0.5951
11632TIP3    H156311   2.509   6.350  12.923 -0.9597  0.9482  0.8950
11632TIP3    H256312   2.554   6.359  13.067  1.1300 -0.5018  0.3840
11633TIP3   OH256313   2.227   6.028  14.274 -0.6091 -0.0640 -0.5270
11633TIP3    H156314   2.227   6.018  14.179 -0.7466 -0.7988 -0.4581
11633TIP3    H256315   2.261   5.944  14.307 -0.0386  0.3815  0.0568
11634TIP3   OH256316   5.058   5.337   0.955 -0.0180 -0.1313  0.0355
11634TIP3    H156317   5.147   5.323   0.923  0.0003 -0.7283  0.3397
11634TIP3    H256318   5.004   5.334   0.876  0.2685  0.5965 -0.1914
11635TIP3   OH256319   5.806   0.901   3.540 -0.0637  0.6149  0.0554
11635TIP3    H156320   5.893   0.917   3.576  0.9119 -0.7026 -1.5467
11635TIP3    H256321   5.781   0.985   3.500  0.5021  0.9743  0.4403
11636TIP3   OH256322   5.232   6.382   4.674  0.3795  0.0424  0.0901
11636TIP3    H156323   5.224   6.434   4.754  1.2651 -0.9094  0.8226
11636TIP3    H256324   5.311   6.415   4.631 -0.8851  1.5671 -1.2019
11637TIP3   OH256325   4.581   3.644   0.242  0.0549  0.1296 -0.4151
11637TIP3    H156326   4.652   3.706   0.263  1.7589 -1.4732 -1.1458
11637TIP3    H256327   4.590   3.575   0.307 -1.5128  0.3597  0.0786
11638TIP3   OH256328   5.233   0.493  17.169 -0.4677 -0.3536 -0.2930
11638TIP3    H156329   5.295   0.493  17.242  0.3236 -1.4902 -0.9368
11638TIP3    H256330   5.270   0.555  17.106 -0.4869 -0.3241 -0.2756
11639TIP3   OH256331   1.376   5.843  16.981  0.4513  0.4280 -0.0842
11639TIP3    H156332   1.425   5.765  16.954  0.0934 -0.0531  0.6408
11639TIP3    H256333   1.432   5.886  17.045  0.3172  0.3590  0.0798
11640TIP3   OH256334   3.755   0.383  17.112 -0.0713 -0.2798 -0.0999
11640TIP3    H156335   3.749   0.378  17.207 -1.2697 -2.0010 -0.2118
11640TIP3    H256336   3.722   0.470  17.089 -1.0097 -0.3351  0.9873
11641TIP3   OH256337   5.664   4.257   0.977  0.6875  0.1212 -0.1276
11641TIP3    H156338   5.584   4.205   0.971  0.3348  0.5193  0.8807
11641TIP3    H256339   5.695   4.266   0.887  0.0468 -0.7300 -0.4385
11642TIP3   OH256340   3.822   6.300   5.534  0.0018  0.3218 -0.2419
11642TIP3    H156341   3.753   6.236   5.552  0.3781 -0.5089 -1.6494
11642TIP3    H256342   3.902   6.258   5.565  0.0159  0.9440  0.6154
11643TIP3   OH256343   3.455   6.213  13.522 -0.3126 -0.0912  0.1189
11643TIP3    H156344   3.454   6.279  13.454 -0.2631 -0.9839 -0.7718
11643TIP3    H256345   3.363   6.197  13.543 -0.3104  0.6265  0.7202
11644TIP3   OH256346   0.401   4.957   1.255 -0.3553  0.3247 -0.1394
11644TIP3    H156347   0.408   4.872   1.298 -2.0774  0.8187  1.2423
11644TIP3    H256348   0.321   4.951   1.203  1.2905  0.0086 -2.8035
11645TIP3   OH256349   2.656   4.518  13.194  0.1175  0.0832  0.1199
11645TIP3    H156350   2.607   4.582  13.142 -0.2542 -0.9483 -0.8508
11645TIP3    H256351   2.692   4.457  13.129  1.9795  0.3046  0.8722
11646TIP3   OH256352   2.986   4.546  10.668  0.2389  0.5915  0.4839
11646TIP3    H156353   2.893   4.536  10.688  0.4320 -2.0350  0.4560
11646TIP3    H256354   2.992   4.629  10.621 -1.8392  1.5573  1.7830
11647TIP3   OH256355   3.371   3.769   1.232 -0.6739 -0.4593  0.4349
11647TIP3    H156356   3.400   3.859   1.249 -0.2156 -0.2455 -1.2589
11647TIP3    H256357   3.276   3.771   1.247 -0.5682  0.1385  1.0615
11648TIP3   OH256358   4.611   3.646   3.197 -0.3315 -0.4291  0.2730
11648TIP3    H156359   4.684   3.660   3.258 -0.7884 -0.6279  0.8714
11648TIP3    H256360   4.586   3.555   3.209  0.4433 -0.8684 -1.1963
11649TIP3   OH256361   3.395   4.605  11.382 -0.4003 -0.2175 -0.0651
11649TIP3    H156362   3.485   4.575  11.369  0.0199  1.2197 -0.6534
11649TIP3    H256363   3.394   4.693  11.345 -3.0826 -1.6000 -3.9033
11650TIP3   OH256364   6.252   2.273  13.366 -0.3248  0.1654  0.3570
11650TIP3    H156365   6.321   2.323  13.322  0.9880 -2.0505 -0.2120
11650TIP3    H256366   6.271   2.282  13.459  0.7697 -0.4542  0.2065
11651TIP3   OH256367   0.241   0.396  15.931  0.1200 -0.0952  0.2345
11651TIP3    H156368   0.168   0.347  15.892 -0.0925  0.0312  0.4635
11651TIP3    H256369   0.211   0.487  15.932 -0.2881 -0.2146  1.5592
11652TIP3   OH256370   4.953   1.563   1.094  0.5110  0.2740  0.2406
11652TIP3    H156371   5.003   1.595   1.019  1.3071 -2.1364 -0.3543
11652TIP3    H256372   4.971   1.469   1.097 -3.4923 -0.7104  0.3617
11653TIP3   OH256373   6.389   4.516   4.592  0.0688  0.0239 -0.2266
11653TIP3    H156374   6.367   4.609   4.592  0.6203  0.1615 -0.0211
11653TIP3    H256375   6.416   4.498   4.502 -1.1929 -0.2289 -0.5643
11654TIP3   OH256376   5.249   5.438   2.067  0.3125 -0.6086  0.3495
11654TIP3    H156377   5.162   5.475   2.081  0.5905 -0.7010  2.7772
11654TIP3    H256378   5.308   5.512   2.082  0.7025 -0.9115  0.3039
11655TIP3   OH256379   3.298   1.418   5.091 -0.8752 -0.5077 -0.7436
11655TIP3    H156380   3.247   1.429   5.011 -2.4818  0.3397  0.3450
11655TIP3    H256381   3.233   1.397   5.158  0.3488 -0.5568  0.4674
11656TIP3   OH256382   0.149   5.830   5.639 -0.6088 -0.0945 -0.7394
11656TIP3    H156383   0.166   5.859   5.729  0.5317 -0.1064 -0.9318
11656TIP3    H256384   0.058   5.853   5.623 -0.9429 -0.4404  0.5525
11657TIP3   OH256385   4.945   6.025   3.368  0.7857 -0.4404 -0.1890
11657TIP3    H156386   4.921   5.942   3.408 -0.2700 -1.7105 -3.1809
11657TIP3    H256387   4.865   6.078   3.373  1.0250 -0.1233  0.4163
11658TIP3   OH256388   0.612   4.996   1.065 -0.4724  0.3148 -0.1700
11658TIP3    H156389   0.689   4.947   1.094  0.5377  1.4564 -0.8272
11658TIP3    H256390   0.546   4.978   1.131  0.6510  0.0355  0.9189
11659TIP3   OH256391   0.302   5.440   4.784 -0.2090  0.0106  0.0316
11659TIP3    H156392   0.360   5.426   4.709 -2.4597  3.9030 -2.8165
11659TIP3    H256393   0.359   5.473   4.854  1.6679 -1.6608 -0.6207
11660TIP3   OH256394   5.970   6.035  14.929 -0.2713  0.5902  0.2449
11660TIP3    H156395   6.017   6.116  14.910 -0.3417  0.0466 -2.9242
11660TIP3    H256396   6.038   5.968  14.934 -0.4120  0.2956 -1.1841
11661TIP3   OH256397   2.339   0.305  14.766  0.0207 -0.2661 -0.1555
11661TIP3    H156398   2.338   0.212  14.789 -1.1226  0.0771  1.3407
11661TIP3    H256399   2.429   0.321  14.738 -0.0285 -2.0451 -1.5123
11662TIP3   OH256400   0.742   4.401   0.468 -0.4964  0.5804  0.6419
11662TIP3    H156401   0.789   4.318   0.471 -0.4700  0.5976  0.6990
11662TIP3    H256402   0.651   4.376   0.449 -0.6244  0.4886  1.3608
11663TIP3   OH256403   6.657   0.449  11.607 -0.5182 -0.4339  0.3090
11663TIP3    H156404   6.637   0.503  11.530 -1.9587 -0.5440  0.5887
11663TIP3    H256405   6.683   0.512  11.674 -1.9015 -0.0847  0.5399
11664TIP3   OH256406   5.225   6.550  17.119 -0.1934 -0.1212 -0.1154
11664TIP3    H156407   5.246   6.518  17.031  1.1469 -2.8205  1.0585
11664TIP3    H256408   5.131   6.569  17.116 -0.3771 -1.0743 -1.8819
11665TIP3   OH256409   2.864   4.014   5.135  0.3576  0.1747 -0.1815
11665TIP3    H156410   2.876   4.001   5.229  0.8883 -1.3322 -0.4370
11665TIP3    H256411   2.951   4.002   5.098 -0.0671 -0.4723 -0.9951
11666TIP3   OH256412   6.180   5.905   4.344  0.0237 -0.5591  0.7172
11666TIP3    H156413   6.097   5.891   4.390 -0.0838 -2.0303  0.1149
11666TIP3    H256414   6.233   5.828   4.364 -0.1199 -1.4093 -1.7766
11667TIP3   OH256415   0.833   4.479   0.193  0.2322  0.4042  0.4638
11667TIP3    H156416   0.881   4.521   0.122 -1.2008 -0.4858 -1.1167
11667TIP3    H256417   0.825   4.547   0.260  2.3562  1.0124  0.1852
11668TIP3   OH256418   0.234   5.893  11.275  0.3027  0.2183  0.8711
11668TIP3    H156419   0.276   5.975  11.249  0.2602  0.9221  2.8362
11668TIP3    H256420   0.148   5.896  11.233  0.6711  0.7059  0.1261
11669TIP3   OH256421   3.810   0.868   2.255  0.2076  0.2627  0.1293
11669TIP3    H156422   3.904   0.861   2.235 -0.2397 -3.2625 -1.3053
11669TIP3    H256423   3.769   0.886   2.170 -0.4553  3.3454  0.9561
11670TIP3   OH256424   1.252   0.681   6.034  0.8519 -0.3156 -0.1950
11670TIP3    H156425   1.185   0.614   6.034  1.2995 -0.7708  0.6582
11670TIP3    H256426   1.243   0.726   6.118  0.9163  0.3412 -0.5244
11671TIP3   OH256427   2.927   0.002   0.608 -0.3319 -0.3959 -0.5586
11671TIP3    H156428   2.984  -0.055   0.555 -2.1378 -0.1261 -2.9758
11671TIP3    H256429   2.977   0.083   0.618  0.8476 -1.1523 -0.1057
11672TIP3   OH256430   1.100   3.983  10.683  0.4400  0.2453 -1.1744
11672TIP3    H156431   1.108   3.929  10.762  0.2527  1.4173 -0.3345
11672TIP3    H256432   1.066   4.067  10.714  1.2358  1.0466 -2.3851
11673TIP3   OH256433   0.516   3.393   0.418  0.3546  0.4965  0.0224
11673TIP3    H156434   0.608   3.396   0.443 -0.0248 -0.2979  1.6890
11673TIP3    H256435   0.473   3.455   0.477 -0.4618 -0.7585  0.8004
11674TIP3   OH256436   2.286   3.164   4.339 -0.3340 -0.6806  0.4554
11674TIP3    H156437   2.379   3.181   4.322 -0.4775 -1.9377 -2.0941
11674TIP3    H256438   2.285   3.117   4.422  1.2252  0.1053  0.9526
11675TIP3   OH256439   1.270   1.556  12.167  0.1767 -0.9459  0.2207
11675TIP3    H156440   1.286   1.500  12.242  0.9468  1.0503  1.6377
11675TIP3    H256441   1.340   1.621  12.170 -0.9688  0.4152 -1.0044
11676TIP3   OH256442   4.644   6.139   3.396  0.7478 -0.2921 -0.0555
11676TIP3    H156443   4.562   6.141   3.347  0.5617 -0.3671  0.2484
11676TIP3    H256444   4.705   6.190   3.344  0.6412 -0.6401 -0.5268
11677TIP3   OH256445   6.448   3.129   5.856 -0.7244 -0.1418  0.0937
11677TIP3    H156446   6.467   3.054   5.799  1.3862 -0.6004  1.2669
11677TIP3    H256447   6.396   3.092   5.927  0.5982 -0.6467  0.8498
11678TIP3   OH256448   4.969   2.728   0.840  0.3800 -0.7412 -0.0863
11678TIP3    H156449   4.991   2.776   0.760  0.4231 -2.0848 -0.9111
11678TIP3    H256450   5.043   2.743   0.898 -0.6406  2.0985  0.6247
11679TIP3   OH256451   2.306   2.725  16.242 -0.2911 -0.5314 -0.0532
11679TIP3    H156452   2.222   2.727  16.289 -0.8913 -0.5122 -1.0859
11679TIP3    H256453   2.281   2.712  16.150  0.6938  1.6182 -0.6922
11680TIP3   OH256454   4.866   1.380   4.016  1.2738 -0.4190  0.2073
11680TIP3    H156455   4.823   1.445   3.960 -1.4754  0.0775  2.6385
11680TIP3    H256456   4.955   1.373   3.981  0.0142  0.3603 -3.6621
11681TIP3   OH256457   0.479   4.546   2.243 -0.6183 -0.0637 -0.1668
11681TIP3    H156458   0.392   4.521   2.212 -0.1648 -1.0246 -0.7167
11681TIP3    H256459   0.530   4.558   2.163  0.2814 -1.5160  0.1430
11682TIP3   OH256460   5.553   0.542  12.400 -0.1260  0.2138  0.0322
11682TIP3    H156461   5.515   0.474  12.456  1.1973 -0.7738 -0.2103
11682TIP3    H256462   5.527   0.518  12.312  1.9401 -1.1564 -0.2669
11683TIP3   OH256463   0.427   1.119   3.861 -0.1135 -0.0104  0.0574
11683TIP3    H156464   0.404   1.198   3.812  1.4160  0.1080 -0.5339
11683TIP3    H256465   0.506   1.143   3.909  1.0505 -1.4816 -1.0069
11684TIP3   OH256466   5.319   1.731  12.066  0.5207 -0.2793  0.4294
11684TIP3    H156467   5.316   1.827  12.069 -3.3056 -0.2486  0.8817
11684TIP3    H256468   5.329   1.710  11.973 -2.7788  0.7390 -0.2792
11685TIP3   OH256469   2.289   3.251   4.973  0.1851 -0.1859  0.3380
11685TIP3    H156470   2.298   3.272   4.880 -2.7118 -1.7833 -0.4252
11685TIP3    H256471   2.302   3.157   4.978 -2.1116 -0.5300  1.0607
11686TIP3   OH256472   2.590   6.270   4.006 -0.0951 -0.6849  0.6314
11686TIP3    H156473   2.623   6.340   3.950 -0.8879 -1.5636 -1.0090
11686TIP3    H256474   2.666   6.217   4.026  0.0389 -1.0213 -0.6475
11687TIP3   OH256475   4.325   2.172   0.423  0.1685  0.5488 -0.2907
11687TIP3    H156476   4.248   2.127   0.457  0.2477  1.0572  0.6017
11687TIP3    H256477   4.291   2.237   0.362 -0.0386  0.1652 -0.5840
11688TIP3   OH256478   2.427   2.666  15.256 -0.5188 -0.2502  0.1588
11688TIP3    H156479   2.392   2.739  15.205 -0.4093 -0.6022 -0.4334
11688TIP3    H256480   2.381   2.589  15.223  0.1481 -0.5957  0.0056
11689TIP3   OH256481   6.069   6.663  10.458 -0.6272  0.1585  0.1689
11689TIP3    H156482   6.096   6.693  10.545  0.6147 -0.3059 -0.0417
11689TIP3    H256483   6.084   6.739  10.401  0.7061 -0.2234 -0.0229
11690TIP3   OH256484   3.494   5.141   6.626  0.5797 -0.4447  0.4408
11690TIP3    H156485   3.588   5.152   6.642  0.8293  0.4880 -1.3765
11690TIP3    H256486   3.465   5.225   6.591 -1.0041 -0.6437  1.1784
11691TIP3   OH256487   1.861   1.979   1.110 -0.3887  0.4060  0.0055
11691TIP3    H156488   1.896   2.044   1.170 -1.4675  0.4479  0.6318
11691TIP3    H256489   1.864   1.897   1.159  0.8450 -0.0169 -0.7330
11692TIP3   OH256490   5.874   6.800  16.290 -0.2160 -0.0911 -0.6213
11692TIP3    H156491   5.810   6.765  16.229 -2.0972 -1.5334  2.0117
11692TIP3    H256492   5.872   6.741  16.365  3.4106  0.4553  0.1240
11693TIP3   OH256493   3.055   2.279   2.189  0.2403  0.1706 -0.4011
11693TIP3    H156494   3.146   2.262   2.167 -0.0433 -0.7209 -0.9255
11693TIP3    H256495   3.055   2.369   2.222  1.5462 -0.3149  1.0409
11694TIP3   OH256496   0.717   2.375  11.147  0.3165 -0.2374 -0.4484
11694TIP3    H156497   0.651   2.390  11.079  0.0724  0.4480 -0.0737
11694TIP3    H256498   0.793   2.425  11.119 -1.1915  3.8168  1.8452
11695TIP3   OH256499   2.963   4.968   4.913 -0.9466 -0.4624 -0.8103
11695TIP3    H156500   2.905   4.937   4.983  0.9410 -0.1641  0.9722
11695TIP3    H256501   2.927   5.053   4.887 -1.2871 -0.2674  0.2797
11696TIP3   OH256502   0.264   2.724   0.999 -0.4384 -0.4718  0.1910
11696TIP3    H156503   0.216   2.773   0.933  0.3745 -0.6414 -0.5454
11696TIP3    H256504   0.254   2.633   0.973  1.2489 -0.4489 -0.6817
11697TIP3   OH256505   3.242   5.113   4.536  0.4400  0.9827  0.0693
11697TIP3    H156506   3.268   5.150   4.620  1.0988  1.7531 -0.4518
11697TIP3    H256507   3.161   5.066   4.554  1.0688  0.3210  1.3225
11698TIP3   OH256508   5.431   1.236  13.242 -0.1154  0.3607 -0.1475
11698TIP3    H156509   5.526   1.226  13.239 -0.0333  1.2266 -0.9308
11698TIP3    H256510   5.411   1.299  13.173 -1.6848 -2.8483 -2.9444
11699TIP3   OH256511   1.942   2.815   5.178  0.4919  0.2577 -0.3604
11699TIP3    H156512   2.030   2.790   5.205  0.6081 -0.4631 -1.3472
11699TIP3    H256513   1.884   2.748   5.215  0.4840  0.1411 -0.5777
11700TIP3   OH256514   3.496   4.712   2.888 -0.2146  0.0122 -0.0347
11700TIP3    H156515   3.526   4.633   2.934 -1.2121 -1.0050 -1.0766
11700TIP3    H256516   3.571   4.771   2.891  0.2905 -0.6430  1.4696
11701TIP3   OH256517   5.225   3.983   1.694 -0.6542  0.7809 -0.2640
11701TIP3    H156518   5.150   4.006   1.639  0.4404  0.4326 -1.9592
11701TIP3    H256519   5.196   3.908   1.745 -1.5780  0.8939 -0.6104
11702TIP3   OH256520   4.833   0.387  11.832 -0.7605  0.1212 -0.1090
11702TIP3    H156521   4.739   0.377  11.843 -0.9642  1.6393 -0.3234
11702TIP3    H256522   4.851   0.358  11.743 -0.5745 -2.7275  0.7372
11703TIP3   OH256523   2.246   4.818  11.818 -0.2979 -0.1884  0.3108
11703TIP3    H156524   2.333   4.780  11.828 -0.7728 -0.8267  2.6076
11703TIP3    H256525   2.262   4.907  11.786  1.0749 -0.7813 -0.7859
11704TIP3   OH256526   5.937   2.943  12.293 -0.0040  0.0416 -0.5839
11704TIP3    H156527   5.875   2.979  12.357  0.0519 -0.2124 -0.3840
11704TIP3    H256528   5.946   2.851  12.319  1.3347  0.3427  0.0905
11705TIP3   OH256529   6.447   1.990  15.086  0.3278 -0.0982 -0.3675
11705TIP3    H156530   6.472   1.976  14.995 -2.9584  0.4108 -1.5067
11705TIP3    H256531   6.432   2.085  15.093  3.4429  0.3788  1.6673
11706TIP3   OH256532   1.852   5.568  12.541 -0.1607  0.6321 -0.5671
11706TIP3    H156533   1.758   5.584  12.549 -0.4298  1.8693 -4.1953
11706TIP3    H256534   1.886   5.577  12.629 -3.1170  2.5124  0.5239
11707TIP3   OH256535   3.133   6.488  14.156 -0.4978  0.0815 -0.1068
11707TIP3    H156536   3.080   6.559  14.190  0.9252  1.0635  0.1548
11707TIP3    H256537   3.159   6.438  14.233  0.4519  0.6871 -0.0207
11708TIP3   OH256538   0.698   1.198   5.950  0.0888  0.4771 -0.9001
11708TIP3    H156539   0.675   1.169   6.038  0.0342  0.5637 -0.8856
11708TIP3    H256540   0.741   1.283   5.962 -0.4784  0.7830 -1.0031
11709TIP3   OH256541   6.810   0.833  16.023  0.2117 -0.1910 -0.2763
11709TIP3    H156542   6.861   0.913  16.016  0.2340  0.0315  1.8315
11709TIP3    H256543   6.792   0.823  16.116 -0.2167 -2.3832 -0.5179
11710TIP3   OH256544   1.482   5.319  16.506  0.0569  0.3120 -0.2337
11710TIP3    H156545   1.537   5.283  16.437  0.9099  1.3578 -0.1212
11710TIP3    H256546   1.441   5.242  16.546 -0.1776 -0.3287 -1.6485
11711TIP3   OH256547   4.831   4.503  11.641 -0.6079 -0.1758 -0.1989
11711TIP3    H156548   4.800   4.455  11.564 -2.1264 -2.1550  1.5136
11711TIP3    H256549   4.908   4.454  11.670 -0.1986  0.3998 -0.3057
11712TIP3   OH256550   4.244   0.273   6.115 -0.2579 -0.3368  0.1256
11712TIP3    H156551   4.228   0.351   6.062 -0.0454 -1.3621 -1.5011
11712TIP3    H256552   4.213   0.298   6.203  0.1626  1.6909 -0.2351
11713TIP3   OH256553   6.622   3.648  16.835 -0.1623 -0.3998 -0.1810
11713TIP3    H156554   6.567   3.581  16.875 -0.7505  0.0240 -0.2608
11713TIP3    H256555   6.573   3.675  16.757 -0.2558  0.6002  0.2172
11714TIP3   OH256556   4.928   6.274   0.612 -0.6231  0.5422  0.1026
11714TIP3    H156557   4.833   6.264   0.616 -0.6966  1.1285 -0.0742
11714TIP3    H256558   4.945   6.361   0.648 -0.2727  0.9943 -1.1099
11715TIP3   OH256559   5.245   4.630  15.727  0.2072  0.2884  0.2796
11715TIP3    H156560   5.306   4.698  15.755 -0.1434  0.2847  1.0799
11715TIP3    H256561   5.299   4.552  15.718  0.7807  0.8443 -1.5140
11716TIP3   OH256562   4.069   4.215   2.856  0.3732 -0.0297 -0.2786
11716TIP3    H156563   4.077   4.209   2.760  0.6808  0.4132 -0.2836
11716TIP3    H256564   4.036   4.129   2.882  0.5541 -0.2512 -0.7548
11717TIP3   OH256565   2.993   3.926  11.246 -0.0065  0.5638 -0.1978
11717TIP3    H156566   2.908   3.970  11.257  0.1739  0.6825  0.8504
11717TIP3    H256567   2.993   3.896  11.155  0.0829  3.2088 -1.1689
11718TIP3   OH256568   5.965   1.099  12.336  0.6943 -0.1286  1.0538
11718TIP3    H156569   6.001   1.039  12.401 -0.6613 -1.7841  0.3655
11718TIP3    H256570   5.950   1.044  12.259  0.1769  1.3013  0.0929
11719TIP3   OH256571   5.737   4.476  12.132  0.1661  0.0984  0.6117
11719TIP3    H156572   5.734   4.566  12.162 -2.0910 -0.2386  1.6090
11719TIP3    H256573   5.684   4.428  12.196 -0.9880 -1.4496 -1.4194
11720TIP3   OH256574   0.893   4.866  15.802  0.4423 -0.3089 -0.0956
11720TIP3    H156575   0.968   4.808  15.789  0.0927 -1.1055  1.2686
11720TIP3    H256576   0.842   4.825  15.872 -0.2206  1.2511  0.3854
11721TIP3   OH256577   2.532   5.432  11.205  0.2612 -0.3578  0.1547
11721TIP3    H156578   2.510   5.375  11.131  0.1803 -1.1847  0.8021
11721TIP3    H256579   2.475   5.403  11.276  1.9281 -1.1467  1.2409
11722TIP3   OH256580   1.297   2.739  14.963 -0.3358 -0.2340  0.5608
11722TIP3    H156581   1.387   2.771  14.968  0.1908 -1.4007 -0.6666
11722TIP3    H256582   1.261   2.753  15.051  0.5205  1.6700  0.6481
11723TIP3   OH256583   1.002   2.474  14.190 -0.4294 -0.0653  0.5373
11723TIP3    H156584   1.076   2.500  14.135  0.2169 -2.7836 -0.0142
11723TIP3    H256585   0.925   2.488  14.135 -0.0135 -0.3159 -0.1149
11724TIP3   OH256586   0.640   2.235   0.066  0.2528  0.4705  0.0918
11724TIP3    H156587   0.610   2.144   0.063  2.1272 -0.1800 -0.4056
11724TIP3    H256588   0.653   2.254   0.159  0.8880 -0.1570  0.1383
11725TIP3   OH256589   4.112   0.642   4.488  0.3895 -0.0460  0.1533
11725TIP3    H156590   4.199   0.661   4.522 -0.2559 -0.1851  1.9961
11725TIP3    H256591   4.055   0.703   4.535 -0.6316 -0.6510 -0.2703
11726TIP3   OH256592   6.469   2.438  15.014 -0.5722 -0.2514  0.0107
11726TIP3    H156593   6.392   2.390  15.043  0.6378 -1.4909  1.3026
11726TIP3    H256594   6.536   2.371  15.002  0.1713  0.7280 -1.6524
11727TIP3   OH256595   5.416   0.793   5.219 -0.6493  0.3026 -0.0203
11727TIP3    H156596   5.429   0.780   5.125  2.1171  1.0919  0.1603
11727TIP3    H256597   5.372   0.877   5.225 -1.4302 -0.0489 -0.6174
11728TIP3   OH256598   2.720   6.149   5.068  0.5924 -0.7076  0.4258
11728TIP3    H156599   2.676   6.085   5.123  0.2103 -0.4498  0.4220
11728TIP3    H256600   2.692   6.128   4.979 -0.7002  0.3599  0.5533
11729TIP3   OH256601   2.789   2.048   0.478  0.0256  0.7076  1.0019
11729TIP3    H156602   2.861   2.010   0.428 -0.6526 -0.2595  0.7153
11729TIP3    H256603   2.752   2.115   0.420  0.0676  0.4972  0.7256
11730TIP3   OH256604   3.614   4.540  11.182 -0.0561 -0.0289 -0.0573
11730TIP3    H156605   3.520   4.534  11.198  0.0442 -0.9935  0.2510
11730TIP3    H256606   3.633   4.465  11.125  0.4994  0.2629 -0.2666
11731TIP3   OH256607   3.486   3.836   5.290  0.0247  0.4614 -0.1131
11731TIP3    H156608   3.560   3.887   5.322 -0.6881  0.4822  1.6559
11731TIP3    H256609   3.517   3.745   5.290 -0.4542  0.1941  2.5745
11732TIP3   OH256610   1.751   3.186   1.116  0.4925  0.0259 -0.1136
11732TIP3    H156611   1.739   3.093   1.137  0.1549  0.0024 -0.3940
11732TIP3    H256612   1.787   3.186   1.027  0.1017  0.1725 -0.2740
11733TIP3   OH256613   2.367   2.902   1.378  0.7556 -0.1757  0.4271
11733TIP3    H156614   2.447   2.954   1.371  0.4540  0.1174 -1.0998
11733TIP3    H256615   2.307   2.957   1.430  0.9473  0.3565  0.0897
11734TIP3   OH256616   4.391   6.051   0.982  0.4509 -0.1592 -0.4327
11734TIP3    H156617   4.388   6.004   1.065  2.6389 -0.7696 -0.6345
11734TIP3    H256618   4.356   5.989   0.918  2.8011 -1.4211 -0.6092
11735TIP3   OH256619   6.176   0.766  15.849  0.1259 -0.1014 -0.2821
11735TIP3    H156620   6.107   0.832  15.860  0.6048  0.2688  0.5395
11735TIP3    H256621   6.158   0.701  15.917 -0.7516 -1.2063 -1.5156
11736TIP3   OH256622   6.298   0.956   2.840 -0.0281  0.3376 -0.5278
11736TIP3    H156623   6.204   0.957   2.855 -0.2658 -2.3908 -1.3698
11736TIP3    H256624   6.336   0.991   2.921 -1.6819 -1.0426  0.9235
11737TIP3   OH256625   3.174   2.388   5.266  0.2536 -0.4491  0.2544
11737TIP3    H156626   3.081   2.393   5.244  0.5501  0.9863 -0.8669
11737TIP3    H256627   3.217   2.367   5.182  1.1407  1.6728  0.1076
11738TIP3   OH256628   1.350   0.656   4.823  0.5945  0.0072  0.4104
11738TIP3    H156629   1.335   0.571   4.865  0.4937 -0.5575 -0.7206
11738TIP3    H256630   1.440   0.651   4.790 -0.0519 -0.5053 -1.4432
11739TIP3   OH256631   4.406   0.107  16.457 -0.2568 -0.7117  0.5075
11739TIP3    H156632   4.410   0.199  16.483 -2.1805 -0.0545 -1.2442
11739TIP3    H256633   4.474   0.064  16.510  0.8821  1.7292  1.1805
11740TIP3   OH256634   2.616   6.293  14.762 -0.5525  0.1588 -0.0640
11740TIP3    H156635   2.643   6.283  14.853 -0.6101 -1.0591 -0.1650
11740TIP3    H256636   2.533   6.341  14.766  0.1997  1.4851  0.4060
11741TIP3   OH256637   6.221   4.648  15.130  0.0124 -0.7083 -0.0652
11741TIP3    H156638   6.287   4.590  15.091 -0.5943 -0.5815 -1.3287
11741TIP3    H256639   6.138   4.601  15.119 -0.2686 -0.3330  0.4188
11742TIP3   OH256640   3.915   4.510  14.762 -0.2355 -0.0857 -0.5506
11742TIP3    H156641   3.850   4.556  14.709  0.5812 -0.1470 -1.6324
11742TIP3    H256642   3.880   4.422  14.774 -0.8662  0.2114 -0.1726
11743TIP3   OH256643   6.727   5.172  14.543 -0.1086  1.1438 -0.1560
11743TIP3    H156644   6.797   5.146  14.484 -0.7713 -0.4885 -0.2759
11743TIP3    H256645   6.650   5.125  14.511 -0.4663  0.0497  2.0843
11744TIP3   OH256646   5.482   3.208   4.502 -0.3761 -0.0344  0.2793
11744TIP3    H156647   5.436   3.249   4.429 -0.5415 -1.1336 -0.2669
11744TIP3    H256648   5.539   3.277   4.537 -0.3715  0.5443 -0.8289
11745TIP3   OH256649   0.109   5.589  14.261  0.3151 -0.3585  0.3247
11745TIP3    H156650   0.147   5.518  14.313 -0.6440 -0.6820  0.5982
11745TIP3    H256651   0.184   5.643  14.236  1.0049 -1.2040  0.5081
11746TIP3   OH256652   1.511   3.664   4.151  0.2005 -0.1974 -0.5871
11746TIP3    H156653   1.581   3.712   4.196 -0.0459 -0.6119  0.2753
11746TIP3    H256654   1.456   3.732   4.113  0.2826  0.1825 -0.0416
11747TIP3   OH256655   6.177   1.248   4.691 -0.1538 -0.0685 -0.4896
11747TIP3    H156656   6.272   1.250   4.681 -0.0681  2.0471  0.2602
11747TIP3    H256657   6.160   1.287   4.777 -1.7139 -0.0983 -0.7416
11748TIP3   OH256658   1.421   1.001   3.442  0.4217 -0.2745  0.0252
11748TIP3    H156659   1.419   1.054   3.522  1.0761  0.9727 -0.7536
11748TIP3    H256660   1.506   0.958   3.444 -0.6678 -2.5497  1.3887
11749TIP3   OH256661   0.574   4.945   0.168 -0.1343  0.7009  0.0933
11749TIP3    H156662   0.546   5.000   0.095 -2.8342 -0.1340  0.3922
11749TIP3    H256663   0.498   4.942   0.227  1.4607  0.1868  2.2402
11750TIP3   OH256664   0.361   2.575   5.644 -0.1072  0.4081 -0.0638
11750TIP3    H156665   0.338   2.666   5.629  0.2824  0.7094  1.0726
11750TIP3    H256666   0.455   2.575   5.656  0.1382 -0.3878 -1.5944
11751TIP3   OH256667   3.179   1.003   2.349 -0.4269 -0.1518  0.1847
11751TIP3    H156668   3.159   1.010   2.442 -0.5222 -0.7583  0.2133
11751TIP3    H256669   3.180   1.094   2.318 -2.9332 -0.0378  0.2436
11752TIP3   OH256670   0.456   2.779   1.183  0.3477 -0.1286 -0.0007
11752TIP3    H156671   0.385   2.745   1.128 -0.6146 -2.4584  2.4530
11752TIP3    H256672   0.530   2.787   1.124 -0.7095 -2.1564 -1.7462
11753TIP3   OH256673   2.955   0.725   3.925 -0.1600  0.2559 -0.3010
11753TIP3    H156674   2.969   0.808   3.880 -0.4611  0.4435 -0.0526
11753TIP3    H256675   2.860   0.719   3.936 -0.0839  0.2706  0.4168
11754TIP3   OH256676   5.649   3.769  13.210 -0.6212  0.1209  0.2439
11754TIP3    H156677   5.584   3.801  13.148 -1.5171 -1.0340  0.5508
11754TIP3    H256678   5.732   3.777  13.163 -0.7647  2.6856  0.2501
11755TIP3   OH256679   2.290   4.787   3.052 -0.2675  0.5084 -0.6569
11755TIP3    H156680   2.273   4.693   3.050 -0.8088  0.5361  1.2281
11755TIP3    H256681   2.209   4.825   3.084  0.8408  1.3290  1.3522
11756TIP3   OH256682   0.313   4.982  12.841  0.2025 -0.6561 -0.6102
11756TIP3    H156683   0.352   4.962  12.926 -1.1242 -2.1950 -0.3120
11756TIP3    H256684   0.251   5.052  12.860  1.3063  0.3779 -0.7101
11757TIP3   OH256685   5.197   0.447  13.446  0.1027 -0.4667 -0.6908
11757TIP3    H156686   5.277   0.473  13.400  0.9929 -2.2048 -0.2161
11757TIP3    H256687   5.198   0.351  13.445 -0.3414 -0.5946  2.0223
11758TIP3   OH256688   4.289   0.527   1.150 -0.2141  0.0407  0.2819
11758TIP3    H156689   4.243   0.447   1.175  1.3885 -0.5719  1.4374
11758TIP3    H256690   4.325   0.507   1.063 -1.6344  0.3512 -0.4122
11759TIP3   OH256691   3.798   3.811  11.482 -0.0708 -0.1493 -0.0170
11759TIP3    H156692   3.861   3.837  11.550 -0.1255 -2.0968  0.8631
11759TIP3    H256693   3.730   3.878  11.485 -0.0658 -0.1797  1.8843
11760TIP3   OH256694   6.717   3.826  11.282 -0.1490  0.3745  0.0988
11760TIP3    H156695   6.792   3.768  11.297  1.9376  3.1553  1.2259
11760TIP3    H256696   6.707   3.828  11.187 -0.6369 -2.0973  0.0111
11761TIP3   OH256697   5.328   4.040  16.617  0.1901 -0.3059 -0.4024
11761TIP3    H156698   5.327   4.069  16.526 -0.2436  0.1018 -0.2736
11761TIP3    H256699   5.394   4.095  16.659 -0.5548  0.4473 -0.1829
11762TIP3   OH256700   1.191   3.203  12.815 -0.4210 -0.1447  0.2941
11762TIP3    H156701   1.102   3.222  12.844 -0.0748 -0.3617  1.5471
11762TIP3    H256702   1.246   3.223  12.890  0.6235  0.1869 -0.5274
11763TIP3   OH256703   3.590   4.489  16.968  0.0621 -0.1182  0.1062
11763TIP3    H156704   3.635   4.505  16.886 -0.7911  2.6029  0.0515
11763TIP3    H256705   3.655   4.507  17.036 -0.4605  2.5808  0.0081
11764TIP3   OH256706   6.771   6.778  16.320  0.2327  0.3977  0.5757
11764TIP3    H156707   6.704   6.711  16.303 -0.5080  1.3987 -0.6511
11764TIP3    H256708   6.773   6.787  16.415 -1.3345  0.2977  0.6366
11765TIP3   OH256709   1.741   1.783   3.529  0.2403 -1.0875  0.0783
11765TIP3    H156710   1.682   1.762   3.602  0.2442  1.3172  0.8667
11765TIP3    H256711   1.822   1.811   3.571 -0.2929  1.9447 -0.6393
11766TIP3   OH256712   6.273   5.677   3.904 -0.2108  0.3159 -0.3884
11766TIP3    H156713   6.364   5.701   3.923 -0.0654 -0.5693  0.0889
11766TIP3    H256714   6.227   5.761   3.898  0.7150  0.8086 -1.1009
11767TIP3   OH256715   3.218   2.170   2.638 -0.3005 -0.2648 -0.2642
11767TIP3    H156716   3.229   2.161   2.732  1.3570  0.2151 -0.3628
11767TIP3    H256717   3.125   2.153   2.622 -0.3648 -1.6033  1.2792
11768TIP3   OH256718   6.324   5.894  13.977 -0.0260 -0.2630  0.3512
11768TIP3    H156719   6.407   5.850  13.958  0.7253  0.9293  0.7586
11768TIP3    H256720   6.319   5.965  13.913 -0.3660  0.1222  0.7945
11769TIP3   OH256721   2.456   0.856  16.380 -0.0103  0.1592 -0.1993
11769TIP3    H156722   2.406   0.904  16.446 -1.5559 -0.6045 -0.7909
11769TIP3    H256723   2.524   0.811  16.430 -0.4126  0.5566  0.7248
11770TIP3   OH256724   5.113   5.086   6.588 -0.3391 -0.4326 -0.1079
11770TIP3    H156725   5.068   5.009   6.554 -0.4363 -0.2554 -0.3789
11770TIP3    H256726   5.161   5.121   6.514 -2.8012  1.6210 -0.9004
11771TIP3   OH256727   0.338   3.867   0.271 -0.1839 -0.3084 -0.7978
11771TIP3    H156728   0.433   3.855   0.265 -0.1901  0.3332 -2.9252
11771TIP3    H256729   0.304   3.778   0.279  0.6128 -0.4926  0.8680
11772TIP3   OH256730   2.524   2.747  13.352  0.1179 -0.4107 -0.2644
11772TIP3    H156731   2.568   2.668  13.382 -0.4332 -0.6434 -0.0593
11772TIP3    H256732   2.506   2.796  13.432 -0.3551 -0.5054 -0.3132
11773TIP3   OH256733   0.259   5.806  11.519 -0.2918 -0.6728 -0.4066
11773TIP3    H156734   0.258   5.838  11.429 -0.7968 -1.5995 -0.7447
11773TIP3    H256735   0.170   5.775  11.534 -0.1174 -0.8500  0.2982
11774TIP3   OH256736   6.457   3.174  12.677  0.1734 -0.2208  0.3058
11774TIP3    H156737   6.450   3.245  12.614 -1.2741 -1.0288 -0.4820
11774TIP3    H256738   6.389   3.112  12.652 -0.1575 -0.7744  2.3988
11775TIP3   OH256739   2.515   3.990   4.339 -0.3826 -0.7533  0.1988
11775TIP3    H156740   2.579   3.941   4.391 -1.1131 -1.1912  0.7129
11775TIP3    H256741   2.520   4.080   4.373  1.4764 -0.2632 -1.2371
11776TIP3   OH256742   6.175   1.931  13.717  0.2434 -0.1817 -0.0288
11776TIP3    H156743   6.231   1.853  13.724  0.9860  0.3046 -0.3889
11776TIP3    H256744   6.136   1.940  13.804 -1.6124 -2.2240 -0.5693
11777TIP3   OH256745   3.872   0.279   2.272 -0.0704 -0.0289 -0.4114
11777TIP3    H156746   3.873   0.213   2.203 -0.2375 -0.8925  0.3923
11777TIP3    H256747   3.952   0.330   2.258  0.2743 -0.6667 -0.7912
11778TIP3   OH256748   2.051   4.007  12.907  0.1763  0.2121  0.2609
11778TIP3    H156749   2.017   3.924  12.939  0.2903  0.6042  1.4330
11778TIP3    H256750   2.003   4.023  12.825  2.0824 -2.3303 -1.5128
11779TIP3   OH256751   4.868   1.309  17.085  0.3825 -0.2441 -0.9293
11779TIP3    H156752   4.854   1.385  17.142 -0.9147  0.9877 -2.7940
11779TIP3    H256753   4.959   1.283  17.101  0.1469  0.2132  1.4502
11780TIP3   OH256754   3.345   3.480  15.772 -0.2150  0.1075 -0.0518
11780TIP3    H156755   3.270   3.502  15.827 -1.0296 -0.8715 -0.7136
11780TIP3    H256756   3.354   3.385  15.782  0.1233  0.0350 -0.9731
11781TIP3   OH256757   3.321   6.203  14.270  0.4934  0.5382  0.3551
11781TIP3    H156758   3.320   6.268  14.199  1.9745  1.2123  0.9041
11781TIP3    H256759   3.393   6.144  14.247  0.0962 -0.0487  0.6075
11782TIP3   OH256760   3.653   5.205   4.262 -0.7023  0.3130  0.2597
11782TIP3    H156761   3.725   5.163   4.309 -1.0959 -0.7154 -0.0201
11782TIP3    H256762   3.668   5.299   4.273  1.0818  0.1410 -0.3894
11783TIP3   OH256763   5.230   6.707   6.316  0.0871 -0.3105 -0.2759
11783TIP3    H156764   5.266   6.789   6.283  1.2181  0.3164  2.2961
11783TIP3    H256765   5.157   6.733   6.372 -0.4000 -1.1733 -0.4869
11784TIP3   OH256766   5.951   0.250  11.000 -0.4832 -0.1327 -0.8801
11784TIP3    H156767   5.976   0.224  11.089  0.6585  0.5036 -1.0036
11784TIP3    H256768   6.017   0.314  10.974 -1.3755  0.4392 -1.8204
11785TIP3   OH256769   3.360   5.007   2.242  0.1193  0.2674 -0.2448
11785TIP3    H156770   3.270   5.037   2.250 -0.0059 -0.5984  3.2669
11785TIP3    H256771   3.413   5.087   2.251 -0.2454  0.7428 -2.0692
11786TIP3   OH256772   0.082   5.402   4.169  0.0346  0.4885 -0.1430
11786TIP3    H156773   0.034   5.337   4.219 -1.3305  2.2209  0.9224
11786TIP3    H256774   0.028   5.418   4.091  1.1604 -0.7571 -1.2204
11787TIP3   OH256775   4.657   3.717  15.370 -0.2186  0.2613  0.0471
11787TIP3    H156776   4.686   3.697  15.459 -1.1065  0.2095  0.3394
11787TIP3    H256777   4.625   3.634  15.336  1.7169 -0.1255 -0.9840
11788TIP3   OH256778   2.183   4.838   0.577 -0.3456 -0.1435  0.1791
11788TIP3    H156779   2.101   4.837   0.528 -0.3114  1.0105  0.0689
11788TIP3    H256780   2.250   4.820   0.511 -0.4889 -0.8656  0.2284
11789TIP3   OH256781   1.663   3.460  13.248  0.5864  0.1501  0.3132
11789TIP3    H156782   1.616   3.541  13.228  2.1283  0.7572 -1.1028
11789TIP3    H256783   1.698   3.431  13.164  1.6558 -0.9477  1.1010
11790TIP3   OH256784   1.068   4.970   4.036 -0.1346 -0.3324  0.1108
11790TIP3    H156785   1.139   4.911   4.060 -0.9895 -1.8624 -0.9205
11790TIP3    H256786   1.103   5.022   3.964  0.0456 -0.8824 -0.2069
11791TIP3   OH256787   5.983   4.912   6.328  0.5339  0.0728 -0.4184
11791TIP3    H156788   5.897   4.883   6.299  0.4189  0.3516 -0.3575
11791TIP3    H256789   6.003   4.857   6.404 -0.0920  0.7649  0.2702
11792TIP3   OH256790   0.236   5.631   1.578 -0.1068 -0.2795 -0.6943
11792TIP3    H156791   0.219   5.554   1.633 -1.0583  0.2230 -0.2528
11792TIP3    H256792   0.309   5.676   1.620 -0.1031 -0.4967 -0.4682
11793TIP3   OH256793   2.043   6.755  12.918 -0.2071  0.1208  0.2990
11793TIP3    H156794   2.071   6.791  13.002  0.1508  0.3326  0.0921
11793TIP3    H256795   2.030   6.832  12.862 -0.4651 -0.0180  0.1642
11794TIP3   OH256796   1.115   5.329   4.308  0.0222 -0.4383  0.4869
11794TIP3    H156797   1.070   5.412   4.292 -0.5474 -0.8373 -0.0247
11794TIP3    H256798   1.048   5.271   4.343  0.7829 -0.2198  2.4629
11795TIP3   OH256799   0.308   4.494  15.644 -0.4835 -0.7029  0.8243
11795TIP3    H156800   0.257   4.508  15.724 -0.0621 -0.3486  1.0375
11795TIP3    H256801   0.249   4.445  15.586 -0.7816 -0.9965  1.3631
11796TIP3   OH256802   0.378   3.357  16.659  0.3557 -0.3724 -0.2245
11796TIP3    H156803   0.297   3.312  16.682  1.6612 -2.0826  1.2723
11796TIP3    H256804   0.357   3.450  16.668 -1.8060 -0.6980 -1.3018
11797TIP3   OH256805   6.708   0.001  11.610  0.1623 -0.4137  0.1257
11797TIP3    H156806   6.734   0.079  11.660  0.6350 -1.0748  0.9478
11797TIP3    H256807   6.755  -0.071  11.653  1.3743 -0.9014 -1.8869
11798TIP3   OH256808   1.500   5.699  15.012 -0.0930  0.1975 -0.3362
11798TIP3    H156809   1.507   5.746  15.095 -1.2064 -0.5451  0.2055
11798TIP3    H256810   1.583   5.651  15.004 -1.3450 -2.8063  2.3331
11799TIP3   OH256811   5.625   4.970   6.423  0.1606 -0.0225  0.5938
11799TIP3    H156812   5.642   4.919   6.502  0.4347  0.8846  1.1360
11799TIP3    H256813   5.572   5.044   6.453  0.5136  0.4902 -0.0191
11800TIP3   OH256814   5.383   3.708   4.608 -0.4322  0.2315 -0.0186
11800TIP3    H156815   5.473   3.679   4.625 -0.6284 -2.8188 -2.9346
11800TIP3    H256816   5.334   3.682   4.686  0.4460 -2.9506 -0.3674
11801TIP3   OH256817   3.136   0.878   3.750  0.3881 -0.2707  0.3474
11801TIP3    H156818   3.047   0.901   3.724  0.4868  1.0258  1.1000
11801TIP3    H256819   3.183   0.868   3.667 -0.0603  0.6542 -0.0340
11802TIP3   OH256820   3.171   0.914  14.689  0.4643 -0.1374  0.6712
11802TIP3    H156821   3.157   1.002  14.653  2.4440  0.0901  0.3192
11802TIP3    H256822   3.241   0.926  14.754  0.9870 -1.4962  0.3908
11803TIP3   OH256823   6.781   6.394   4.816 -0.1724 -0.2006 -0.4118
11803TIP3    H156824   6.844   6.421   4.883 -0.3916  0.7208 -0.5550
11803TIP3    H256825   6.711   6.351   4.865  0.8183 -1.7460 -0.3084
11804TIP3   OH256826   4.052   4.908  13.703  0.0573  0.5080  0.3167
11804TIP3    H156827   4.089   4.822  13.685 -2.7799 -1.1147  1.5580
11804TIP3    H256828   4.054   4.916  13.798 -2.8127  0.1884  0.4992
11805TIP3   OH256829   4.806   3.828  13.063 -0.0627  0.5457 -0.0816
11805TIP3    H156830   4.734   3.772  13.032 -0.3110  1.1621 -0.6225
11805TIP3    H256831   4.763   3.907  13.095  0.1486 -0.1485  2.1104
11806TIP3   OH256832   0.228   2.446  14.427  0.2297 -0.0569  0.0297
11806TIP3    H156833   0.254   2.375  14.486  2.0948  0.0232 -0.6415
11806TIP3    H256834   0.195   2.514  14.485 -0.1337 -0.8534  0.7946
11807TIP3   OH256835   4.323   5.540  11.540  0.0781 -0.2619 -0.1323
11807TIP3    H156836   4.307   5.621  11.589 -2.8432 -0.5878 -0.3464
11807TIP3    H256837   4.376   5.487  11.599 -0.8908  0.4816  1.4958
11808TIP3   OH256838   1.438   0.930  15.283 -0.0814  0.4193 -0.5175
11808TIP3    H156839   1.415   0.838  15.267 -0.6804  0.7760 -1.8413
11808TIP3    H256840   1.520   0.943  15.235  0.6705  0.2716  0.6894
11809TIP3   OH256841   3.400   1.448   5.472  0.1356 -0.1158  0.2787
11809TIP3    H156842   3.356   1.363   5.476 -2.0144  0.9020 -0.4587
11809TIP3    H256843   3.480   1.431   5.422  0.5285 -1.9869  1.4559
11810TIP3   OH256844   5.349   4.389   3.201  0.0509  0.0785 -0.2193
11810TIP3    H156845   5.408   4.433   3.262 -0.9796 -0.9584  1.6005
11810TIP3    H256846   5.292   4.459   3.169  1.1015  0.7750 -0.6414
11811TIP3   OH256847   1.558   0.701  16.944  0.2875  0.0085  0.0444
11811TIP3    H156848   1.554   0.780  16.890 -0.4840  0.6239  0.9758
11811TIP3    H256849   1.493   0.715  17.013  2.5990  0.1584  2.3556
11812TIP3   OH256850   3.241   4.756   2.779  0.1698 -0.1575  0.2738
11812TIP3    H156851   3.333   4.754   2.805  0.2329 -0.6207  0.0139
11812TIP3    H256852   3.230   4.680   2.722 -0.2881  0.1005  0.0149
11813TIP3   OH256853   4.412   4.772  16.124 -0.2842  0.1925 -0.2396
11813TIP3    H156854   4.465   4.851  16.108 -1.3530  0.8571 -0.6098
11813TIP3    H256855   4.468   4.700  16.094  1.0983  0.6909  1.0040
11814TIP3   OH256856   2.516   4.243   3.201 -0.5969  0.1395  0.3595
11814TIP3    H156857   2.583   4.264   3.136 -0.7383  2.2009  0.8197
11814TIP3    H256858   2.479   4.160   3.171 -0.5687  0.9523 -2.1491
11815TIP3   OH256859   4.992   0.742   2.598 -0.1422 -0.1672 -0.2803
11815TIP3    H156860   5.072   0.697   2.623 -0.8993 -2.0276 -1.0274
11815TIP3    H256861   4.988   0.735   2.503 -0.3651  1.4108 -0.4227
11816TIP3   OH256862   4.332   1.321  12.269 -0.4304  0.2949  0.0798
11816TIP3    H156863   4.399   1.346  12.205  0.5255  0.2317  1.0247
11816TIP3    H256864   4.356   1.232  12.294 -0.5555  0.4602  0.8072
11817TIP3   OH256865   1.675   1.794  14.431 -0.1895  0.2805 -0.7576
11817TIP3    H156866   1.763   1.767  14.407  0.8573  0.9314  2.0217
11817TIP3    H256867   1.640   1.720  14.481 -0.8818  0.4114 -1.0289
11818TIP3   OH256868   5.265   2.541   0.268  0.2765  0.7359  0.6920
11818TIP3    H156869   5.290   2.469   0.326 -0.6416  0.6474  0.9833
11818TIP3    H256870   5.308   2.520   0.185 -0.0342 -0.1856  0.7537
11819TIP3   OH256871   0.474   5.023   5.661  0.0003  0.5688  0.1213
11819TIP3    H156872   0.454   5.111   5.693 -1.7363  0.6300 -1.0165
11819TIP3    H256873   0.495   4.973   5.740 -1.2960  1.4258  1.0489
11820TIP3   OH256874   3.579   6.358   1.311 -0.1293  0.0159  0.1603
11820TIP3    H156875   3.562   6.328   1.400  2.1689  2.6351  1.6143
11820TIP3    H256876   3.642   6.294   1.276 -0.1807 -0.4035  0.8198
11821TIP3   OH256877   5.186   4.195  15.999 -0.2145  0.7210  0.3636
11821TIP3    H156878   5.104   4.146  16.007 -0.1101  0.8096  2.9892
11821TIP3    H256879   5.160   4.284  15.975 -0.7375  0.3764 -0.3701
11822TIP3   OH256880   6.776   0.026   1.085  0.3373  0.5078  0.0555
11822TIP3    H156881   6.833   0.022   1.007  0.4302  1.4273  0.0649
11822TIP3    H256882   6.818  -0.032   1.148  1.0291  0.8377 -0.0936
11823TIP3   OH256883   2.638   3.424  10.276 -0.4143 -1.3273 -0.2381
11823TIP3    H156884   2.723   3.449  10.311  0.9266 -2.8648 -2.1864
11823TIP3    H256885   2.607   3.354  10.334  0.4856 -1.9384 -0.4753
11824TIP3   OH256886   0.653   4.337   1.806  0.0456 -0.1484  0.6908
11824TIP3    H156887   0.736   4.320   1.852  0.1516 -0.9238  0.2311
11824TIP3    H256888   0.590   4.278   1.847 -0.5478  1.1151  1.7016
11825TIP3   OH256889   0.398   5.894  12.033 -0.0320  0.6296 -0.2769
11825TIP3    H156890   0.348   5.831  11.982  0.1175 -0.2276  0.6263
11825TIP3    H256891   0.333   5.953  12.070 -0.3596 -0.2637  0.5976
11826TIP3   OH256892   3.887   4.437   2.637  0.5013 -0.0658  0.3909
11826TIP3    H156893   3.887   4.451   2.542  1.5663  0.3641  0.4324
11826TIP3    H256894   3.871   4.524   2.674 -0.4426 -0.3225  0.6111
11827TIP3   OH256895   6.517   2.080   5.939  0.4266  0.3457 -0.4742
11827TIP3    H156896   6.611   2.074   5.958  0.2256  1.8704  1.2350
11827TIP3    H256897   6.511   2.144   5.869  0.7210 -0.7087 -1.4982
11828TIP3   OH256898   4.047   0.162  15.484  0.2792  0.6995 -0.4768
11828TIP3    H156899   4.071   0.073  15.458  1.1013  0.9201 -0.5269
11828TIP3    H256900   4.047   0.160  15.580 -0.0185  0.5663 -0.4800
11829TIP3   OH256901   6.374   5.289   1.402  0.2748  0.1128 -0.8859
11829TIP3    H156902   6.306   5.354   1.384 -0.7249 -0.3949  0.8541
11829TIP3    H256903   6.403   5.307   1.491 -0.6879 -2.3100  0.0112
11830TIP3   OH256904   1.724   1.347  13.794 -0.1325 -0.3480  0.0173
11830TIP3    H156905   1.728   1.294  13.715 -2.8846 -2.3852  1.0628
11830TIP3    H256906   1.662   1.417  13.773  0.4513  0.1158 -0.1561
11831TIP3   OH256907   0.642   3.505   5.677  0.4551 -0.1488 -0.5488
11831TIP3    H156908   0.637   3.597   5.702  3.6668 -0.0855  0.2658
11831TIP3    H256909   0.589   3.499   5.597 -1.4773  1.9064  0.4744
11832TIP3   OH256910   0.553   1.671  13.801 -0.3210  0.6398  0.5169
11832TIP3    H156911   0.547   1.740  13.735  3.2748  2.0701  1.4391
11832TIP3    H256912   0.585   1.716  13.880  2.3437 -2.0203  1.1350
11833TIP3   OH256913   5.502   6.643  11.251  0.8772  0.2735  0.0146
11833TIP3    H156914   5.432   6.677  11.196  2.1098 -0.6632 -2.2722
11833TIP3    H256915   5.563   6.716  11.261 -0.9956  1.5782  3.2867
11834TIP3   OH256916   2.139   4.882   1.717  0.9415  0.2757 -0.0287
11834TIP3    H156917   2.136   4.791   1.688 -2.0330  0.7350 -1.6344
11834TIP3    H256918   2.157   4.877   1.811 -1.3296 -2.1693  0.3984
11835TIP3   OH256919   3.648   2.070   1.237  0.4970  0.2783  0.6872
11835TIP3    H156920   3.658   2.147   1.182 -1.0973 -0.7117 -1.1267
11835TIP3    H256921   3.553   2.063   1.252  0.5462 -1.6249  0.3177
11836TIP3   OH256922   1.057   4.382   2.435  0.1329 -0.4080  0.0393
11836TIP3    H156923   1.052   4.338   2.350  0.2751 -0.0452 -0.1583
11836TIP3    H256924   1.145   4.363   2.467  0.2093 -0.2304 -0.0659
11837TIP3   OH256925   2.564   4.988   1.226 -0.1563  0.2804  0.0699
11837TIP3    H156926   2.475   5.008   1.197 -0.0205 -1.2029 -1.4882
11837TIP3    H256927   2.585   4.904   1.185  0.7265 -1.1385  3.0794
11838TIP3   OH256928   2.165   1.758  15.031 -0.2821  0.0974  0.2743
11838TIP3    H156929   2.091   1.698  15.047  0.0610 -0.3108  0.3366
11838TIP3    H256930   2.163   1.817  15.106 -0.5643  0.1032  0.2649
11839TIP3   OH256931   0.784   6.577  16.088  0.4685 -0.1819  0.9520
11839TIP3    H156932   0.810   6.514  16.155 -1.3587 -1.2572  0.7073
11839TIP3    H256933   0.690   6.587  16.099  0.1884  0.0096 -1.1396
11840TIP3   OH256934   6.274   3.403  10.432  0.3746 -0.0625 -0.3738
11840TIP3    H156935   6.363   3.429  10.411 -0.2226  0.7070 -2.1024
11840TIP3    H256936   6.282   3.312  10.461  1.5506 -0.5347 -2.0535
11841TIP3   OH256937   0.544   0.518   2.428 -0.0451 -0.3674  0.3996
11841TIP3    H156938   0.537   0.569   2.348  1.0362  0.4681  0.8178
11841TIP3    H256939   0.460   0.531   2.473  0.2440  1.1526  0.5511
11842TIP3   OH256940   5.288   0.999  10.733  0.0732  0.4927 -0.0261
11842TIP3    H156941   5.309   0.943  10.658 -2.1285 -0.3112 -0.1184
11842TIP3    H256942   5.338   1.079  10.718 -0.7656  0.6022 -2.7199
11843TIP3   OH256943   4.611   5.871   3.090  0.6799  0.0512  0.7032
11843TIP3    H156944   4.585   5.788   3.051  0.0596  1.0083 -0.9911
11843TIP3    H256945   4.700   5.855   3.123  1.5595 -0.6254 -1.7786
11844TIP3   OH256946   4.023   4.823   0.446 -0.4063  0.6925  0.2157
11844TIP3    H156947   4.010   4.914   0.472  0.9522  1.2244 -0.8163
11844TIP3    H256948   4.046   4.778   0.527 -0.8786  1.3078  0.6986
11845TIP3   OH256949   2.884   3.525   0.807  0.4350 -0.0969  0.2324
11845TIP3    H156950   2.886   3.500   0.715 -0.8157  0.2564  0.0938
11845TIP3    H256951   2.976   3.523   0.834  0.6643 -1.8947 -0.5490
11846TIP3   OH256952   2.713   6.095  11.272  0.0526  0.8302  0.2553
11846TIP3    H156953   2.779   6.029  11.292  1.3708  1.1998 -2.4728
11846TIP3    H256954   2.673   6.065  11.190 -0.6042  2.4679 -0.0638
11847TIP3   OH256955   5.862   1.413   3.498 -0.2531 -0.5799 -0.3233
11847TIP3    H156956   5.956   1.396   3.494 -0.3214 -0.8989 -0.5744
11847TIP3    H256957   5.831   1.360   3.571 -0.4326 -1.3863 -0.9791
11848TIP3   OH256958   2.261   3.909   4.863  0.2224 -0.0230 -0.9171
11848TIP3    H156959   2.318   3.898   4.787  0.5362 -1.7458 -0.4902
11848TIP3    H256960   2.179   3.942   4.827  0.7449  0.3000 -1.8458
11849TIP3   OH256961   2.053   3.108  12.781 -0.0843  0.1699  0.2329
11849TIP3    H156962   2.069   3.019  12.751  0.2334 -0.1289  1.2468
11849TIP3    H256963   1.979   3.139  12.728  0.1153 -0.5135 -0.4623
11850TIP3   OH256964   4.169   5.743  13.100  0.2312  0.2596  0.7937
11850TIP3    H156965   4.240   5.725  13.161  0.4149  2.3022  1.2525
11850TIP3    H256966   4.206   5.726  13.014  0.3967 -1.3038  1.1376
11851TIP3   OH256967   4.978   0.323   0.613 -0.5774 -0.0655  0.1205
11851TIP3    H156968   4.979   0.288   0.524 -1.2498 -0.2711  0.1879
11851TIP3    H256969   4.972   0.417   0.603 -3.5142 -0.1966 -0.0749
11852TIP3   OH256970   2.838   6.223   2.659 -0.4996 -0.3092 -0.1318
11852TIP3    H156971   2.932   6.222   2.677 -0.7811 -0.4208  1.4785
11852TIP3    H256972   2.827   6.166   2.583  1.0078  1.7858 -2.0326
11853TIP3   OH256973   1.689   2.010  13.117  0.3914  0.5573 -0.4452
11853TIP3    H156974   1.634   2.031  13.192 -0.3841  2.2250 -1.3993
11853TIP3    H256975   1.629   1.970  13.054  0.7816  0.2242 -0.6085
11854TIP3   OH256976   1.383   5.954   6.556 -0.1623  0.1755  0.1791
11854TIP3    H156977   1.345   6.030   6.511  1.6372  2.0669  1.6577
11854TIP3    H256978   1.310   5.892   6.562 -1.6926  1.7083 -1.1931
11855TIP3   OH256979   4.173   1.361   6.269  0.1444 -0.1434  0.0005
11855TIP3    H156980   4.108   1.397   6.330 -1.5462 -2.0809 -0.5226
11855TIP3    H256981   4.236   1.315   6.326  0.2903  0.6013  0.4489
11856TIP3   OH256982   5.282   3.691   5.072  0.0558 -0.4149 -0.3509
11856TIP3    H156983   5.223   3.755   5.031  0.0251 -1.1478 -1.5002
11856TIP3    H256984   5.369   3.720   5.046  0.2061  0.4618  1.0508
11857TIP3   OH256985   1.393   5.432  15.479  0.1878  0.3243 -0.1765
11857TIP3    H156986   1.375   5.366  15.411  0.7125 -1.0623  0.9804
11857TIP3    H256987   1.314   5.433  15.532  1.1822 -1.4728  1.4488
11858TIP3   OH256988   2.143   4.345  16.729 -0.4823 -0.5583  0.0378
11858TIP3    H156989   2.112   4.348  16.639 -2.0318 -0.0267  0.5536
11858TIP3    H256990   2.067   4.371  16.781  0.6589  0.0871  1.4342
11859TIP3   OH256991   0.987   2.196  16.107 -0.0313  0.1075 -0.4112
11859TIP3    H156992   1.038   2.222  16.183 -3.3639 -1.4058  2.6575
11859TIP3    H256993   0.944   2.277  16.078  0.0216  0.4223  0.3726
11860TIP3   OH256994   2.032   4.146   4.417 -0.2785  0.0030  0.0582
11860TIP3    H156995   2.108   4.204   4.425 -1.1407  1.4061 -1.3489
11860TIP3    H256996   2.050   4.092   4.340 -0.9796  0.8310 -0.7105
11861TIP3   OH256997   5.678   4.011  15.395  0.1197 -0.4109 -0.4052
11861TIP3    H156998   5.667   3.918  15.417  1.3030 -0.1106  1.7561
11861TIP3    H256999   5.630   4.058  15.463 -2.6720  0.6399 -2.8871
11862TIP3   OH257000   1.934   5.013   5.137 -0.2145 -0.1252  0.3839
11862TIP3    H157001   1.957   4.920   5.135 -1.2119 -0.4804  2.7698
11862TIP3    H257002   2.014   5.057   5.164 -0.0882 -0.4244  0.5046
11863TIP3   OH257003   3.474   6.554  11.887  0.3282 -0.4279 -0.0439
11863TIP3    H157004   3.480   6.459  11.877  0.6304 -0.3669 -0.4785
11863TIP3    H257005   3.547   6.577  11.944 -0.2699 -0.5551  0.7873
11864TIP3   OH257006   3.396   5.938  15.815 -0.3497  0.0474 -0.1177
11864TIP3    H157007   3.475   5.917  15.865 -1.0146 -3.3261 -0.2941
11864TIP3    H257008   3.418   5.915  15.725 -0.7302  1.6176 -0.6511
11865TIP3   OH257009   0.629   5.874  16.545 -0.3997  0.2455 -0.2188
11865TIP3    H157010   0.573   5.948  16.520 -0.4413  0.6679  1.0371
11865TIP3    H257011   0.594   5.845  16.629 -2.2030 -3.0798 -1.9080
11866TIP3   OH257012   4.406   4.248   3.071 -0.0791 -0.0321  0.1887
11866TIP3    H157013   4.314   4.234   3.092  0.4026 -0.8871  1.8966
11866TIP3    H257014   4.436   4.309   3.138  0.7918 -0.4032  0.1427
11867TIP3   OH257015   2.315   1.185  15.011  0.0799 -0.1195 -0.4605
11867TIP3    H157016   2.343   1.139  15.090 -2.2692 -1.6164 -0.3918
11867TIP3    H257017   2.282   1.269  15.042 -2.1069 -1.2287  0.4333
11868TIP3   OH257018   2.973   5.476   1.169 -0.0767 -0.6868 -0.2772
11868TIP3    H157019   2.965   5.384   1.194 -0.9590 -0.6733 -0.4595
11868TIP3    H257020   2.939   5.479   1.079 -0.1484 -0.1720 -0.2355
11869TIP3   OH257021   6.288   4.126  11.895 -0.1813  1.3457  0.0234
11869TIP3    H157022   6.326   4.045  11.931 -2.3912  0.2836  0.1542
11869TIP3    H257023   6.228   4.156  11.963 -1.6682  1.3721 -1.2490
11870TIP3   OH257024   4.223   2.978  11.955 -0.0254  0.5404 -0.0521
11870TIP3    H157025   4.315   2.970  11.930 -0.3729  0.3032 -1.2936
11870TIP3    H257026   4.183   2.896  11.928 -0.6235  0.6808  0.3821
11871TIP3   OH257027   1.629   2.201  13.720  0.8011 -0.5679  0.3390
11871TIP3    H157028   1.583   2.250  13.788  0.9901  0.8935 -0.5483
11871TIP3    H257029   1.569   2.131  13.696  0.6192 -0.9457  1.8037
11872TIP3   OH257030   2.797   2.232   1.432  0.1501 -0.0864  0.0338
11872TIP3    H157031   2.892   2.239   1.445  0.0472  0.9166  0.3968
11872TIP3    H257032   2.759   2.262   1.515 -0.4808  1.0967 -0.6451
11873TIP3   OH257033   0.151   1.987   5.460  0.9859 -0.4212 -0.1124
11873TIP3    H157034   0.219   2.054   5.458  1.1518 -0.5092  1.4369
11873TIP3    H257035   0.196   1.907   5.490  0.1422 -0.3416  1.5038
11874TIP3   OH257036   6.432   6.055   5.513  0.0248 -0.2184 -0.4150
11874TIP3    H157037   6.485   6.116   5.564  0.2788 -1.2911  0.6371
11874TIP3    H257038   6.385   6.004   5.579 -2.9048  1.1524 -1.2831
11875TIP3   OH257039   6.044   0.899   2.912  0.1947 -0.3879  0.4287
11875TIP3    H157040   5.981   0.967   2.889 -0.2092 -0.9981 -0.3272
11875TIP3    H257041   6.009   0.820   2.872  1.0542 -0.8909  0.6477
11876TIP3   OH257042   4.090   2.140  12.557 -0.1014 -0.0162 -0.3333
11876TIP3    H157043   4.108   2.205  12.489  1.1064 -0.5548 -0.5466
11876TIP3    H257044   3.994   2.142  12.567 -0.3316 -0.0592 -2.1869
11877TIP3   OH257045   4.921   1.115   6.035 -0.8214 -0.2998 -0.1886
11877TIP3    H157046   4.903   1.155   6.120 -1.3493 -2.1065  0.6024
11877TIP3    H257047   4.875   1.031   6.037  2.0442 -2.0405 -0.8356
11878TIP3   OH257048   4.376   6.519  15.833  0.0408  0.4717  0.1146
11878TIP3    H157049   4.336   6.437  15.805 -0.3430  0.7432 -0.1420
11878TIP3    H257050   4.329   6.587  15.784  0.7628  0.8008 -0.1460
11879TIP3   OH257051   5.171   3.086   3.119 -0.2980 -0.0938 -0.1847
11879TIP3    H157052   5.136   2.999   3.096  0.2565 -0.2423 -0.4701
11879TIP3    H257053   5.195   3.125   3.035 -0.5326  0.3347 -0.0549
11880TIP3   OH257054   2.979   2.213  16.036  0.1922 -0.3349  0.2511
11880TIP3    H157055   2.980   2.304  16.009  1.7067 -0.1354  0.9012
11880TIP3    H257056   2.943   2.214  16.125  1.0903 -0.2418  0.6242
11881TIP3   OH257057   3.475   0.380  10.792 -0.0690  0.2480 -0.2503
11881TIP3    H157058   3.551   0.388  10.850  0.3648 -0.1520 -0.7456
11881TIP3    H257059   3.467   0.466  10.750 -0.2729  0.4813  0.2584
11882TIP3   OH257060   3.794   5.161  15.184 -0.3460  0.7750 -0.1625
11882TIP3    H157061   3.817   5.078  15.225 -0.9034  1.4884  1.7125
11882TIP3    H257062   3.774   5.139  15.093 -0.8580 -1.2048  0.3965
11883TIP3   OH257063   4.531   6.017   5.936 -0.0749 -0.1295  0.1580
11883TIP3    H157064   4.611   5.981   5.897  0.6548  0.3720  1.1595
11883TIP3    H257065   4.548   6.111   5.944 -0.3069 -0.1724  1.4133
11884TIP3   OH257066   2.051   1.360   2.725 -0.0816 -0.6093 -0.2335
11884TIP3    H157067   2.136   1.318   2.741  1.0916  1.5304 -0.4502
11884TIP3    H257068   1.987   1.299   2.761  1.5611 -2.2071  0.1235
11885TIP3   OH257069   5.551   6.344   5.997 -0.7367  0.2155 -0.7396
11885TIP3    H157070   5.639   6.353   5.961 -1.0630  1.0741 -1.3688
11885TIP3    H257071   5.558   6.377   6.086 -0.3568 -0.0108 -0.6820
11886TIP3   OH257072   0.772   1.088  12.940 -0.1610  0.2282 -0.4558
11886TIP3    H157073   0.711   1.128  13.002 -0.5719 -0.4477 -0.4169
11886TIP3    H257074   0.828   1.032  12.994 -0.6466 -0.5130 -0.7159
11887TIP3   OH257075   2.345   2.175   0.081 -0.0344 -0.0121 -0.3972
11887TIP3    H157076   2.312   2.228   0.009 -2.3990 -0.1274  0.4972
11887TIP3    H257077   2.354   2.087   0.045  0.5378  0.2928 -1.0000
11888TIP3   OH257078   1.025   3.133  14.159 -0.5432 -0.4712  0.4153
11888TIP3    H157079   1.043   3.140  14.253  0.3729 -0.9675  0.2942
11888TIP3    H257080   0.937   3.168  14.148 -0.4346  0.1373  1.3782
11889TIP3   OH257081   0.066   5.766   6.089 -0.3304  0.2911  0.0707
11889TIP3    H157082   0.036   5.784   6.178  0.3247  1.8017  0.0119
11889TIP3    H257083   0.160   5.784   6.091 -0.3147  0.3747 -0.9432
11890TIP3   OH257084   2.255   1.916  13.213  0.0414  0.3449 -0.2062
11890TIP3    H157085   2.229   1.831  13.179  0.4235 -0.3233  1.1353
11890TIP3    H257086   2.172   1.962  13.229 -0.1678  0.1531 -0.7253
11891TIP3   OH257087   0.826   3.302  14.200  0.5435 -0.0867  0.5954
11891TIP3    H157088   0.854   3.362  14.131  0.3523 -0.0812  0.5240
11891TIP3    H257089   0.748   3.342  14.237 -1.6854 -1.9661 -1.7655
11892TIP3   OH257090   2.390   1.475  14.545 -0.1850 -0.7047 -0.2285
11892TIP3    H157091   2.390   1.491  14.640 -1.7050 -0.0137 -0.3137
11892TIP3    H257092   2.362   1.384  14.537 -3.6884  0.2111 -0.0425
11893TIP3   OH257093   1.675   6.083   4.381  0.0561 -0.4424 -0.6927
11893TIP3    H157094   1.706   6.160   4.334 -0.7754  1.0501  1.0611
11893TIP3    H257095   1.590   6.109   4.416 -0.2146 -2.1401  0.0167
11894TIP3   OH257096   1.302   1.624  14.518  0.1995  0.5916  0.1876
11894TIP3    H157097   1.218   1.584  14.542 -0.2471  0.6703 -1.1723
11894TIP3    H257098   1.280   1.713  14.492  0.9766  1.2223  1.5984
11895TIP3   OH257099   3.907   6.246   2.171 -0.0998 -0.5342 -0.0243
11895TIP3    H157100   3.879   6.297   2.094  0.1098  0.9635  0.8488
11895TIP3    H257101   3.828   6.199   2.198  0.1122 -2.0576 -1.8388
11896TIP3   OH257102   0.548   2.008  14.173 -0.3873 -0.0177 -0.7273
11896TIP3    H157103   0.612   2.003  14.244  0.0085 -0.3517 -1.1029
11896TIP3    H257104   0.559   2.096  14.137 -0.6876  0.2020 -0.2844
11897TIP3   OH257105   0.346   6.631  10.476  0.5744  0.3013  0.3233
11897TIP3    H157106   0.436   6.607  10.456  1.2051  0.2025  2.8779
11897TIP3    H257107   0.343   6.726  10.467  0.0300  0.0919 -2.7311
11898TIP3   OH257108   5.541   5.750   2.667  0.4220 -0.4413 -0.6300
11898TIP3    H157109   5.612   5.812   2.682  0.7818 -1.0516  0.2977
11898TIP3    H257110   5.476   5.771   2.735  0.2306 -0.6165 -0.7555
11899TIP3   OH257111   6.256   4.879   3.201  0.2230 -0.0773 -0.0788
11899TIP3    H157112   6.307   4.802   3.226 -0.6578 -0.4486  0.6301
11899TIP3    H257113   6.215   4.908   3.282  0.6555  1.2420 -0.3104
11900TIP3   OH257114   0.087   0.406  12.051 -0.2153  1.0440  0.3951
11900TIP3    H157115   0.045   0.372  11.972  0.5405 -0.3952  0.5735
11900TIP3    H257116   0.161   0.458  12.019  0.2648  0.2244  0.1329
11901TIP3   OH257117   6.120   2.174  16.346  0.2086 -0.3076 -0.0205
11901TIP3    H157118   6.034   2.175  16.303  0.2787 -1.1747 -0.1845
11901TIP3    H257119   6.181   2.146  16.278  0.3354 -1.6109  0.5979
11902TIP3   OH257120   1.995   1.471   4.572 -0.6240  0.3240  0.2049
11902TIP3    H157121   2.058   1.535   4.604  0.0993 -0.2936  0.0446
11902TIP3    H257122   1.931   1.462   4.643 -0.1113  0.4013  0.6819
11903TIP3   OH257123   4.123   2.995  12.216  0.8402  0.1953 -0.7924
11903TIP3    H157124   4.172   2.981  12.135 -0.8577  0.4186 -1.9034
11903TIP3    H257125   4.058   2.925  12.217 -0.2863  1.2218 -0.5368
11904TIP3   OH257126   4.972   6.369  12.373 -0.0332 -0.6538 -0.3774
11904TIP3    H157127   4.992   6.459  12.348  0.4939 -0.8220 -0.5659
11904TIP3    H257128   5.056   6.330  12.394 -0.3030 -0.9772  0.1473
11905TIP3   OH257129   6.132   1.084  13.294 -0.2503 -0.0127  0.3423
11905TIP3    H157130   6.041   1.078  13.324 -0.7412 -2.7239 -1.3512
11905TIP3    H257131   6.136   1.166  13.245 -1.0978  1.2903  2.3290
11906TIP3   OH257132   1.130   5.468  16.769  0.2736  0.6872  0.6339
11906TIP3    H157133   1.163   5.380  16.752  0.3861  1.0792 -1.5168
11906TIP3    H257134   1.151   5.485  16.861  1.9973 -0.7708  0.5531
11907TIP3   OH257135   5.290   0.533  11.990 -0.3540 -0.0179 -0.0288
11907TIP3    H157136   5.208   0.531  11.941  0.6917 -2.0722 -1.9199
11907TIP3    H257137   5.265   0.515  12.081 -2.0782  0.5243 -0.3662
11908TIP3   OH257138   5.161   1.629   4.194 -0.2215  0.3099 -0.5830
11908TIP3    H157139   5.114   1.710   4.175 -1.8327 -0.6850 -1.0425
11908TIP3    H257140   5.095   1.569   4.226  1.0228 -0.7033  0.2024
11909TIP3   OH257141   1.001   4.647  15.320 -0.0424  0.0381 -0.4207
11909TIP3    H157142   0.968   4.612  15.237  0.3845  0.3734 -0.7395
11909TIP3    H257143   1.016   4.740  15.302  0.2089  0.0772 -0.0165
11910TIP3   OH257144   6.547   1.311  16.579  0.4995  0.3087 -0.0419
11910TIP3    H157145   6.473   1.299  16.637 -1.2616  0.5500 -2.1136
11910TIP3    H257146   6.585   1.395  16.605 -0.8030  0.8393  0.1994
11911TIP3   OH257147   1.193   1.833   3.635  0.0558 -0.1446  0.0724
11911TIP3    H157148   1.104   1.837   3.599  0.2273 -1.4469 -0.5514
11911TIP3    H257149   1.188   1.768   3.705  0.5793 -0.4169 -0.1407
11912TIP3   OH257150   3.043   2.455   6.338 -0.1150 -0.4430  0.1456
11912TIP3    H157151   2.983   2.461   6.413  0.7684  1.4132  0.7713
11912TIP3    H257152   3.032   2.539   6.293  2.6125  0.3579  0.8037
11913TIP3   OH257153   0.274   4.884  17.176  0.1312  0.0756  0.6164
11913TIP3    H157154   0.329   4.962  17.185 -1.1120  1.1591 -0.6728
11913TIP3    H257155   0.301   4.845  17.093  0.4185 -0.6304  1.0281
11914TIP3   OH257156   1.007   0.947  12.446  0.6310  0.6665  0.0287
11914TIP3    H157157   1.047   0.931  12.361  0.8952 -0.0705  0.2875
11914TIP3    H257158   1.004   1.043  12.453 -0.9572  0.7715 -1.5247
11915TIP3   OH257159   2.775   3.521  17.105  0.5636  0.1759 -0.3538
11915TIP3    H157160   2.693   3.490  17.068  0.2323  1.0939 -0.4233
11915TIP3    H257161   2.823   3.557  17.031  1.2965 -0.9012 -0.4145
11916TIP3   OH257162   6.110   2.395   0.911 -0.2017  0.2295  0.7864
11916TIP3    H157163   6.114   2.313   0.862 -0.9694  0.3159  0.5671
11916TIP3    H257164   6.062   2.374   0.991  1.6624 -0.0773  1.8814
11917TIP3   OH257165   2.135   0.972  14.092  0.0737 -0.0172  0.1024
11917TIP3    H157166   2.111   1.041  14.030  0.7739  1.9743  1.9163
11917TIP3    H257167   2.231   0.980  14.100  0.0709 -0.6768  0.9281
11918TIP3   OH257168   0.578   6.623  15.206 -0.4039 -0.9419 -0.4775
11918TIP3    H157169   0.517   6.561  15.167 -0.4425  0.1155 -2.1971
11918TIP3    H257170   0.525   6.700  15.227  0.4265  0.4991 -3.1787
11919TIP3   OH257171   0.990   1.647   4.906  0.6599 -0.3729  0.0033
11919TIP3    H157172   0.898   1.670   4.901  0.4519 -0.8554  1.1234
11919TIP3    H257173   0.996   1.588   4.982  1.7878 -0.8215 -0.4011
11920TIP3   OH257174   6.543   1.248   2.488 -0.0097 -1.1019  0.0508
11920TIP3    H157175   6.582   1.181   2.431  0.6556 -0.8907  0.2460
11920TIP3    H257176   6.455   1.216   2.506  0.0220 -1.5267 -0.5161
11921TIP3   OH257177   4.998   0.928   1.116  0.1172 -0.4021  0.1174
11921TIP3    H157178   4.993   0.861   1.048 -2.0096 -1.2717  1.0775
11921TIP3    H257179   5.016   0.880   1.197 -2.2197  0.0064  0.9593
11922TIP3   OH257180   4.563   2.439   6.211 -0.7415  0.1465 -0.2122
11922TIP3    H157181   4.598   2.419   6.124 -0.5890  0.0101 -0.1189
11922TIP3    H257182   4.627   2.402   6.272 -0.9986 -0.0170 -0.0418
11923TIP3   OH257183   2.224   5.311   0.300 -0.2263  0.3028  0.4445
11923TIP3    H157184   2.320   5.307   0.292 -0.1702  1.1024  0.6959
11923TIP3    H257185   2.208   5.352   0.385 -0.8158 -1.3885  1.2002
11924TIP3   OH257186   5.873   1.269   6.171 -0.3228 -0.2897 -0.0559
11924TIP3    H157187   5.791   1.316   6.189  0.2372  0.3992  0.8014
11924TIP3    H257188   5.866   1.244   6.079 -1.0170  0.7468 -0.3106
11925TIP3   OH257189   6.153   5.292  14.185  0.1393  0.0534  0.2715
11925TIP3    H157190   6.064   5.274  14.154  0.2400  0.0209 -0.0008
11925TIP3    H257191   6.205   5.218  14.155  0.0420 -0.4936  1.3981
11926TIP3   OH257192   4.236   0.210   4.775  0.1617 -0.1940  0.8113
11926TIP3    H157193   4.191   0.264   4.710  1.6696  0.4160  0.2335
11926TIP3    H257194   4.222   0.256   4.858  0.7666  0.6759  0.4410
11927TIP3   OH257195   2.708   4.929   1.801 -0.0524  0.6129 -0.1742
11927TIP3    H157196   2.703   4.978   1.719 -0.0877  1.3461  0.2594
11927TIP3    H257197   2.770   4.858   1.783 -1.3248 -0.2354 -1.3305
11928TIP3   OH257198   0.758   2.010  14.679 -0.7146 -0.2976  0.5338
11928TIP3    H157199   0.825   1.999  14.612 -0.0740  1.5843  0.7871
11928TIP3    H257200   0.677   2.027  14.630 -0.6125 -0.6676  0.2344
11929TIP3   OH257201   0.169   5.819   2.385  0.1774  0.0372  0.4768
11929TIP3    H157202   0.251   5.861   2.358  0.5059  0.1974  1.6564
11929TIP3    H257203   0.139   5.772   2.307  0.3367  1.5994 -0.5828
11930TIP3   OH257204   1.479   2.161   3.724 -0.0548 -0.5691 -0.0011
11930TIP3    H157205   1.453   2.249   3.697 -0.5400 -0.4317  0.8525
11930TIP3    H257206   1.401   2.125   3.766  0.5358 -0.8962  0.8510
11931TIP3   OH257207   1.965   4.877   2.390 -0.9038 -0.5581 -0.3758
11931TIP3    H157208   1.995   4.810   2.452  1.1383  0.9379  0.3678
11931TIP3    H257209   1.965   4.958   2.441 -1.8054  0.2686 -1.6576
11932TIP3   OH257210   0.217   1.921  10.652 -0.8548 -0.2039 -0.4952
11932TIP3    H157211   0.139   1.882  10.691 -1.3470 -0.3150 -1.5523
11932TIP3    H257212   0.194   1.934  10.560 -0.2454  1.3954 -0.4526
11933TIP3   OH257213   4.716   5.400  14.698 -0.1446  0.4384  0.7184
11933TIP3    H157214   4.793   5.454  14.684 -0.7213  1.4763  1.4184
11933TIP3    H257215   4.643   5.452  14.662 -0.5789 -0.3518  0.4176
11934TIP3   OH257216   5.565   2.170  15.310  0.5163  0.0799  0.0608
11934TIP3    H157217   5.577   2.259  15.278 -2.0931  0.3384 -0.3590
11934TIP3    H257218   5.562   2.116  15.230 -0.4777 -0.0162  0.1520
11935TIP3   OH257219   3.230   1.038   5.294  0.3933  0.2616 -0.4738
11935TIP3    H157220   3.179   1.073   5.220 -0.8355  0.3061  0.3569
11935TIP3    H257221   3.168   0.982   5.341  1.4220 -0.4969  0.0202
11936TIP3   OH257222   5.397   5.622   2.456 -0.1505  0.4151  0.3117
11936TIP3    H157223   5.427   5.601   2.367 -0.7371  1.5065 -0.1621
11936TIP3    H257224   5.476   5.647   2.503  0.4528 -1.8671  0.6531
11937TIP3   OH257225   6.661   4.703   4.741  0.0853 -0.2136  0.3669
11937TIP3    H157226   6.737   4.757   4.718  0.6060 -0.2959  1.7835
11937TIP3    H257227   6.656   4.638   4.670  1.3128 -0.1735  0.2125
11938TIP3   OH257228   0.450   1.655   2.147 -0.2020 -0.4087 -0.3548
11938TIP3    H157229   0.505   1.723   2.108  1.3198 -1.4173 -0.0689
11938TIP3    H257230   0.512   1.589   2.180 -1.4957 -0.7290  1.6724
11939TIP3   OH257231   1.281   0.558  16.871 -0.1592  0.0167 -0.7111
11939TIP3    H157232   1.363   0.608  16.867 -0.7424  1.0096 -0.3396
11939TIP3    H257233   1.303   0.475  16.829  0.7318  0.6923 -1.6390
11940TIP3   OH257234   6.535   3.116   0.295 -0.5884  0.2583  0.3370
11940TIP3    H157235   6.630   3.107   0.289 -0.6746 -1.2866  0.9740
11940TIP3    H257236   6.518   3.128   0.389 -0.7928  4.2577 -0.0333
11941TIP3   OH257237   0.117   4.676   0.957  0.1864 -0.3607 -0.1164
11941TIP3    H157238   0.140   4.677   1.050  2.7466  0.6952 -0.6582
11941TIP3    H257239   0.148   4.591   0.926  1.0892  0.0374 -0.3420
11942TIP3   OH257240   6.194   0.481   2.918 -0.6334  0.3172  0.2572
11942TIP3    H157241   6.100   0.491   2.926 -0.6774  0.0666  0.0557
11942TIP3    H257242   6.222   0.557   2.867 -0.7933  0.1199 -0.1262
11943TIP3   OH257243   5.488   0.474   6.176 -0.0355  0.4904  0.1659
11943TIP3    H157244   5.544   0.541   6.214  0.2594  0.5237 -0.3204
11943TIP3    H257245   5.515   0.393   6.219  1.3534  0.2770 -1.0436
11944TIP3   OH257246   2.122   2.617  14.233  0.2182  0.2961  0.2091
11944TIP3    H157247   2.048   2.557  14.222 -0.2351  1.1774 -2.3359
11944TIP3    H257248   2.086   2.690  14.284 -0.8788  0.9234 -1.3786
11945TIP3   OH257249   4.705   0.919   6.030  0.3807 -0.3967 -0.7789
11945TIP3    H157250   4.647   0.882   5.964 -1.6142  3.5497 -1.4980
11945TIP3    H257251   4.655   0.915   6.111  0.8304 -0.6898 -0.5077
11946TIP3   OH257252   6.674   2.317   4.072 -0.3397  0.5774  0.2225
11946TIP3    H157253   6.615   2.273   4.011 -1.3642  0.0332  1.5402
11946TIP3    H257254   6.754   2.332   4.022  0.0688 -2.7278 -0.3636
11947TIP3   OH257255   5.449   1.144   5.103  0.8134  0.0569 -0.0488
11947TIP3    H157256   5.390   1.188   5.043 -0.1043  1.1470  1.5811
11947TIP3    H257257   5.494   1.079   5.049 -0.9676  0.0277 -1.6022
11948TIP3   OH257258   4.653   5.085  14.206 -0.3322  0.1454 -0.4389
11948TIP3    H157259   4.581   5.127  14.252  1.5316  2.2093  0.8014
11948TIP3    H257260   4.654   4.995  14.239 -0.4416  0.9624  1.9429
11949TIP3   OH257261   0.129   2.097  13.407 -0.2867 -0.1727 -0.4813
11949TIP3    H157262   0.165   2.089  13.319 -0.9718  2.5960 -1.1111
11949TIP3    H257263   0.149   2.186  13.433  0.1999 -1.0158  2.3628
11950TIP3   OH257264   1.015   1.350   5.919 -0.8487 -0.0665 -0.0871
11950TIP3    H157265   0.941   1.382   5.969 -0.1679 -0.1735  1.0399
11950TIP3    H257266   1.082   1.330   5.986 -0.5304 -1.8955 -0.8799
11951TIP3   OH257267   2.256   4.495   2.248  0.2390 -0.6928 -0.3160
11951TIP3    H157268   2.263   4.456   2.161  0.3101 -1.1990 -0.0824
11951TIP3    H257269   2.329   4.558   2.251  1.2024 -1.7923 -0.0513
11952TIP3   OH257270   1.773   6.301   5.712  0.4187 -0.6947 -0.6760
11952TIP3    H157271   1.713   6.372   5.691  0.6316 -0.7531 -1.5026
11952TIP3    H257272   1.805   6.322   5.800 -0.6804 -0.5869 -0.2873
11953TIP3   OH257273   5.280   1.250   2.687 -0.3007 -0.4725  0.0949
11953TIP3    H157274   5.222   1.296   2.749  1.1360  0.9079  0.4834
11953TIP3    H257275   5.346   1.316   2.663 -0.7065 -1.0045 -2.8233
11954TIP3   OH257276   5.273   3.640   3.950  0.6058 -0.2467 -0.6500
11954TIP3    H157277   5.186   3.611   3.923 -0.0133  0.2700  0.6805
11954TIP3    H257278   5.326   3.633   3.871 -0.9196  0.5633 -1.8089
11955TIP3   OH257279   3.412   4.646   0.769 -0.2401 -0.1741  0.0705
11955TIP3    H157280   3.327   4.691   0.766 -0.4012 -0.2371  2.2456
11955TIP3    H257281   3.444   4.651   0.679 -2.5205 -0.1074 -0.8214
11956TIP3   OH257282   0.768   5.939   3.648  0.1450  0.5010 -0.3104
11956TIP3    H157283   0.735   5.878   3.714  0.7925  1.9221  1.4311
11956TIP3    H257284   0.741   6.025   3.680  1.6681  1.3486 -1.1926
11957TIP3   OH257285   1.444   5.231  13.093 -0.6310 -0.0775  0.6539
11957TIP3    H157286   1.427   5.139  13.112  1.5100 -0.3842  1.3939
11957TIP3    H257287   1.463   5.233  12.999  1.3640 -0.7936  1.0001
11958TIP3   OH257288   0.591   2.295  13.823 -0.3113 -0.4860 -0.2151
11958TIP3    H157289   0.554   2.305  13.911 -0.9633  0.2036 -0.5576
11958TIP3    H257290   0.686   2.302  13.836 -0.4237  0.0137  0.3858
11959TIP3   OH257291   2.415   3.841  15.449  0.6949 -0.8237 -0.1304
11959TIP3    H157292   2.383   3.753  15.471  1.2872 -0.3314  3.2028
11959TIP3    H257293   2.372   3.899  15.512  0.7737  1.2467 -1.8788
11960TIP3   OH257294   6.292   5.077  16.474 -0.0092 -0.1593 -0.5299
11960TIP3    H157295   6.221   5.138  16.495 -0.4330  0.1580 -2.6548
11960TIP3    H257296   6.325   5.107  16.388  0.9136 -1.8916 -0.8193
11961TIP3   OH257297   4.472   0.999   4.243 -0.0921  0.1928  0.3014
11961TIP3    H157298   4.475   1.057   4.167  0.5723 -0.2847 -0.0534
11961TIP3    H257299   4.423   0.922   4.212  1.7679 -0.8312 -0.2722
11962TIP3   OH257300   4.924   0.244  15.699  0.0447  0.6964  0.0576
11962TIP3    H157301   5.016   0.227  15.718  0.3336  1.2284 -0.7836
11962TIP3    H257302   4.880   0.160  15.714  0.6214  0.5046  0.7112
11963TIP3   OH257303   2.865   0.293   2.316 -0.7282  0.9951 -0.2818
11963TIP3    H157304   2.914   0.362   2.273  1.4049  0.0548  0.5036
11963TIP3    H257305   2.838   0.330   2.400 -0.2732  1.1398 -0.1981
11964TIP3   OH257306   3.904   4.194   6.674  0.4784 -0.5084  0.9968
11964TIP3    H157307   3.976   4.148   6.717  0.3926 -0.3033  1.3624
11964TIP3    H257308   3.853   4.124   6.633  0.8813 -0.6549  0.7390
11965TIP3   OH257309   5.701   4.523   4.486 -0.4305 -0.1048 -0.3595
11965TIP3    H157310   5.658   4.472   4.555 -3.7559  0.1704 -2.0128
11965TIP3    H257311   5.676   4.614   4.504  0.2559  0.1935 -0.8693
11966TIP3   OH257312   5.082   0.716   5.731  0.2878  0.3926  0.0485
11966TIP3    H157313   5.117   0.660   5.661  0.9758  0.0083  0.6752
11966TIP3    H257314   5.081   0.659   5.808  0.2637  1.0241  0.5202
11967TIP3   OH257315   4.267   2.900   2.793 -0.6761  0.2008 -1.1235
11967TIP3    H157316   4.260   2.888   2.888  1.5999 -0.4684 -0.9783
11967TIP3    H257317   4.301   2.816   2.761  1.4683  1.3740 -2.1001
11968TIP3   OH257318   0.482   4.616  15.979 -0.5304 -0.2107  0.2473
11968TIP3    H157319   0.490   4.657  15.893 -2.7163 -1.2181 -0.5091
11968TIP3    H257320   0.389   4.594  15.987 -0.2397 -0.9078  2.5237
11969TIP3   OH257321   0.989   1.580   3.644  0.6402 -0.0491  0.3500
11969TIP3    H157322   0.928   1.652   3.662 -0.7047 -0.9928 -0.3171
11969TIP3    H257323   0.975   1.559   3.552  0.3396 -1.7782  0.7670
11970TIP3   OH257324   0.456   4.439   0.808 -0.1201 -0.0310  0.5467
11970TIP3    H157325   0.505   4.358   0.792 -0.7693 -0.2222 -0.6023
11970TIP3    H257326   0.521   4.500   0.843  0.0076 -1.5959  3.2790
11971TIP3   OH257327   1.079   3.847   4.236  0.3261 -0.1883  0.3220
11971TIP3    H157328   1.019   3.856   4.162 -0.5205 -0.3341  0.9703
11971TIP3    H257329   1.094   3.752   4.243  0.2512 -0.1926  0.4432
11972TIP3   OH257330   2.682   4.892  14.910 -0.3893  0.1980  0.4556
11972TIP3    H157331   2.623   4.855  14.844  0.1595 -1.1082  0.6724
11972TIP3    H257332   2.696   4.982  14.881  0.8094 -0.6752 -1.9422
11973TIP3   OH257333   6.716   2.754  10.840 -0.4101  0.5188  0.2969
11973TIP3    H157334   6.685   2.703  10.765  0.4310  0.0921  0.2292
11973TIP3    H257335   6.726   2.843  10.806  0.5048  0.2156 -0.2589
11974TIP3   OH257336   6.403   0.198   0.118 -0.4602 -0.1013  0.4749
11974TIP3    H157337   6.365   0.267   0.062  1.1215  0.3750 -0.0625
11974TIP3    H257338   6.343   0.124   0.108 -0.7114  0.2807 -1.1302
11975TIP3   OH257339   5.398   3.426   0.515 -0.5915  1.0061 -0.2279
11975TIP3    H157340   5.469   3.478   0.478 -0.1849  0.0104 -0.9159
11975TIP3    H257341   5.429   3.400   0.601  0.2192  0.0036 -0.7882
11976TIP3   OH257342   2.092   4.403  14.870 -0.0266  0.5374 -0.1783
11976TIP3    H157343   2.005   4.386  14.907  0.8473  1.1121  2.3217
11976TIP3    H257344   2.080   4.484  14.819 -0.8248  0.9591  0.6547
11977TIP3   OH257345   1.603   0.883  13.655  0.3352  0.0245 -0.1642
11977TIP3    H157346   1.525   0.923  13.694  0.4548 -1.6420  2.0182
11977TIP3    H257347   1.579   0.868  13.564 -0.5993  2.6617 -0.4360
11978TIP3   OH257348   3.673   0.372  15.186 -0.5132 -0.0583  0.1553
11978TIP3    H157349   3.735   0.429  15.141 -0.9829  1.3792  1.2689
11978TIP3    H257350   3.588   0.410  15.167 -0.7512  0.2910  1.8269
11979TIP3   OH257351   1.635   1.841  12.486 -0.5120 -0.4843 -0.5012
11979TIP3    H157352   1.561   1.879  12.439  0.2169 -1.0392 -2.1859
11979TIP3    H257353   1.683   1.791  12.420  1.8610  0.5628  0.3136
11980TIP3   OH257354   3.315   0.606   6.305  0.1548 -0.1182 -0.3918
11980TIP3    H157355   3.240   0.624   6.362 -0.8665 -1.3190 -1.2925
11980TIP3    H257356   3.391   0.606   6.364 -0.9138 -1.7052  1.0575
11981TIP3   OH257357   3.411   2.451  11.202  0.4870 -0.1799 -0.3588
11981TIP3    H157358   3.433   2.418  11.115  0.6845  0.2956 -0.4914
11981TIP3    H257359   3.359   2.530  11.185 -0.4880 -0.7442 -0.0450
11982TIP3   OH257360   4.488   5.637   3.965  0.4524  0.5215 -0.2446
11982TIP3    H157361   4.521   5.637   4.054  0.4063 -1.1199 -0.1983
11982TIP3    H257362   4.566   5.625   3.910  0.2117 -1.3684 -0.2389
11983TIP3   OH257363   6.046   1.561  13.817 -0.3982 -0.3610 -0.5262
11983TIP3    H157364   6.082   1.541  13.903  0.8086 -0.2931 -1.0011
11983TIP3    H257365   6.031   1.476  13.776  0.1593 -0.3731 -0.7046
11984TIP3   OH257366   4.331   1.137   3.714  0.5459 -0.2509 -0.2196
11984TIP3    H157367   4.264   1.204   3.703  0.2256 -0.7035 -1.2038
11984TIP3    H257368   4.361   1.119   3.625 -0.7141 -2.7096 -0.2473
11985TIP3   OH257369   2.570   2.212   5.697  0.3247 -0.2799 -0.3512
11985TIP3    H157370   2.570   2.227   5.792  2.2742 -1.8656 -0.0449
11985TIP3    H257371   2.662   2.222   5.671 -0.0327 -0.8048 -1.9123
11986TIP3   OH257372   4.892   4.383  11.159 -0.4069  0.9133 -0.0963
11986TIP3    H157373   4.875   4.289  11.162 -1.5725  1.1267  3.2007
11986TIP3    H257374   4.807   4.422  11.138  0.0208  1.2939 -1.2129
11987TIP3   OH257375   0.961   0.116   1.768 -0.2320  0.2160  0.3891
11987TIP3    H157376   0.952   0.021   1.777  0.9944  0.1325  0.8517
11987TIP3    H257377   0.974   0.131   1.675 -0.7640 -0.0340  0.2713
11988TIP3   OH257378   0.569   1.383  10.948  0.6617  0.1114 -0.0966
11988TIP3    H157379   0.560   1.449  10.879 -2.7524  0.6604  0.6899
11988TIP3    H257380   0.661   1.356  10.943  1.3498  2.4072 -2.7129
11989TIP3   OH257381   5.854   0.530  15.984  0.0368  0.4309  0.1587
11989TIP3    H157382   5.816   0.612  16.017 -1.6100  0.0781 -0.7231
11989TIP3    H257383   5.863   0.475  16.062 -2.6426  0.0416  0.3112
11990TIP3   OH257384   1.071   2.698  12.915  0.0258  0.2669  0.5158
11990TIP3    H157385   1.103   2.618  12.873  1.7785  1.6293 -0.8587
11990TIP3    H257386   1.149   2.739  12.952 -0.8838  1.2374  1.4347
11991TIP3   OH257387   4.926   4.206  12.930  0.0015 -0.3926 -0.1272
11991TIP3    H157388   5.002   4.171  12.882  0.8298  0.1614  0.7325
11991TIP3    H257389   4.858   4.214  12.864  1.5971  1.9009 -1.6437
11992TIP3   OH257390   6.452   4.443  15.423  0.3345 -0.4646 -0.1323
11992TIP3    H157391   6.375   4.452  15.479  0.4773  1.0338 -0.1267
11992TIP3    H257392   6.503   4.372  15.462 -0.6903 -0.9944  0.2713
11993TIP3   OH257393   0.781   4.530  16.629 -0.0903 -0.0471 -0.0786
11993TIP3    H157394   0.802   4.587  16.702  1.6593 -0.3458 -0.2975
11993TIP3    H257395   0.687   4.514  16.636 -0.1403  0.8039  1.4507
11994TIP3   OH257396   6.481   2.503   5.063  0.1902 -0.7916  0.1481
11994TIP3    H157397   6.492   2.420   5.108 -0.9118 -0.7319  0.5414
11994TIP3    H257398   6.438   2.560   5.126 -0.5588 -0.4313 -0.6604
11995TIP3   OH257399   1.588   3.951  12.695  0.3591 -0.8109 -0.4111
11995TIP3    H157400   1.535   4.012  12.748 -0.3439  0.3949 -2.3857
11995TIP3    H257401   1.585   3.869  12.744 -0.4990  0.1525  1.2614
11996TIP3   OH257402   6.229   2.273  12.414 -0.1862  0.4856 -0.1653
11996TIP3    H157403   6.197   2.183  12.414  0.5605  0.2028 -1.3416
11996TIP3    H257404   6.240   2.294  12.507 -1.0885 -0.3645  0.1498
11997TIP3   OH257405   3.728   6.118   2.308  0.4388 -0.0059 -0.1787
11997TIP3    H157406   3.641   6.132   2.347 -0.1673 -0.4550 -1.3281
11997TIP3    H257407   3.739   6.023   2.308  1.1278  0.0639  0.3352
11998TIP3   OH257408   2.380   3.692   5.322  0.5475 -0.3500 -0.3772
11998TIP3    H157409   2.418   3.606   5.304  0.7920 -0.7929  1.8825
11998TIP3    H257410   2.447   3.737   5.374  0.3085  1.1295 -1.3052
11999TIP3   OH257411   3.595   2.090  12.551 -0.6477 -0.1097  0.3057
11999TIP3    H157412   3.585   1.997  12.532  0.0651 -0.1538  0.0998
11999TIP3    H257413   3.605   2.131  12.465 -0.8220  0.1408  0.4029
12000TIP3   OH257414   5.637   1.450   0.225 -0.1324  0.4944  0.4751
12000TIP3    H157415   5.673   1.466   0.138  0.2384  2.1393  0.8878
12000TIP3    H257416   5.709   1.411   0.275 -0.4662 -0.8166 -0.0506
12001TIP3   OH257417   6.419   0.678   1.749  0.1828 -0.3917  0.3708
12001TIP3    H157418   6.337   0.721   1.775 -1.2480  1.3333 -5.3980
12001TIP3    H257419   6.393   0.588   1.728  0.0597 -0.2836  0.0406
12002TIP3   OH257420   2.327   1.238  10.577 -0.1587 -0.3364 -0.3272
12002TIP3    H157421   2.264   1.265  10.510 -1.2756  2.1168  1.5984
12002TIP3    H257422   2.273   1.204  10.648  0.5848  1.9253  1.4169
12003TIP3   OH257423   3.516   4.587   3.771  0.2809  0.1521 -0.0587
12003TIP3    H157424   3.485   4.648   3.704 -0.5138  0.3314  0.4497
12003TIP3    H257425   3.565   4.642   3.832 -1.6989  0.6168  1.2157
12004TIP3   OH257426   0.314   3.607  14.331 -0.1656 -0.3411 -0.1932
12004TIP3    H157427   0.335   3.622  14.238  2.9459 -0.7205  0.3130
12004TIP3    H257428   0.245   3.670  14.351  0.0796  0.7459 -2.4253
12005TIP3   OH257429   3.915   6.724   0.514 -0.8077  0.0947 -0.3617
12005TIP3    H157430   3.846   6.763   0.460 -0.7493  0.5881 -0.0916
12005TIP3    H257431   3.879   6.725   0.603 -1.3245 -1.6712 -0.5167
12006TIP3   OH257432   5.321   5.862  16.322  0.1924 -0.7256  0.2135
12006TIP3    H157433   5.416   5.873  16.328  0.2452 -0.7098 -0.4951
12006TIP3    H257434   5.290   5.943  16.281 -0.0216 -1.0768 -0.3393
12007TIP3   OH257435   2.847   6.581   2.486  0.0333  0.3573 -0.1908
12007TIP3    H157436   2.875   6.579   2.577  1.3077  0.7389 -0.5550
12007TIP3    H257437   2.860   6.491   2.455 -1.1319  0.0396  0.1964
12008TIP3   OH257438   3.470   0.160  11.994 -0.1700  0.4028  0.3919
12008TIP3    H157439   3.545   0.112  12.028 -1.1880 -1.3140  0.3481
12008TIP3    H257440   3.447   0.115  11.913 -0.2901  1.8960 -0.4359
12009TIP3   OH257441   5.618   6.041   3.783  0.3744  0.0995  0.1454
12009TIP3    H157442   5.701   6.080   3.809  1.2272 -1.2930 -0.3647
12009TIP3    H257443   5.575   6.108   3.730 -0.4325  2.1488  3.1545
12010TIP3   OH257444   5.468   0.640  11.384  0.2559  0.0824 -0.0249
12010TIP3    H157445   5.424   0.720  11.355  0.6976  0.0297 -0.8490
12010TIP3    H257446   5.422   0.616  11.465 -1.7016 -0.3506 -1.1975
12011TIP3   OH257447   2.499   4.368  16.719  0.2204  0.6322 -0.0411
12011TIP3    H157448   2.464   4.446  16.763 -1.5238 -1.3379  2.3452
12011TIP3    H257449   2.443   4.297  16.749  2.0293 -1.6491 -1.7498
12012TIP3   OH257450   1.401   5.666  13.259  0.6112 -0.4668  0.1721
12012TIP3    H157451   1.328   5.609  13.281  0.6835 -0.2232  1.0756
12012TIP3    H257452   1.435   5.631  13.176  1.2698 -2.3463  1.1899
12013TIP3   OH257453   3.767   0.912  13.199 -0.0063  0.0433 -0.4042
12013TIP3    H157454   3.778   0.856  13.275 -0.1188 -0.1781 -0.5507
12013TIP3    H257455   3.678   0.894  13.168  0.1920 -0.2016 -0.8514
12014TIP3   OH257456   0.143   6.428   3.671 -0.0801  0.3954 -0.2951
12014TIP3    H157457   0.127   6.346   3.624  3.0369 -0.4603 -0.1049
12014TIP3    H257458   0.185   6.400   3.753  3.2244  2.1267 -1.2147
12015TIP3   OH257459   6.109   1.809   3.464 -0.3098 -0.9697 -0.3615
12015TIP3    H157460   6.171   1.821   3.391 -0.1244 -1.1861 -0.2400
12015TIP3    H257461   6.024   1.831   3.426 -0.2033 -0.9960 -0.6225
12016TIP3   OH257462   6.301   2.753   0.333  0.5039 -0.0273  0.7259
12016TIP3    H157463   6.300   2.658   0.325  0.6491 -0.1881  2.3324
12016TIP3    H257464   6.374   2.771   0.392 -0.5529  0.9633  1.7759
12017TIP3   OH257465   6.364   3.426   0.750  0.4389  0.1913  0.2126
12017TIP3    H157466   6.290   3.445   0.808  1.4301  2.5503  0.7917
12017TIP3    H257467   6.378   3.506   0.700  1.5721 -0.7619 -1.0840
12018TIP3   OH257468   1.993   0.581  12.699 -0.0884  0.3690  0.0133
12018TIP3    H157469   1.961   0.491  12.702  2.6896 -0.6949  0.5040
12018TIP3    H257470   1.939   0.628  12.763  1.0478 -1.9363  2.8863
12019TIP3   OH257471   5.493   1.838  14.522  0.1740 -0.3141 -0.2469
12019TIP3    H157472   5.433   1.807  14.590 -0.3949 -0.6298 -0.8838
12019TIP3    H257473   5.522   1.924  14.553  2.8928 -1.9621  2.2579
12020TIP3   OH257474   0.811   4.251  11.920  0.0895  0.5874 -0.0307
12020TIP3    H157475   0.906   4.251  11.911  0.1507 -0.2340  0.5107
12020TIP3    H257476   0.789   4.342  11.939  0.4262  1.4130 -3.0818
12021TIP3   OH257477   2.539   3.592  11.760  0.0047 -0.1637  0.3117
12021TIP3    H157478   2.584   3.514  11.728  2.6930  1.1417  0.7073
12021TIP3    H257479   2.608   3.656  11.776 -2.1471  2.6782 -0.8661
12022TIP3   OH257480   2.925   4.254   2.917  0.2475 -0.0340 -0.2083
12022TIP3    H157481   2.954   4.299   2.838 -0.1385 -0.0914 -0.3866
12022TIP3    H257482   2.891   4.170   2.886 -0.3669  0.1479 -0.0438
12023TIP3   OH257483   2.396   6.455  15.537 -0.1467  0.2907 -0.2373
12023TIP3    H157484   2.342   6.376  15.535  0.4296 -0.1937  1.6867
12023TIP3    H257485   2.470   6.433  15.594  0.7332  1.7984 -0.7199
12024TIP3   OH257486   2.447   2.660  12.371 -0.1315 -0.0104 -0.1094
12024TIP3    H157487   2.418   2.577  12.408 -0.1055  0.1444  0.2593
12024TIP3    H257488   2.370   2.694  12.325 -0.5926  0.4849  1.0173
12025TIP3   OH257489   3.141   0.547   2.612  0.4592 -0.1948 -0.0477
12025TIP3    H157490   3.181   0.573   2.528 -0.1740 -1.7246 -0.8669
12025TIP3    H257491   3.052   0.521   2.589  1.0017 -2.9819  0.6453
12026TIP3   OH257492   6.084   2.739  14.873 -0.0790  0.2170 -0.6882
12026TIP3    H157493   6.082   2.790  14.954  0.1446  1.5600 -1.4949
12026TIP3    H257494   5.999   2.696  14.869  0.2660 -0.6978  0.7382
12027TIP3   OH257495   5.221   2.411   5.208 -0.0930  0.1617  0.4971
12027TIP3    H157496   5.239   2.462   5.287  1.5843 -0.4673  0.5508
12027TIP3    H257497   5.281   2.336   5.213 -2.1798 -1.6229  0.1952
12028TIP3   OH257498   3.334   3.678   3.044  0.3883  0.1368 -0.2078
12028TIP3    H157499   3.383   3.615   2.990  0.5207  0.3030 -0.2810
12028TIP3    H257500   3.393   3.752   3.054  0.1636  0.3243 -0.2672
12029TIP3   OH257501   1.433   6.283   2.196 -0.5781 -0.2864 -0.6971
12029TIP3    H157502   1.520   6.273   2.234 -0.3928 -0.1677 -1.0810
12029TIP3    H257503   1.376   6.308   2.269 -0.3959 -0.8843 -0.3427
12030TIP3   OH257504   1.247   0.224  12.925  0.9400 -0.2113 -0.4932
12030TIP3    H157505   1.221   0.270  12.845  1.1063  1.9685  0.6438
12030TIP3    H257506   1.165   0.214  12.975  1.0546 -0.3840 -0.3378
12031TIP3   OH257507   6.016   4.309   6.137 -0.0406  0.0828  0.3588
12031TIP3    H157508   6.005   4.217   6.161  1.0353  0.1073  1.0086
12031TIP3    H257509   5.930   4.336   6.105  0.4592 -2.1199 -3.3521
12032TIP3   OH257510   6.527   0.833   3.275 -0.1682 -0.5852 -0.1229
12032TIP3    H157511   6.597   0.851   3.337 -0.4177 -1.6338  0.4909
12032TIP3    H257512   6.512   0.739   3.282 -2.0476 -0.3179  0.2189
12033TIP3   OH257513   3.098   0.557   1.981 -0.0011 -0.1966 -0.4784
12033TIP3    H157514   3.146   0.620   2.034 -1.0856  0.3258 -0.0921
12033TIP3    H257515   3.112   0.473   2.024  2.4910 -0.4843 -1.6987
12034TIP3   OH257516   4.935   5.494  13.025  0.0984  0.0073 -0.4720
12034TIP3    H157517   4.921   5.553  12.951  0.7992  2.5497  1.2461
12034TIP3    H257518   4.864   5.516  13.086 -0.5156 -2.0809 -0.3668
12035TIP3   OH257519   5.211   1.658   4.803 -0.0970  0.8264  0.1567
12035TIP3    H157520   5.255   1.673   4.886  0.2577 -2.4452  0.6742
12035TIP3    H257521   5.282   1.647   4.739 -0.1248 -1.7164  0.4720
12036TIP3   OH257522   1.326   1.030  13.716  0.1068 -0.1938  0.5169
12036TIP3    H157523   1.363   1.035  13.804 -0.2369  0.8478  0.6248
12036TIP3    H257524   1.262   0.959  13.721 -1.5039  1.2307  1.7814
12037TIP3   OH257525   6.671   1.112   2.751  0.0941  0.1996  0.2350
12037TIP3    H157526   6.587   1.150   2.778 -1.5962 -2.0030 -1.5341
12037TIP3    H257527   6.685   1.147   2.663 -0.1944 -1.1928 -0.3915
12038TIP3   OH257528   2.307   1.814  12.164  0.1322 -0.0433 -0.0077
12038TIP3    H157529   2.354   1.876  12.220 -0.7994  0.8952 -0.2116
12038TIP3    H257530   2.237   1.780  12.219 -0.1150  0.0376 -0.2670
12039TIP3   OH257531   4.225   3.527  10.866  0.0097  0.2528  0.1566
12039TIP3    H157532   4.151   3.518  10.807  0.4424  1.3066 -0.5764
12039TIP3    H257533   4.302   3.508  10.812  0.2894 -0.7492  0.8859
12040TIP3   OH257534   0.275   6.810  12.354 -0.0841  0.5200 -0.3857
12040TIP3    H157535   0.255   6.734  12.410  2.4287 -0.9027 -1.2551
12040TIP3    H257536   0.246   6.885  12.405  0.5422 -0.8172  2.1252
12041TIP3   OH257537   5.640   6.423  13.794  0.4072  0.2537  0.2788
12041TIP3    H157538   5.665   6.375  13.873  0.4645  0.3447  0.3153
12041TIP3    H257539   5.552   6.457  13.814 -0.2235 -0.9854 -0.2559
12042TIP3   OH257540   5.961   3.719  13.502  0.5331 -0.2484 -0.1394
12042TIP3    H157541   5.869   3.700  13.520  0.0963  0.8858 -1.0622
12042TIP3    H257542   5.977   3.681  13.416  1.2296 -1.2991  0.4259
12043TIP3   OH257543   6.112   3.837   2.063  0.1578 -0.0634  0.3463
12043TIP3    H157544   6.075   3.816   1.977  1.0602 -0.0266 -0.0687
12043TIP3    H257545   6.081   3.767   2.120 -1.2068  0.4139  0.2192
12044TIP3   OH257546   2.437   2.343   2.797  0.3450 -0.3073 -0.1832
12044TIP3    H157547   2.467   2.282   2.730  0.3014 -1.5347  0.8588
12044TIP3    H257548   2.516   2.366   2.846  0.7604  2.2323 -1.8425
12045TIP3   OH257549   3.729   3.771   2.867 -0.4331  0.2279  0.0467
12045TIP3    H157550   3.718   3.864   2.888 -0.6446  0.4096 -0.8220
12045TIP3    H257551   3.644   3.744   2.833  0.0118  0.0940 -1.0331
12046TIP3   OH257552   3.527   5.320  12.856  0.0582  0.7017 -0.2742
12046TIP3    H157553   3.467   5.250  12.833  2.3048 -0.9346 -1.5748
12046TIP3    H257554   3.565   5.294  12.940  0.2193  0.8284 -0.3053
12047TIP3   OH257555   0.837   6.587  10.786 -0.2789 -0.4131 -0.2701
12047TIP3    H157556   0.878   6.530  10.721  0.0906  1.9953 -2.3079
12047TIP3    H257557   0.762   6.624  10.741  1.4374  3.3411 -0.4291
12048TIP3   OH257558   5.872   1.270  11.707 -0.4197  0.4389 -0.0727
12048TIP3    H157559   5.842   1.198  11.762 -1.2518 -0.1692 -1.2729
12048TIP3    H257560   5.815   1.343  11.731 -1.7175 -0.2057 -1.0488
12049TIP3   OH257561   6.557   2.044  16.714  0.0480 -0.0561 -0.6661
12049TIP3    H157562   6.623   2.007  16.772 -0.1906  1.4406  0.6241
12049TIP3    H257563   6.593   2.129  16.687 -0.6418  0.0621 -1.2506
12050TIP3   OH257564   5.228   5.735   3.563 -0.2469  0.6825 -0.6494
12050TIP3    H157565   5.278   5.816   3.551  1.2426  0.5656  3.1293
12050TIP3    H257566   5.293   5.672   3.593 -1.9684 -0.7883  0.1698
12051TIP3   OH257567   0.666   1.416   4.653  0.0204  0.2682 -0.7669
12051TIP3    H157568   0.699   1.418   4.743 -0.7821  1.7416 -0.4871
12051TIP3    H257569   0.691   1.329   4.621  0.7272 -0.1086  0.7120
12052TIP3   OH257570   4.447   1.683   1.925 -0.4450  0.4727 -0.4884
12052TIP3    H157571   4.439   1.669   2.020 -0.5677 -0.3620 -0.6136
12052TIP3    H257572   4.360   1.661   1.891 -0.0672 -0.3839 -0.9226
12053TIP3   OH257573   5.281   0.440  15.421  0.2637 -0.1566  0.2426
12053TIP3    H157574   5.337   0.517  15.431 -2.3220  1.8237  0.4769
12053TIP3    H257575   5.198   0.465  15.462 -1.3746 -2.2876 -1.5277
12054TIP3   OH257576   1.154   4.050   3.322  0.6302  0.1970  0.1885
12054TIP3    H157577   1.117   4.085   3.241  1.7536 -1.8037 -1.2894
12054TIP3    H257578   1.225   3.992   3.293  0.8362 -0.8887  2.5860
12055TIP3   OH257579   1.779   0.828   3.661 -0.2928  0.1124  0.1538
12055TIP3    H157580   1.690   0.794   3.656 -0.5730  0.9465 -1.3903
12055TIP3    H257581   1.815   0.811   3.574  0.7029  0.6868  0.4427
12056TIP3   OH257582   3.411   3.887   0.230 -0.0577  0.3884  0.6397
12056TIP3    H157583   3.320   3.870   0.257 -0.2616  0.3239 -0.0464
12056TIP3    H257584   3.421   3.834   0.150  0.7539 -0.0175  1.0068
12057TIP3   OH257585   3.142   6.569   5.529  0.4594  0.1051  0.2615
12057TIP3    H157586   3.216   6.508   5.531  1.0804  0.8375  0.8607
12057TIP3    H257587   3.144   6.610   5.616 -1.4699 -0.7905  0.7685
12058TIP3   OH257588   5.498   1.617  11.386 -0.0702  0.2088  0.3039
12058TIP3    H157589   5.476   1.544  11.329  1.7241 -1.0679  1.1249
12058TIP3    H257590   5.415   1.659  11.406 -1.0532 -1.1096 -0.8630
12059TIP3   OH257591   2.697   0.441   3.823  0.1382 -0.2539 -0.8705
12059TIP3    H157592   2.635   0.474   3.889 -0.0670 -0.4938 -0.9452
12059TIP3    H257593   2.672   0.486   3.743  1.4612  1.3585 -0.4374
12060TIP3   OH257594   6.087   1.452  11.966  0.2313 -0.3791 -0.3588
12060TIP3    H157595   6.071   1.547  11.963 -0.3147 -0.4296  0.4348
12060TIP3    H257596   6.083   1.431  12.060 -2.0999 -1.5838 -0.6660
12061TIP3   OH257597   1.502   3.941  13.757 -0.3028 -0.0953 -0.2606
12061TIP3    H157598   1.438   3.991  13.706  1.3133  1.6093 -0.7585
12061TIP3    H257599   1.571   3.919  13.695  0.9105  0.5562  0.7849
12062TIP3   OH257600   2.112   1.029  13.499  0.0363 -0.3701  0.7386
12062TIP3    H157601   2.141   1.110  13.539  1.6239  0.3497 -1.6398
12062TIP3    H257602   2.020   1.044  13.477  0.8258  1.7593 -1.6475
12063TIP3   OH257603   5.339   0.201   6.154  0.2786  0.5390 -0.9155
12063TIP3    H157604   5.289   0.215   6.234 -1.8912  0.5421 -2.1965
12063TIP3    H257605   5.430   0.219   6.179 -0.3942  1.0279  1.3918
12064TIP3   OH257606   1.813   4.431   6.068 -0.1501 -0.0449 -0.7038
12064TIP3    H157607   1.835   4.403   5.979 -0.9814 -0.0897 -0.8969
12064TIP3    H257608   1.803   4.349   6.117 -0.8850 -0.0517 -0.8601
12065TIP3   OH257609   2.864   6.381  13.755 -0.4192 -0.0616 -0.3920
12065TIP3    H157610   2.939   6.393  13.812  0.5372 -2.4535 -1.0200
12065TIP3    H257611   2.805   6.324  13.804 -0.2718 -0.9031 -1.1513
12066TIP3   OH257612   4.874   4.193  13.662  0.0636 -0.8477 -0.2063
12066TIP3    H157613   4.857   4.224  13.751 -1.3206 -0.5090 -0.5666
12066TIP3    H257614   4.893   4.100  13.673 -0.1566 -0.8262  0.4330
12067TIP3   OH257615   6.659   0.018   5.513  0.3470 -0.2380 -0.2718
12067TIP3    H157616   6.649   0.059   5.427 -2.5984  1.8559  0.9065
12067TIP3    H257617   6.606  -0.062   5.508 -1.4298  0.8714  0.0983
12068TIP3   OH257618   5.376   2.028  13.557  0.1712 -0.0983 -0.0286
12068TIP3    H157619   5.440   2.035  13.628  0.0634  0.3109  0.0302
12068TIP3    H257620   5.342   1.939  13.564  0.0205  0.0034  0.5546
12069TIP3   OH257621   4.598   3.399  11.102 -0.2231  0.7555 -0.0454
12069TIP3    H157622   4.587   3.464  11.173  1.6924  1.0310  0.0727
12069TIP3    H257623   4.637   3.449  11.030  2.6682 -0.4259  0.5358
12070TIP3   OH257624   2.121   3.463  16.994 -0.6235  0.4303 -0.2044
12070TIP3    H157625   2.131   3.422  16.909 -3.2537  0.4874 -0.6007
12070TIP3    H257626   2.089   3.393  17.051  1.0378  0.4070  0.7796
12071TIP3   OH257627   0.394   3.692  13.525  0.1352 -0.1162  0.1316
12071TIP3    H157628   0.363   3.778  13.554  0.9819  0.5528 -0.8832
12071TIP3    H257629   0.489   3.697  13.532  0.1581 -1.7720  2.1900
12072TIP3   OH257630   6.549   0.154  12.259  0.0952  0.4381 -0.2503
12072TIP3    H157631   6.593   0.114  12.185  0.1826 -0.0865  0.0823
12072TIP3    H257632   6.575   0.101  12.335 -1.1873  0.0538 -0.0610
12073TIP3   OH257633   3.963   1.731  14.372  0.4816  0.2403 -0.1507
12073TIP3    H157634   4.037   1.774  14.330  0.8004 -0.7572 -0.6350
12073TIP3    H257635   3.886   1.769  14.330  0.7044  1.3840  0.4568
12074TIP3   OH257636   4.943   5.510   1.150  0.0838 -0.0516  0.4237
12074TIP3    H157637   4.980   5.456   1.080 -0.5015  0.1685 -0.0619
12074TIP3    H257638   4.907   5.587   1.104  0.6563  0.6204  1.0718
12075TIP3   OH257639   3.351   1.454   0.224 -0.5079 -0.0480  0.1288
12075TIP3    H157640   3.288   1.424   0.158  0.0934 -0.6557 -0.1948
12075TIP3    H257641   3.298   1.480   0.299 -1.1226 -1.0442  0.0566
12076TIP3   OH257642   2.344   5.686   2.198  0.2122  0.5432 -0.1651
12076TIP3    H157643   2.433   5.670   2.230 -0.0743  3.0372  2.3268
12076TIP3    H257644   2.353   5.692   2.103  2.2962 -1.2331 -0.1657
12077TIP3   OH257645   3.239   3.940   1.444 -0.0356  0.4165  0.0187
12077TIP3    H157646   3.292   3.892   1.507  0.8554  0.4828 -0.6555
12077TIP3    H257647   3.300   4.001   1.402 -0.5402  0.1702 -1.1067
12078TIP3   OH257648   5.641   2.743  11.704  0.1669 -0.0680 -0.2967
12078TIP3    H157649   5.644   2.651  11.731 -0.1222 -0.8257 -2.6061
12078TIP3    H257650   5.717   2.754  11.646  0.7953  1.4634  0.7554
12079TIP3   OH257651   2.642   0.237  15.992 -0.3269 -0.1548  0.4239
12079TIP3    H157652   2.684   0.232  15.906 -0.4377 -0.3578  0.3813
12079TIP3    H257653   2.707   0.281  16.048  0.7288 -2.1448  0.8330
12080TIP3   OH257654   4.211   3.737  14.355 -0.3383 -0.2295 -0.0368
12080TIP3    H157655   4.140   3.744  14.291  0.7609 -0.4783 -1.3206
12080TIP3    H257656   4.178   3.676  14.421 -0.9619 -1.0829 -1.1089
12081TIP3   OH257657   5.716   5.420  16.580  0.4052  0.2099  0.4681
12081TIP3    H157658   5.627   5.399  16.551  0.6274 -0.0670 -0.0160
12081TIP3    H257659   5.744   5.490  16.521  1.1856 -0.9474 -0.5788
12082TIP3   OH257660   2.538   0.178   0.302  0.2997  0.3116  0.3764
12082TIP3    H157661   2.539   0.133   0.217 -1.1264 -1.6501  1.3243
12082TIP3    H257662   2.578   0.115   0.363 -3.4357 -0.6801  2.1019
12083TIP3   OH257663   0.041   6.516  14.752  0.2647 -0.2868  0.0143
12083TIP3    H157664   0.004   6.446  14.806  2.0032  0.0678  1.7752
12083TIP3    H257665  -0.033   6.549  14.701 -1.3684 -0.9275  1.8587
12084TIP3   OH257666   4.197   5.368  12.735  0.3267 -0.6739 -0.5508
12084TIP3    H157667   4.122   5.310  12.743 -1.3925  1.4812 -0.0721
12084TIP3    H257668   4.176   5.426  12.662  1.8589 -0.4509 -0.8620
12085TIP3   OH257669   0.031   3.801  14.145 -0.2152 -0.2247 -0.1804
12085TIP3    H157670   0.004   3.892  14.139  0.3069 -0.0798 -0.3626
12085TIP3    H257671  -0.028   3.755  14.085  0.2416  0.1572 -0.9279
12086TIP3   OH257672   4.670   6.063  12.780  0.9574 -0.9524  0.9193
12086TIP3    H157673   4.632   6.064  12.692  0.4030  0.4794  1.1448
12086TIP3    H257674   4.761   6.039  12.766  1.5821  1.7889 -0.3966
12087TIP3   OH257675   3.357   2.940   1.709 -0.5902 -0.8426  0.3484
12087TIP3    H157676   3.376   2.885   1.634 -0.5839  1.3767 -1.3719
12087TIP3    H257677   3.443   2.969   1.740 -0.6652 -0.3982  0.1434
12088TIP3   OH257678   2.352   6.235   2.329 -0.1909  0.1200 -0.2234
12088TIP3    H157679   2.366   6.174   2.257  0.4352  0.0250 -0.0304
12088TIP3    H257680   2.431   6.289   2.329 -0.6863  0.8599 -0.3213
12089TIP3   OH257681   5.749   4.237  16.101 -0.3267  0.6778 -0.2024
12089TIP3    H157682   5.792   4.223  16.017  1.2617  0.5219  0.6139
12089TIP3    H257683   5.658   4.211  16.085  0.9087 -4.4558 -0.5383
12090TIP3   OH257684   3.636   2.049   2.021  0.0379  0.4007  0.2086
12090TIP3    H157685   3.567   1.995   2.058  0.1998  0.8393  1.1588
12090TIP3    H257686   3.718   2.010   2.053  0.2004  0.4760 -0.1026
12091TIP3   OH257687   3.650   5.361   3.414 -0.2189  0.3285  0.2765
12091TIP3    H157688   3.586   5.431   3.423 -1.7183 -0.8366 -0.6809
12091TIP3    H257689   3.690   5.376   3.328 -1.9630 -0.9935 -0.8599
12092TIP3   OH257690   6.050   4.595   3.473  0.3139 -0.6786  0.2721
12092TIP3    H157691   6.084   4.684   3.463 -2.2811  0.6800  2.3399
12092TIP3    H257692   5.968   4.595   3.425 -1.5696 -0.6515  3.1978
12093TIP3   OH257693   2.045   4.404   0.819  0.1225 -0.4718  0.6646
12093TIP3    H157694   2.092   4.399   0.903  0.9672 -3.0317  0.1356
12093TIP3    H257695   1.953   4.393   0.843  0.4293 -2.1652  1.2552
12094TIP3   OH257696   0.563   6.694   6.100  0.1317 -0.3078 -0.6481
12094TIP3    H157697   0.477   6.671   6.067 -0.5648 -3.1739  2.4966
12094TIP3    H257698   0.609   6.610   6.108  2.1220  0.7980  0.4613
12095TIP3   OH257699   2.168   3.747  12.510  0.1739  0.5679  0.0409
12095TIP3    H157700   2.136   3.816  12.453 -0.4923  0.7767  0.6451
12095TIP3    H257701   2.193   3.792  12.590  0.8090  0.2453  0.0245
12096TIP3   OH257702   4.256   3.258  15.221  0.1593 -0.0626 -0.5446
12096TIP3    H157703   4.163   3.278  15.232  0.0115 -1.4482  1.1434
12096TIP3    H257704   4.276   3.286  15.131 -1.7572  0.6734 -0.7960
12097TIP3   OH257705   3.834   4.145  10.388  0.1538  0.3997 -0.1711
12097TIP3    H157706   3.924   4.117  10.402  0.9770  2.9719  0.1568
12097TIP3    H257707   3.809   4.190  10.469 -0.5145  1.8780 -1.1496
12098TIP3   OH257708   1.733   5.362  11.701 -0.2413  0.6636  0.0635
12098TIP3    H157709   1.702   5.286  11.751  0.5338  0.2869 -0.0196
12098TIP3    H257710   1.656   5.419  11.694 -0.6677  0.1746  0.6638
12099TIP3   OH257711   1.944   5.067  16.155  0.5576  0.2976 -0.1155
12099TIP3    H157712   1.929   5.152  16.195  1.1128 -0.4009  1.6746
12099TIP3    H257713   1.892   5.006  16.207  2.5567 -0.8791  0.6318
12100TIP3   OH257714   4.544   0.046   5.061  0.5019  0.5034  0.0402
12100TIP3    H157715   4.631   0.064   5.024  0.1621  0.6768 -0.6957
12100TIP3    H257716   4.486   0.045   4.985 -0.0454 -0.2247  0.4621
12101TIP3   OH257717   6.209   4.179   5.976 -0.2890  0.7836 -0.2477
12101TIP3    H157718   6.162   4.239   6.034  0.6167  0.9860  0.3082
12101TIP3    H257719   6.294   4.222   5.961  0.4333 -0.4048  0.2748
12102TIP3   OH257720   4.632   5.434  12.411  0.4638 -0.4249 -0.5398
12102TIP3    H157721   4.570   5.364  12.392  0.2536  0.1336 -2.0810
12102TIP3    H257722   4.589   5.513  12.379  1.3972  0.1609 -0.3842
12103TIP3   OH257723   2.590   1.180   5.673  0.1199 -0.0661  0.3218
12103TIP3    H157724   2.520   1.218   5.619  1.2692  1.6373 -0.0760
12103TIP3    H257725   2.634   1.118   5.615 -0.5777 -0.5832  0.3335
12104TIP3   OH257726   6.382   4.480   2.372 -0.4326  0.3192 -0.0802
12104TIP3    H157727   6.329   4.545   2.418 -1.7418  0.2579 -1.4109
12104TIP3    H257728   6.338   4.397   2.390 -0.6394  0.2292 -0.9242
12105TIP3   OH257729   2.680   2.724   0.651  0.1517 -0.4349  0.5992
12105TIP3    H157730   2.679   2.806   0.700  0.5014 -0.1863  0.2001
12105TIP3    H257731   2.616   2.668   0.695 -1.0172  0.4960  0.1105
12106TIP3   OH257732   3.258   5.130   1.872 -0.1903  1.1967 -0.1123
12106TIP3    H157733   3.242   5.175   1.955  0.2145  0.0497  0.6235
12106TIP3    H257734   3.186   5.068   1.864  0.6958  0.0515  0.3170
12107TIP3   OH257735   5.911   1.143  16.847  0.3790  0.0318 -0.4915
12107TIP3    H157736   5.984   1.137  16.785  0.8657 -1.3994  0.1710
12107TIP3    H257737   5.864   1.061  16.837  1.6391 -1.1492  2.3948
12108TIP3   OH257738   0.719   5.280   3.166 -0.9107  0.0200  0.1373
12108TIP3    H157739   0.658   5.341   3.207 -1.9945 -0.8220 -0.1704
12108TIP3    H257740   0.784   5.261   3.234 -0.6840  1.3129  0.3069
12109TIP3   OH257741   6.682   3.308   4.920  0.0110 -0.0978  0.4792
12109TIP3    H157742   6.645   3.378   4.868  1.1265  0.8552  0.9339
12109TIP3    H257743   6.698   3.347   5.006  2.5202 -0.2921  0.1631
12110TIP3   OH257744   1.280   4.591  10.581  0.0426 -0.3193  1.2509
12110TIP3    H157745   1.277   4.518  10.642  1.2124 -0.4797  1.1326
12110TIP3    H257746   1.353   4.645  10.611  0.8776 -0.5808 -0.1821
12111TIP3   OH257747   6.557   1.017  15.796  0.2173 -0.1491  0.8402
12111TIP3    H157748   6.585   0.928  15.774  0.2828  0.0326  0.1639
12111TIP3    H257749   6.493   1.005  15.866 -1.9110 -0.9911 -1.1206
12112TIP3   OH257750   6.763   5.616  12.673 -0.2081 -0.0981 -0.5240
12112TIP3    H157751   6.785   5.573  12.591  1.6051 -2.1730  0.9165
12112TIP3    H257752   6.696   5.560  12.712 -1.2532  1.0164 -0.6745
12113TIP3   OH257753   3.597   3.107   2.571  0.0217  0.1250  0.1315
12113TIP3    H157754   3.687   3.096   2.603  1.1042  0.7432 -2.4553
12113TIP3    H257755   3.587   3.041   2.503 -1.4520  0.1839  0.2452
12114TIP3   OH257756   0.921   6.482   4.689  0.0402 -0.0801  0.2302
12114TIP3    H157757   1.011   6.449   4.689 -0.2553 -0.9396  1.2114
12114TIP3    H257758   0.931   6.577   4.697  0.8640 -0.1087 -0.2978
12115TIP3   OH257759   0.041   4.092  14.726 -0.2669  0.3281  0.0215
12115TIP3    H157760  -0.003   4.098  14.641 -0.1353 -1.4463 -0.2094
12115TIP3    H257761   0.110   4.158  14.722 -1.6497  1.8138 -0.3630
12116TIP3   OH257762   1.339   0.884   4.987  0.5949  0.0302  0.3469
12116TIP3    H157763   1.293   0.812   4.942  1.7912  0.2776 -1.3582
12116TIP3    H257764   1.280   0.958   4.980  0.2424 -0.2550  0.2640
12117TIP3   OH257765   6.667   0.800   1.774  0.3572  0.1969 -0.0595
12117TIP3    H157766   6.701   0.859   1.706  0.0177  0.1727 -0.2533
12117TIP3    H257767   6.575   0.788   1.751 -0.2810  1.7338  1.4900
12118TIP3   OH257768   4.672   1.123  15.611  0.3614  0.2448  0.1809
12118TIP3    H157769   4.764   1.107  15.631  0.2335 -0.7387  0.0552
12118TIP3    H257770   4.624   1.075  15.679 -0.0567 -0.2283 -0.4396
12119TIP3   OH257771   1.866   2.261   4.757  0.0869  0.0243 -0.2545
12119TIP3    H157772   1.802   2.256   4.687 -0.5360  1.4165  0.1789
12119TIP3    H257773   1.839   2.337   4.809  1.5985  0.1396  0.4222
12120TIP3   OH257774   1.690   2.810   2.104 -0.1324  0.1276  0.0248
12120TIP3    H157775   1.759   2.875   2.101 -0.0831  0.0377 -1.8474
12120TIP3    H257776   1.639   2.825   2.024 -0.6983 -1.4885  0.0439
12121TIP3   OH257777   0.066   0.813   0.580  0.1456  0.1132  0.6230
12121TIP3    H157778   0.065   0.907   0.598  1.4194  0.1159  0.8237
12121TIP3    H257779  -0.025   0.787   0.583 -0.2353  1.3472  0.5598
12122TIP3   OH257780   1.885   2.363  15.854 -0.6611 -0.1324  0.0441
12122TIP3    H157781   1.930   2.361  15.769 -0.2192  3.9194 -0.0326
12122TIP3    H257782   1.792   2.368  15.832 -0.9122 -3.1813  0.0445
12123TIP3   OH257783   2.644   1.132  14.595 -0.1390 -0.0175 -0.4331
12123TIP3    H157784   2.637   1.133  14.690  0.5611  1.0143 -0.3782
12123TIP3    H257785   2.737   1.118  14.577 -0.2855 -0.3497 -0.9726
12124TIP3   OH257786   4.808   3.053  14.320  0.2009 -0.0387 -0.2168
12124TIP3    H157787   4.780   3.050  14.228 -0.6848 -1.9331  0.0702
12124TIP3    H257788   4.889   3.002  14.321 -0.8337 -1.7487  0.3440
12125TIP3   OH257789   1.262   6.330  12.592 -0.1384 -0.8440  0.4077
12125TIP3    H157790   1.199   6.346  12.661  0.4130 -1.1334  0.9890
12125TIP3    H257791   1.255   6.236  12.574 -0.8393 -0.6353 -0.4951
12126TIP3   OH257792   4.004   5.658   5.654  0.4801  0.3488 -0.7246
12126TIP3    H157793   3.946   5.585   5.633  0.9800 -0.3784  0.3690
12126TIP3    H257794   4.019   5.651   5.748  3.6285 -0.4606 -1.1790
12127TIP3   OH257795   4.898   0.476   3.491  0.3797 -0.4392 -0.1494
12127TIP3    H157796   4.804   0.495   3.487  0.6867  1.5768  0.8947
12127TIP3    H257797   4.931   0.496   3.404  0.3471  2.2646  0.3736
12128TIP3   OH257798   3.394   6.306   1.125 -0.0442 -0.0679  0.0835
12128TIP3    H157799   3.376   6.214   1.145 -0.6868  0.0543  0.0998
12128TIP3    H257800   3.446   6.337   1.199  1.0682 -0.6824 -0.4161
12129TIP3   OH257801   5.809   2.871  11.908 -0.5201 -0.2347 -0.0164
12129TIP3    H157802   5.895   2.831  11.918 -0.5169 -0.4609 -0.8578
12129TIP3    H257803   5.752   2.799  11.881 -0.2882  0.4778 -2.6076
12130TIP3   OH257804   1.935   5.058   1.799  0.1698 -0.7535  0.1786
12130TIP3    H157805   1.969   4.969   1.792 -0.4107 -0.9504 -0.2224
12130TIP3    H257806   2.013   5.113   1.808  0.6166 -1.1719 -0.9061
12131TIP3   OH257807   2.799   4.362  10.779 -0.3226  0.1320  0.2545
12131TIP3    H157808   2.775   4.331  10.692 -0.0137  2.4179 -0.7315
12131TIP3    H257809   2.727   4.334  10.836 -0.7917 -0.9310 -0.8411
12132TIP3   OH257810   4.226   1.304  16.752  0.5956 -0.7977 -0.7522
12132TIP3    H157811   4.255   1.289  16.662  0.0411 -0.9698 -0.9035
12132TIP3    H257812   4.131   1.310  16.746  0.6498  1.1631 -0.4658
12133TIP3   OH257813   4.124   1.005  12.235  0.0280 -0.4303 -0.0245
12133TIP3    H157814   4.169   0.936  12.188 -1.6871 -1.1802 -0.6251
12133TIP3    H257815   4.112   0.970  12.323  1.4974  0.2016  0.4694
12134TIP3   OH257816   0.544   6.745   0.685 -0.1154  0.2042 -0.3169
12134TIP3    H157817   0.490   6.810   0.731 -0.5777 -1.2412  1.3158
12134TIP3    H257818   0.481   6.695   0.632  0.1136  0.5524 -0.9227
12135TIP3   OH257819   2.999   0.533   6.011  0.3157  0.1575  0.2247
12135TIP3    H157820   3.056   0.609   6.014 -0.4339  0.7191  0.6330
12135TIP3    H257821   3.057   0.460   5.989  0.7674  1.0882 -1.8697
12136TIP3   OH257822   5.255   0.610  10.736  0.2522 -0.5050  0.1021
12136TIP3    H157823   5.304   0.626  10.816 -1.2656 -0.8658  1.1315
12136TIP3    H257824   5.306   0.653  10.668  1.4601 -0.0160  1.2809
12137TIP3   OH257825   1.993   3.540  12.392  0.2904  0.5883  0.5052
12137TIP3    H157826   2.066   3.505  12.341  0.2849  0.0862  0.8283
12137TIP3    H257827   2.031   3.610  12.445  0.1591  1.5944 -0.6837
12138TIP3   OH257828   2.766   3.450   0.186 -0.2407  0.3287 -0.2309
12138TIP3    H157829   2.723   3.534   0.206 -0.6244 -0.0287  0.4951
12138TIP3    H257830   2.765   3.445   0.091  1.6102  2.0875 -0.4042
12139TIP3   OH257831   6.553   3.280  15.834 -0.2364 -0.3640 -0.2437
12139TIP3    H157832   6.573   3.322  15.750 -0.6123 -2.0203 -1.2160
12139TIP3    H257833   6.486   3.336  15.874 -1.3614 -0.4584 -1.8818
12140TIP3   OH257834   3.814   4.204  11.898 -0.1707  0.3256 -0.5700
12140TIP3    H157835   3.903   4.191  11.930 -1.1342  2.1157  3.4377
12140TIP3    H257836   3.825   4.253  11.816  2.5291  0.8972  0.0312
12141TIP3   OH257837   1.690   3.982  15.286 -0.1928 -0.0642 -0.2945
12141TIP3    H157838   1.701   4.075  15.267 -0.0269 -0.0573 -0.1675
12141TIP3    H257839   1.609   3.958  15.242  1.2608 -0.5762 -2.9486
12142TIP3   OH257840   6.677   4.174   0.111  0.3209 -0.5170  0.2803
12142TIP3    H157841   6.751   4.225   0.144  0.3485 -0.0292 -0.5266
12142TIP3    H257842   6.671   4.100   0.171  2.5011 -1.4555 -0.5837
12143TIP3   OH257843   0.284   4.896   4.716  0.0682  0.5322  0.5064
12143TIP3    H157844   0.333   4.977   4.733  1.5365 -0.2755  0.2774
12143TIP3    H257845   0.334   4.828   4.759 -0.6834 -0.3880 -0.0292
12144TIP3   OH257846   2.347   0.088  11.117  0.2069 -0.4574  0.2806
12144TIP3    H157847   2.330   0.168  11.067 -0.5135  0.4982  1.9863
12144TIP3    H257848   2.367   0.022  11.050  1.2033  1.2063 -1.1694
12145TIP3   OH257849   4.460   6.068  15.384  0.2463 -0.2193 -0.1822
12145TIP3    H157850   4.461   6.135  15.315 -0.9902  1.0856  0.9955
12145TIP3    H257851   4.388   6.094  15.441 -0.2503 -2.5737  0.3597
12146TIP3   OH257852   0.335   1.247   5.027  0.1534 -0.0254  0.2726
12146TIP3    H157853   0.324   1.336   4.994 -1.1140  0.2275  1.2835
12146TIP3    H257854   0.359   1.195   4.951  0.9548  1.1748 -0.3289
12147TIP3   OH257855   0.655   1.569  14.932  0.2662 -0.2101 -0.0121
12147TIP3    H157856   0.670   1.571  15.027  1.4294  2.8719 -0.1441
12147TIP3    H257857   0.561   1.554  14.923  0.0685 -0.1794  1.6564
12148TIP3   OH257858   5.584   5.291   6.003 -0.6153  0.1535  0.1532
12148TIP3    H157859   5.644   5.217   6.015 -0.8896 -0.2636 -0.9208
12148TIP3    H257860   5.497   5.254   6.021 -0.8828 -0.1259 -1.5246
12149TIP3   OH257861   3.240   1.959   1.465  0.1288 -0.5514 -0.4955
12149TIP3    H157862   3.300   1.969   1.390  0.1230 -2.8639 -0.9106
12149TIP3    H257863   3.176   1.894   1.435 -1.2051  0.1183  0.7805
12150TIP3   OH257864   2.144   0.393   3.800 -0.5511  0.1259  0.2707
12150TIP3    H157865   2.130   0.308   3.758  0.1736  1.0054 -1.9003
12150TIP3    H257866   2.127   0.377   3.893 -0.6620 -2.3215 -0.1020
12151TIP3   OH257867   0.432   5.143  13.801 -0.3528 -0.4980 -0.2305
12151TIP3    H157868   0.471   5.122  13.885 -3.5889 -0.4954  1.4193
12151TIP3    H257869   0.442   5.063  13.749 -0.0471 -1.1790  0.8613
12152TIP3   OH257870   3.849   6.007   1.842  0.0335  0.1052 -0.3124
12152TIP3    H157871   3.870   6.099   1.825  0.9700  0.0378  0.3948
12152TIP3    H257872   3.761   6.009   1.879 -1.3610  0.3964 -3.3134
12153TIP3   OH257873   1.586   4.526   3.528 -0.9558 -0.2676 -0.3924
12153TIP3    H157874   1.589   4.528   3.623  0.0028 -0.6205 -0.3992
12153TIP3    H257875   1.517   4.588   3.504 -1.6484 -0.6708  0.5453
12154TIP3   OH257876   3.804   1.112  15.713 -0.1155 -0.1189  1.0038
12154TIP3    H157877   3.849   1.168  15.776  1.0099  0.1463  0.0033
12154TIP3    H257878   3.873   1.056  15.677 -0.9767 -1.2163  0.9909
12155TIP3   OH257879   1.042   0.510  12.804  0.8278 -0.3501 -0.5422
12155TIP3    H157880   1.131   0.528  12.834  0.3024  2.8256 -0.5371
12155TIP3    H257881   1.035   0.555  12.720 -1.6345  2.3347  0.9091
12156TIP3   OH257882   6.689   5.624  14.620 -0.0252 -0.2425  0.3607
12156TIP3    H157883   6.722   5.546  14.666  1.2429 -0.3866 -0.7504
12156TIP3    H257884   6.620   5.590  14.562  0.3286 -0.4981  0.0862
12157TIP3   OH257885   6.050   1.789   6.129  0.4393  0.4363  0.3624
12157TIP3    H157886   5.969   1.742   6.147  1.7319 -1.6725  1.0785
12157TIP3    H257887   6.097   1.788   6.212  1.5766  0.8563 -0.2584
12158TIP3   OH257888   1.353   4.708  14.172 -0.1284 -0.6196  0.4299
12158TIP3    H157889   1.431   4.743  14.214 -0.1828  1.6971 -1.1970
12158TIP3    H257890   1.285   4.773  14.191 -0.8180 -0.9298 -0.8985
12159TIP3   OH257891   6.361   1.317   5.815 -0.3301 -0.5101  0.2855
12159TIP3    H157892   6.298   1.372   5.861 -0.0653  0.6242 -0.6437
12159TIP3    H257893   6.445   1.336   5.858 -0.1329  0.3222 -0.4399
12160TIP3   OH257894   4.463   0.330  16.913 -0.5743  0.0446 -0.3332
12160TIP3    H157895   4.387   0.297  16.960 -0.5292  1.7959  1.1268
12160TIP3    H257896   4.462   0.425  16.930 -0.5376  0.8469 -3.9219
12161TIP3   OH257897   0.429   0.545  15.270 -0.2575 -0.5191 -0.6277
12161TIP3    H157898   0.410   0.452  15.284 -1.4094 -0.1914  0.1984
12161TIP3    H257899   0.342   0.586  15.260 -0.0034  0.9113  2.1138
12162TIP3   OH257900   0.201   0.900  11.442 -0.0367  0.4254 -0.0000
12162TIP3    H157901   0.186   0.806  11.456  2.3038 -0.2748 -1.4212
12162TIP3    H257902   0.160   0.918  11.357 -0.1952  0.6163  0.1159
12163TIP3   OH257903   5.340   3.754  15.640  0.3652 -0.0201  0.0656
12163TIP3    H157904   5.266   3.717  15.688  1.7467 -1.2623  1.3628
12163TIP3    H257905   5.374   3.680  15.589  0.5467  0.6102 -0.7362
12164TIP3   OH257906   3.918   4.629   5.717 -0.1769 -0.1721 -0.7087
12164TIP3    H157907   3.893   4.627   5.809  0.2826 -0.4696 -0.5893
12164TIP3    H257908   3.876   4.708   5.683  1.1948  1.0067  0.1989
12165TIP3   OH257909   1.775   2.643  16.883 -0.7205  0.2450  0.3211
12165TIP3    H157910   1.853   2.689  16.851  0.0963 -0.5945  1.0289
12165TIP3    H257911   1.807   2.590  16.956 -1.8016 -0.7367  0.1150
12166TIP3   OH257912   5.473   5.500  12.156 -0.2803  0.2917  0.1078
12166TIP3    H157913   5.416   5.576  12.145  0.0934  0.6024  0.2989
12166TIP3    H257914   5.421   5.438  12.206 -0.7061  0.2886 -0.3300
12167TIP3   OH257915   3.137   3.087   3.031  0.1317 -0.7088 -0.2396
12167TIP3    H157916   3.087   3.005   3.036 -0.9371 -0.0105  1.0628
12167TIP3    H257917   3.155   3.098   2.938 -2.9790 -0.5481 -0.9339
12168TIP3   OH257918   1.429   2.836  17.134  0.4677 -0.3055  0.2112
12168TIP3    H157919   1.501   2.820  17.195  1.5400  1.7001 -0.4337
12168TIP3    H257920   1.456   2.914  17.085 -1.8879  0.1652 -0.4695
12169TIP3   OH257921   6.644   6.032  13.454 -0.2136 -0.4919  0.2676
12169TIP3    H157922   6.716   6.019  13.392  0.9926 -0.5224  1.6341
12169TIP3    H257923   6.616   5.944  13.478 -0.1260 -0.4835  0.3991
12170TIP3   OH257924   1.184   3.709   5.259  0.4772  0.1315  0.6685
12170TIP3    H157925   1.110   3.714   5.198  1.7583 -0.4346 -1.0006
12170TIP3    H257926   1.179   3.620   5.294  0.2637  0.1531  0.6973
12171TIP3   OH257927   4.503   3.639  11.612  0.4557  0.2918 -0.2681
12171TIP3    H157928   4.565   3.569  11.631  1.2557  1.3772  1.3070
12171TIP3    H257929   4.417   3.596  11.612  0.9137 -0.6642  0.8180
12172TIP3   OH257930   2.898   6.702  13.119 -0.1054 -0.3600 -0.0184
12172TIP3    H157931   2.962   6.640  13.151 -0.0736  0.6129  1.9488
12172TIP3    H257932   2.935   6.735  13.036  0.7030 -1.6212 -0.1795
12173TIP3   OH257933   4.334   5.266   1.795 -0.5220 -0.4352  0.0173
12173TIP3    H157934   4.410   5.209   1.785  1.1044  1.6874 -0.5043
12173TIP3    H257935   4.356   5.324   1.868 -1.4081  0.5348 -0.4455
12174TIP3   OH257936   1.510   1.976   1.243  0.0428  0.1243 -0.0414
12174TIP3    H157937   1.501   1.885   1.271  2.6783  0.1224  1.0264
12174TIP3    H257938   1.529   1.970   1.149 -0.2566 -0.3881 -0.0754
12175TIP3   OH257939   0.001   4.182  15.418  0.4104 -0.4405  0.0085
12175TIP3    H157940   0.054   4.209  15.342  1.8987  1.0113  1.4605
12175TIP3    H257941   0.044   4.103  15.450  0.1478 -0.7113 -0.3061
12176TIP3   OH257942   1.619   5.718  15.779  0.3615  0.6667 -0.1943
12176TIP3    H157943   1.526   5.738  15.788  0.3267  0.1385  0.6662
12176TIP3    H257944   1.644   5.678  15.862  1.6833  2.0328  0.1062
12177TIP3   OH257945   5.909   6.278  15.763 -0.0453  0.3165 -0.2558
12177TIP3    H157946   5.920   6.362  15.718  0.2784  0.2494 -0.3043
12177TIP3    H257947   5.821   6.250  15.739 -0.1632  0.6566 -0.2165
12178TIP3   OH257948   1.742   5.053   0.129  0.0511  0.0253  0.1103
12178TIP3    H157949   1.702   5.121   0.183  0.2365  0.8766 -0.7832
12178TIP3    H257950   1.825   5.092   0.100  0.5171 -0.8827  0.1983
12179TIP3   OH257951   0.032   1.301   0.816 -0.1975 -0.3626 -0.6056
12179TIP3    H157952   0.106   1.252   0.853 -1.2299 -0.5447  1.3801
12179TIP3    H257953  -0.008   1.241   0.754  1.3874 -0.1927 -1.8519
12180TIP3   OH257954   0.492   2.060  11.607  0.0703 -0.4128  0.1779
12180TIP3    H157955   0.567   2.029  11.557  1.6088  0.9203  1.5246
12180TIP3    H257956   0.520   2.053  11.698 -0.8068  1.5397  0.6510
12181TIP3   OH257957   5.933   0.496  12.741  0.1085  0.0347 -0.1106
12181TIP3    H157958   5.851   0.457  12.770  0.5714  0.0696  1.3521
12181TIP3    H257959   5.960   0.443  12.665 -1.2997  0.1035 -0.6824
12182TIP3   OH257960   2.529   6.656   4.711  0.4805  0.0006  0.6208
12182TIP3    H157961   2.567   6.569   4.700  1.2107  0.3258  0.4752
12182TIP3    H257962   2.605   6.714   4.718  0.0095  0.7143 -0.0007
12183TIP3   OH257963   1.868   0.552  15.510  0.1705  0.2804  0.2073
12183TIP3    H157964   1.885   0.460  15.492  1.2541  0.4507  0.3368
12183TIP3    H257965   1.854   0.556  15.604  0.9078  0.3567  0.3203
12184TIP3   OH257966   6.157   6.097   1.731 -0.7042 -0.3899 -0.6594
12184TIP3    H157967   6.132   6.156   1.660 -0.6932 -0.0413 -0.3737
12184TIP3    H257968   6.153   6.150   1.810  0.6520 -0.3963 -0.5594
12185TIP3   OH257969   5.348   4.663   2.590 -0.0658  0.1658  0.1536
12185TIP3    H157970   5.258   4.633   2.574 -0.6174  1.6976  0.2293
12185TIP3    H257971   5.384   4.676   2.503 -0.4210  0.9449  0.1153
12186TIP3   OH257972   4.965   4.171  15.715 -0.1619  0.0904 -0.1823
12186TIP3    H157973   4.894   4.206  15.663 -0.3859  2.5891  1.6262
12186TIP3    H257974   4.922   4.119  15.783 -0.2862  1.3743  0.7466
12187TIP3   OH257975   2.967   5.310   6.236  0.5514 -0.2459 -0.1555
12187TIP3    H157976   3.062   5.315   6.235  0.6859 -2.1047 -1.7852
12187TIP3    H257977   2.938   5.401   6.247  2.5246  0.7624 -2.4739
12188TIP3   OH257978   2.490   2.159   1.888  0.0466 -0.2791  0.1390
12188TIP3    H157979   2.524   2.081   1.845  1.3277  1.7634 -2.8333
12188TIP3    H257980   2.535   2.232   1.845 -3.3143  2.2832  0.6040
12189TIP3   OH257981   2.693   4.655   4.072 -0.2989  0.3766 -0.4611
12189TIP3    H157982   2.660   4.713   4.005 -1.2810 -0.1167 -0.4216
12189TIP3    H257983   2.772   4.698   4.106 -1.5333  2.1662  0.2483
12190TIP3   OH257984   0.389   1.307  14.351 -0.2452 -0.3161  0.2668
12190TIP3    H157985   0.390   1.399  14.377  1.5450 -0.7016  1.7043
12190TIP3    H257986   0.428   1.261  14.424 -0.0061 -2.1047 -0.9365
12191TIP3   OH257987   3.560   3.914   4.079 -0.0091  0.4991 -0.6365
12191TIP3    H157988   3.541   3.976   4.010  1.2222  1.6271 -0.0206
12191TIP3    H257989   3.544   3.962   4.160  1.0275  0.0701 -0.1484
12192TIP3   OH257990   4.510   1.410  11.018 -0.0105 -0.2128 -0.6880
12192TIP3    H157991   4.452   1.377  10.949  0.2168  0.5947 -1.2755
12192TIP3    H257992   4.466   1.387  11.100 -1.8230  1.5152 -1.1020
12193TIP3   OH257993   0.849   2.606  12.240 -0.2273 -1.1981  0.4053
12193TIP3    H157994   0.941   2.592  12.265 -0.2385 -1.6122  0.2088
12193TIP3    H257995   0.826   2.688  12.283  0.5619 -0.5177 -0.4127
12194TIP3   OH257996   6.413   3.578   2.367  0.2231  0.2458  0.5692
12194TIP3    H157997   6.412   3.668   2.336  1.0792  0.1314  0.1856
12194TIP3    H257998   6.349   3.576   2.438 -0.7055  0.8594 -0.2227
12195TIP3   OH257999   1.777   0.605   1.297  0.3319  0.4841  0.4608
12195TIP3    H158000   1.717   0.636   1.364  2.2776 -0.2495  2.6569
12195TIP3    H258001   1.817   0.684   1.261 -0.1193  0.8355  0.7196
12196TIP3   OH258002   3.697   5.702  16.162  0.5872 -0.1097  0.2729
12196TIP3    H158003   3.741   5.735  16.084  1.3075  1.7707  1.4097
12196TIP3    H258004   3.756   5.635  16.197 -0.6640 -2.4663 -1.7951
12197TIP3   OH258005   4.996   4.705  13.729 -0.3119 -0.5564  0.3373
12197TIP3    H158006   4.930   4.708  13.799 -1.1861 -1.7204 -0.4067
12197TIP3    H258007   4.990   4.790  13.686 -0.7136 -0.3398  0.8131
12198TIP3   OH258008   3.971   5.486  12.281  0.1162 -0.1046 -0.0630
12198TIP3    H158009   3.913   5.551  12.240 -1.3366 -1.0468  0.4113
12198TIP3    H258010   3.984   5.419  12.214 -0.0658 -0.3162  0.1085
12199TIP3   OH258011   0.160   2.697   2.691 -0.2499  0.3352 -0.4282
12199TIP3    H158012   0.199   2.616   2.658 -0.3503  0.4085 -0.7228
12199TIP3    H258013   0.132   2.745   2.613  0.0201  0.7611 -0.2707
12200TIP3   OH258014   2.154   5.493  16.444 -0.4393 -0.1743 -0.2937
12200TIP3    H158015   2.175   5.548  16.520  1.3533 -0.0443 -0.8425
12200TIP3    H258016   2.093   5.546  16.393  0.4981  0.9260 -0.3173
12201TIP3   OH258017   1.577   4.758   0.327 -0.0385 -0.3356  0.0593
12201TIP3    H158018   1.528   4.712   0.259 -0.8511  1.0307 -0.3254
12201TIP3    H258019   1.666   4.767   0.291 -0.6634  1.1404 -1.2702
12202TIP3   OH258020   3.431   2.116   2.507  0.2176 -0.5132  0.8442
12202TIP3    H158021   3.480   2.108   2.589  1.2914 -0.3123  0.2375
12202TIP3    H258022   3.341   2.130   2.535  0.2478 -2.2847  1.9912
12203TIP3   OH258023   1.501   5.197   2.673 -0.3441 -0.0434  0.1594
12203TIP3    H158024   1.439   5.124   2.665 -0.8796  0.5656 -2.2569
12203TIP3    H258025   1.445   5.275   2.673  0.3420  0.4550 -0.3860
12204TIP3   OH258026   5.440   4.756  13.229 -0.4688 -0.0460 -0.1530
12204TIP3    H158027   5.442   4.852  13.233  0.9512 -0.0844  0.6394
12204TIP3    H258028   5.377   4.736  13.160 -0.0030  1.4821 -1.0489
12205TIP3   OH258029   4.397   1.678   5.275  0.3018 -0.5227  0.3625
12205TIP3    H158030   4.444   1.726   5.206 -0.9179  0.5937  0.2637
12205TIP3    H258031   4.378   1.744   5.341 -3.1721 -0.2776 -0.6616
12206TIP3   OH258032   5.928   6.397   3.516 -0.2245 -0.4107 -0.1817
12206TIP3    H158033   5.963   6.482   3.487  1.3608 -1.4933 -1.6905
12206TIP3    H258034   5.915   6.407   3.610  1.0550  1.1427 -0.1236
12207TIP3   OH258035   5.610   1.910   1.186  0.3630 -0.3131  0.2124
12207TIP3    H158036   5.689   1.856   1.197  0.6391 -0.4072 -1.8564
12207TIP3    H258037   5.541   1.847   1.164  0.2008 -0.0298 -0.0913
12208TIP3   OH258038   6.161   2.974  11.360 -0.3637  0.2145 -0.4032
12208TIP3    H158039   6.195   2.885  11.351 -1.0022  0.0451 -1.3448
12208TIP3    H258040   6.212   3.012  11.431 -1.0847 -1.3794  1.0429
12209TIP3   OH258041   5.006   6.763  15.348  0.0150  0.4377 -0.6317
12209TIP3    H158042   5.030   6.745  15.258  1.4214 -0.2910 -0.1313
12209TIP3    H258043   5.036   6.853  15.364  1.4398 -0.0612 -0.3643
12210TIP3   OH258044   0.479   6.108   4.814  0.4511  0.8374  0.0886
12210TIP3    H158045   0.389   6.129   4.788  0.6657  1.1424 -0.4343
12210TIP3    H258046   0.532   6.175   4.771  0.8866  0.9503  0.7865
12211TIP3   OH258047   0.194   4.416   0.842  0.6010 -0.5675 -0.0915
12211TIP3    H158048   0.183   4.333   0.796  2.8893 -0.4002 -1.1017
12211TIP3    H258049   0.286   4.438   0.830  0.1901  1.8797  0.5836
12212TIP3   OH258050   3.989   2.688   5.332  0.5417 -0.0270 -0.2856
12212TIP3    H158051   3.998   2.749   5.406  0.3579  0.8523 -0.9761
12212TIP3    H258052   3.957   2.607   5.372 -0.4253  0.7105  0.4834
12213TIP3   OH258053   0.421   4.933  16.015 -0.0573 -0.6320 -0.5585
12213TIP3    H158054   0.381   4.943  15.929  0.4713  0.1881 -0.7169
12213TIP3    H258055   0.446   5.021  16.041  0.2841 -0.9386  0.2003
12214TIP3   OH258056   0.509   2.460  13.355 -0.1417 -0.2840  0.3392
12214TIP3    H158057   0.468   2.529  13.302 -2.4274 -2.2921 -0.7335
12214TIP3    H258058   0.460   2.462  13.438  0.2333 -0.2130  0.5614
12215TIP3   OH258059   4.033   5.487  11.137 -0.5642 -0.1562 -0.2790
12215TIP3    H158060   4.095   5.560  11.138 -0.3945 -0.2898  1.4714
12215TIP3    H258061   4.081   5.415  11.177 -1.7813 -0.3005  0.9797
12216TIP3   OH258062   5.063   4.521   4.186  0.3836 -0.5400 -0.4769
12216TIP3    H158063   4.969   4.513   4.205  0.5360  1.3407  1.4124
12216TIP3    H258064   5.082   4.447   4.129 -1.8708 -2.0602  0.5895
12217TIP3   OH258065   4.077   2.041  14.341 -0.3408 -0.0432  0.0603
12217TIP3    H158066   4.057   2.101  14.270  2.4976  1.4023  0.3595
12217TIP3    H258067   4.131   1.973  14.301  0.8906  0.5307  0.6837
12218TIP3   OH258068   4.596   6.720   1.274 -0.4473  0.0489  0.4914
12218TIP3    H158069   4.551   6.803   1.259  0.4829  0.6684  1.0264
12218TIP3    H258070   4.662   6.741   1.341 -0.6455 -1.2682  1.1287
12219TIP3   OH258071   5.026   5.308   1.888  0.0100  0.3605 -0.1085
12219TIP3    H158072   5.065   5.355   1.962  1.2330  0.4792 -0.7958
12219TIP3    H258073   4.996   5.378   1.829  1.0208  0.3043 -0.7168
12220TIP3   OH258074   3.848   2.708  12.711  0.2554  0.2018  0.0507
12220TIP3    H158075   3.860   2.651  12.787  0.0060 -1.7567 -1.2969
12220TIP3    H258076   3.934   2.750  12.698  0.4539  0.1286  1.0555
12221TIP3   OH258077   0.480   4.418   5.290 -0.0178  0.0169 -0.3520
12221TIP3    H158078   0.423   4.475   5.341 -0.6836 -0.0302 -1.0126
12221TIP3    H258079   0.437   4.333   5.293  0.3048 -0.1496 -0.4158
12222TIP3   OH258080   2.921   5.192   5.095  0.0165  0.0283  0.4304
12222TIP3    H158081   3.005   5.180   5.140 -0.3638 -0.1908  1.0851
12222TIP3    H258082   2.893   5.280   5.121  1.1764  1.1146 -1.6879
12223TIP3   OH258083   1.063   1.730  10.923 -0.3099  0.1577  0.5084
12223TIP3    H158084   0.991   1.710  10.864 -1.9506  0.9897  2.1511
12223TIP3    H258085   1.052   1.669  10.996 -0.7021  1.7223  1.8156
12224TIP3   OH258086   1.782   6.409  16.863  0.0196  0.1818  0.3205
12224TIP3    H158087   1.825   6.411  16.948 -1.0068  1.0184  0.8312
12224TIP3    H258088   1.840   6.355  16.809  1.9087  1.5621  0.8642
12225TIP3   OH258089   6.213   1.172  12.961  0.5655 -0.5123 -0.3005
12225TIP3    H158090   6.122   1.142  12.957  0.8475 -1.6065  0.8376
12225TIP3    H258091   6.210   1.248  13.020  0.3830 -0.5190 -0.2992
12226TIP3   OH258092   2.054   0.220   2.282  0.5134 -0.2946 -0.1760
12226TIP3    H158093   2.022   0.138   2.244 -0.5532  0.4625 -0.9785
12226TIP3    H258094   2.009   0.226   2.367 -0.0039 -0.1694 -0.4556
12227TIP3   OH258095   3.600   3.821  13.277 -0.5376 -0.3541  0.4142
12227TIP3    H158096   3.553   3.761  13.335  0.5344  0.4624  2.2424
12227TIP3    H258097   3.543   3.898  13.270 -0.5748 -0.3664  0.5770
12228TIP3   OH258098   3.764   5.824  13.624  0.5172  0.2929 -0.1043
12228TIP3    H158099   3.709   5.769  13.569 -1.0269 -0.1842  1.8113
12228TIP3    H258100   3.705   5.857  13.692  2.1367  1.5866  0.7482
12229TIP3   OH258101   2.264   2.402   4.028  0.1580  0.2493 -0.3368
12229TIP3    H158102   2.257   2.431   4.119  0.9694 -1.1360  0.1975
12229TIP3    H258103   2.181   2.426   3.988 -0.0555  1.2334  0.6569
12230TIP3   OH258104   5.502   2.003  10.810 -0.3543 -0.3600 -1.0147
12230TIP3    H158105   5.505   1.972  10.720 -1.0502  1.4190 -1.7049
12230TIP3    H258106   5.581   2.057  10.819 -0.1677 -0.7183 -0.4773
12231TIP3   OH258107   0.943   5.483   4.547 -0.3213 -0.5416  0.2935
12231TIP3    H158108   0.867   5.540   4.552 -0.5093 -0.8117  0.4971
12231TIP3    H258109   0.926   5.413   4.609 -0.2785 -1.0471 -0.2519
12232TIP3   OH258110   2.403   4.622   0.197 -0.4110 -0.1191  0.0277
12232TIP3    H158111   2.452   4.540   0.201  1.4106  0.7956 -1.9425
12232TIP3    H258112   2.424   4.667   0.279  1.1851 -0.2489 -0.2824
12233TIP3   OH258113   0.266   3.299   4.183 -0.3651 -0.7107  0.0377
12233TIP3    H158114   0.290   3.206   4.181  2.5046 -0.0733  0.7163
12233TIP3    H258115   0.218   3.313   4.101  1.1300 -2.3069 -1.1944
12234TIP3   OH258116   3.383   0.163  14.313  0.3269 -0.2016 -0.1595
12234TIP3    H158117   3.371   0.151  14.407  0.0347 -1.5433 -0.3439
12234TIP3    H258118   3.478   0.163  14.301  0.3620 -0.8018  0.0608
12235TIP3   OH258119   6.778   4.104  12.578 -0.1194 -0.4952  0.6364
12235TIP3    H158120   6.774   4.103  12.673  2.3375  1.1471  0.8281
12235TIP3    H258121   6.813   4.018  12.555  3.3874  0.5171  1.6123
12236TIP3   OH258122   1.597   1.086  13.896  0.1068  0.8721 -0.0969
12236TIP3    H158123   1.597   1.122  13.807 -0.0203  0.3155 -0.3275
12236TIP3    H258124   1.681   1.114  13.933  1.0234 -0.4372 -1.0435
12237TIP3   OH258125   3.520   1.220   4.559  0.1907 -0.2903 -0.4999
12237TIP3    H158126   3.479   1.192   4.477  0.8426  2.3936 -1.8613
12237TIP3    H258127   3.476   1.303   4.581  0.8437 -0.3648  1.2429
12238TIP3   OH258128   2.320   6.136   2.589 -0.0613  0.0379  0.6483
12238TIP3    H158129   2.278   6.068   2.538  0.3243  0.7444 -0.6773
12238TIP3    H258130   2.319   6.213   2.531  1.8578  0.4214  1.0517
12239TIP3   OH258131   0.690   0.046  13.315  0.0386  0.2770  0.1485
12239TIP3    H158132   0.682  -0.004  13.234 -0.1919 -0.0655  0.3826
12239TIP3    H258133   0.671   0.137  13.290  1.5097  0.4251 -0.4863
12240TIP3   OH258134   0.718   6.653   1.024  0.1033 -0.0692  0.3044
12240TIP3    H158135   0.796   6.709   1.030  1.4541 -1.7301 -0.6025
12240TIP3    H258136   0.644   6.713   1.034  1.4447  1.9498 -1.0763
12241TIP3   OH258137   1.627   1.109  12.261 -0.2591  0.0779  0.0690
12241TIP3    H158138   1.701   1.170  12.258 -1.4409  1.5323 -1.6381
12241TIP3    H258139   1.655   1.036  12.205  0.2775  0.1292  0.2639
12242TIP3   OH258140   6.701   1.704   0.252  0.3031 -0.3423 -0.7326
12242TIP3    H158141   6.626   1.750   0.215  1.7067  2.6522 -0.1227
12242TIP3    H258142   6.768   1.771   0.262  2.5820 -2.5956  0.1426
12243TIP3   OH258143   4.826   2.284  16.919 -0.3493 -0.1902 -0.3007
12243TIP3    H158144   4.816   2.351  16.987  1.5792 -0.2091  0.0562
12243TIP3    H258145   4.837   2.202  16.967  1.7733 -0.1036 -0.5481
12244TIP3   OH258146   3.901   1.408  14.860  0.4514  0.3372  0.0411
12244TIP3    H158147   3.907   1.447  14.947  2.1216  0.7647 -0.2449
12244TIP3    H258148   3.907   1.482  14.800 -1.0991  0.0896 -0.4614
12245TIP3   OH258149   2.935   1.110   5.265  0.4786  0.1934  0.1000
12245TIP3    H158150   2.870   1.079   5.201  0.4690  0.7523 -0.1688
12245TIP3    H258151   2.964   1.031   5.310  1.6479 -0.4674 -1.6855
12246TIP3   OH258152   4.993   3.734   2.638  0.1644 -0.9103 -0.1920
12246TIP3    H158153   4.913   3.774   2.672 -0.8829 -2.9994 -0.0380
12246TIP3    H258154   5.064   3.781   2.683 -0.9249  0.9655 -0.2963
12247TIP3   OH258155   5.603   2.740   2.954  0.4341  0.2552  0.0650
12247TIP3    H158156   5.666   2.802   2.916 -0.1700  1.0683  0.3664
12247TIP3    H258157   5.642   2.654   2.939  1.8628  0.7639  0.6864
12248TIP3   OH258158   2.703   2.250  13.165  0.2954  0.2303  0.0824
12248TIP3    H158159   2.692   2.158  13.187  0.3667  0.1648 -0.1533
12248TIP3    H258160   2.785   2.254  13.117 -1.0976 -0.0480 -2.5053
12249TIP3   OH258161   0.649   0.795   1.840  0.5109  0.2376 -1.1488
12249TIP3    H158162   0.597   0.744   1.902 -0.1727 -0.6320 -2.3866
12249TIP3    H258163   0.585   0.829   1.778  1.2732  0.2869 -1.9238
12250TIP3   OH258164   6.278   6.476   0.785 -0.4131 -0.2754  0.6666
12250TIP3    H158165   6.197   6.431   0.805 -1.6164  1.3391 -0.3338
12250TIP3    H258166   6.306   6.440   0.701  0.6365 -1.7437  1.6078
12251TIP3   OH258167   3.123   6.599   0.655 -0.2657  0.4892  0.1106
12251TIP3    H158168   3.199   6.541   0.656 -0.6590 -0.0483 -0.8646
12251TIP3    H258169   3.148   6.671   0.713  0.0455 -0.8556  1.7409
12252TIP3   OH258170   1.016   2.636   4.755  0.2362  0.0675 -0.1711
12252TIP3    H158171   1.105   2.650   4.722  0.0667 -0.4994 -0.8925
12252TIP3    H258172   0.967   2.604   4.679 -0.8563  1.4083 -0.0588
12253TIP3   OH258173   3.995   6.629   3.125  0.1247 -0.0769 -0.2633
12253TIP3    H158174   3.955   6.546   3.150  0.8801  0.2641  2.4502
12253TIP3    H258175   4.086   6.606   3.103 -0.1652 -0.1846 -1.4048
12254TIP3   OH258176   0.478   4.030  11.663 -0.2523 -0.1493 -0.3724
12254TIP3    H158177   0.443   4.045  11.750 -1.7860 -0.5137 -0.8981
12254TIP3    H258178   0.551   3.970  11.676 -1.2032 -1.1400  0.5595
12255TIP3   OH258179   4.238   4.328  16.855 -0.1876  0.3643 -0.3309
12255TIP3    H158180   4.221   4.367  16.940 -2.8435  1.3833 -1.2119
12255TIP3    H258181   4.196   4.242  16.859  0.3786  0.0813 -0.3676
12256TIP3   OH258182   2.680   4.581  13.985  0.5971 -0.2171 -0.3122
12256TIP3    H158183   2.712   4.508  14.038 -0.0137 -1.2355 -1.2999
12256TIP3    H258184   2.599   4.548  13.945  0.1214  1.1236 -0.5039
12257TIP3   OH258185   5.971   2.020   1.345  0.1020 -0.1951  0.4069
12257TIP3    H158186   6.038   2.088   1.342 -0.8374  0.7810  0.5639
12257TIP3    H258187   5.890   2.068   1.362 -0.7764 -1.2336 -0.6514
12258TIP3   OH258188   4.976   4.833  14.301 -0.5110 -0.2229  0.6275
12258TIP3    H158189   4.975   4.900  14.369 -2.2886 -0.1537  0.5879
12258TIP3    H258190   5.067   4.803  14.297 -0.5103 -1.0161  3.8287
12259TIP3   OH258191   4.827   3.652  12.093 -0.0145 -0.7982  0.4735
12259TIP3    H158192   4.905   3.598  12.082 -0.8729 -1.9361 -0.3211
12259TIP3    H258193   4.812   3.691  12.007 -0.9661 -1.5295  0.2859
12260TIP3   OH258194   4.008   1.023  16.259  0.2432 -0.5380 -0.0717
12260TIP3    H158195   4.048   1.039  16.174 -1.1863  1.6690 -0.4232
12260TIP3    H258196   4.081   1.016  16.319  1.2272  0.6073 -1.0895
12261TIP3   OH258197   3.827   1.405   4.740 -0.0321 -0.6423  0.1715
12261TIP3    H158198   3.904   1.378   4.790 -0.1874 -0.8859  0.2799
12261TIP3    H258199   3.778   1.462   4.799  0.2562 -0.1789 -0.0306
12262TIP3   OH258200   5.244   6.156   5.594  0.0085  0.2153  0.5952
12262TIP3    H158201   5.319   6.101   5.575 -1.6152 -1.3910 -1.8653
12262TIP3    H258202   5.171   6.095   5.606 -1.2425  1.7406  1.1999
12263TIP3   OH258203   3.369   4.565   4.437  0.1912 -0.1462 -0.1698
12263TIP3    H158204   3.364   4.655   4.468 -0.0633 -0.7122  1.5319
12263TIP3    H258205   3.287   4.525   4.465 -0.0464 -0.7419 -1.5884
12264TIP3   OH258206   5.756   0.056  12.513  0.1303  0.0252 -0.0249
12264TIP3    H158207   5.715   0.034  12.597 -0.6675  0.3643 -0.3191
12264TIP3    H258208   5.837   0.100  12.537 -0.4033  0.7007  0.5823
12265TIP3   OH258209   3.500   1.506   0.951  0.0271  0.0035  0.2274
12265TIP3    H158210   3.546   1.564   0.891 -0.0346 -0.5951 -0.4021
12265TIP3    H258211   3.439   1.458   0.896 -0.4417 -0.1333  0.8609
12266TIP3   OH258212   6.082   0.880  15.170 -0.1720 -0.3955 -0.3675
12266TIP3    H158213   6.077   0.959  15.223 -1.1254  0.0007 -1.0134
12266TIP3    H258214   6.165   0.839  15.196  0.0684  0.5141  0.3784
12267TIP3   OH258215   5.199   3.085  13.400 -0.1405  0.2065 -0.4537
12267TIP3    H158216   5.266   3.018  13.413  1.3043  1.1716 -2.4168
12267TIP3    H258217   5.247   3.159  13.363 -1.8677  1.9634  0.6532
12268TIP3   OH258218   2.429   3.988  11.287  0.0745  0.4818  0.1916
12268TIP3    H158219   2.366   4.059  11.302 -0.5783 -0.2177  0.8734
12268TIP3    H258220   2.375   3.909  11.283  0.4277  0.2733 -3.5387
12269TIP3   OH258221   2.876   1.211  16.707 -0.4766  0.0707  0.2065
12269TIP3    H158222   2.919   1.294  16.684 -1.7244  0.1952 -1.9682
12269TIP3    H258223   2.794   1.238  16.749 -0.7170 -0.0471 -0.1796
12270TIP3   OH258224   6.411   1.052   0.529  0.1783  0.1741  0.3063
12270TIP3    H158225   6.411   0.968   0.485 -0.3209  0.8166 -0.9617
12270TIP3    H258226   6.504   1.071   0.544  0.5930  1.0428 -2.7099
12271TIP3   OH258227   0.513   0.783  11.427  0.2450 -0.6148 -0.0753
12271TIP3    H158228   0.559   0.734  11.359  0.6773 -0.8888  0.3966
12271TIP3    H258229   0.434   0.817  11.385 -0.9302 -3.0717 -0.0414
12272TIP3   OH258230   5.002   3.275   1.625  0.2069  0.2276 -0.3928
12272TIP3    H158231   4.948   3.197   1.618 -1.0776  1.0518  0.1044
12272TIP3    H258232   4.966   3.336   1.560 -0.3500  1.2788  0.8628
12273TIP3   OH258233   5.323   0.838  15.117  0.4033 -0.0591  0.1163
12273TIP3    H158234   5.368   0.772  15.063  0.8207 -0.8629  1.3872
12273TIP3    H258235   5.231   0.814  15.112  0.4916 -0.4158  0.1299
12274TIP3   OH258236   4.166   3.071  17.105 -0.1628 -0.4159  0.2634
12274TIP3    H158237   4.255   3.045  17.084  0.3854  0.6328  1.1677
12274TIP3    H258238   4.130   3.103  17.022  0.6760  0.1743  0.1138
12275TIP3   OH258239   0.062   4.928   3.448 -0.8000  0.1176  0.0322
12275TIP3    H158240   0.116   4.904   3.373 -1.9765 -1.1002 -0.4436
12275TIP3    H258241   0.125   4.940   3.519  0.0937 -1.6591 -0.4154
12276TIP3   OH258242   6.286   4.638   0.320 -0.1558  0.7131  0.5433
12276TIP3    H158243   6.365   4.636   0.375  0.7285 -0.2019 -0.7006
12276TIP3    H258244   6.225   4.694   0.368  1.3886  1.7717  1.3622
12277TIP3   OH258245   4.582   2.503  16.394  0.2694  0.4110 -0.1201
12277TIP3    H158246   4.504   2.535  16.439  0.1949  1.1619 -0.7596
12277TIP3    H258247   4.585   2.410  16.414 -0.5019  0.4778  0.3356
12278TIP3   OH258248   2.569   6.376   1.745 -0.0407 -0.2438 -0.3695
12278TIP3    H158249   2.538   6.448   1.691  0.4357  0.0391 -0.2667
12278TIP3    H258250   2.583   6.415   1.831 -0.7498 -0.6779 -0.0474
12279TIP3   OH258251   5.053   3.457   5.505  0.5049  0.4247 -0.4498
12279TIP3    H158252   5.022   3.405   5.430  0.4867  3.5001 -2.7630
12279TIP3    H258253   5.012   3.543   5.493  1.4336  1.4036  2.5081
12280TIP3   OH258254   0.428   5.338   4.554 -0.1094  0.8115 -0.9436
12280TIP3    H158255   0.364   5.296   4.497  0.5285 -1.2759 -0.2242
12280TIP3    H258256   0.510   5.334   4.505  0.6875 -2.0015  0.4079
12281TIP3   OH258257   2.349   5.324  16.569  0.6750 -0.6095 -0.0892
12281TIP3    H158258   2.318   5.404  16.525  1.3251 -0.4067 -0.1922
12281TIP3    H258259   2.440   5.315  16.540  0.7525 -1.1236  0.3052
12282TIP3   OH258260   5.209   2.158  14.388  0.1499  0.4558  0.0070
12282TIP3    H158261   5.217   2.138  14.481  1.5188 -0.7350 -0.3264
12282TIP3    H258262   5.165   2.083  14.350 -1.6027  1.5098 -0.1471
12283TIP3   OH258263   3.592   3.429  14.531  0.1879  0.1045 -0.2779
12283TIP3    H158264   3.654   3.501  14.541  1.4600 -1.0891  0.7202
12283TIP3    H258265   3.631   3.374  14.463 -0.1216 -0.3221 -0.1072
12284TIP3   OH258266   4.540   5.257  15.904  0.2446  0.1766 -0.4849
12284TIP3    H158267   4.463   5.284  15.854 -0.3812 -1.8944 -0.7061
12284TIP3    H258268   4.593   5.207  15.842  1.0390  0.3189  0.0676
12285TIP3   OH258269   5.790   4.076  15.868  0.1665  0.3867 -0.1149
12285TIP3    H158270   5.878   4.042  15.856 -0.0658  0.3955 -2.3356
12285TIP3    H258271   5.732   4.005  15.840 -0.5364  0.5033  0.9734
12286TIP3   OH258272   6.176   2.046  14.470 -0.8620  0.0713 -0.1360
12286TIP3    H158273   6.218   1.962  14.452  0.8636  1.1340 -1.3158
12286TIP3    H258274   6.223   2.079  14.547 -2.3140 -0.4905  1.0621
12287TIP3   OH258275   4.328   5.556   2.495  0.0864  0.2456  0.2714
12287TIP3    H158276   4.335   5.476   2.547 -1.3527 -1.4249 -1.9255
12287TIP3    H258277   4.417   5.575   2.468  0.4332 -0.6956  0.7038
12288TIP3   OH258278   3.352   1.361   1.993  0.5986 -0.0174  0.3615
12288TIP3    H158279   3.291   1.423   2.032  1.0925 -0.5071  1.9821
12288TIP3    H258280   3.425   1.415   1.963 -0.0988  0.4417 -0.5683
12289TIP3   OH258281   0.636   2.976  11.386 -0.0377 -0.0783  1.1072
12289TIP3    H158282   0.673   2.897  11.427 -0.8625 -0.4389  1.1810
12289TIP3    H258283   0.574   3.009  11.451 -0.9633 -0.3512  0.3789
12290TIP3   OH258284   4.348   6.027  15.691  0.1083 -0.2795 -0.0692
12290TIP3    H158285   4.404   5.983  15.756  1.8502 -0.7722 -1.7784
12290TIP3    H258286   4.276   5.965  15.676  0.2269 -0.6072  0.6495
12291TIP3   OH258287   5.100   3.693   3.579  0.1249 -0.3920 -0.3320
12291TIP3    H158288   5.188   3.727   3.593 -0.0502 -0.4514  1.0486
12291TIP3    H258289   5.101   3.660   3.489  1.0409  0.9750 -0.8524
12292TIP3   OH258290   1.609   1.963  11.081 -0.6431 -0.0301  0.2740
12292TIP3    H158291   1.553   1.902  11.128 -0.1309 -1.8538 -1.3025
12292TIP3    H258292   1.666   1.906  11.028  0.5491  1.8193 -0.5371
12293TIP3   OH258293   0.646   0.960  16.173 -0.8140 -0.6647 -0.1312
12293TIP3    H158294   0.698   0.989  16.248 -0.8439 -0.0928 -0.3291
12293TIP3    H258295   0.572   0.912  16.212 -0.4185 -1.0367  0.1697
12294TIP3   OH258296   4.638   6.046  12.127  0.1922 -0.0088 -0.2631
12294TIP3    H158297   4.720   6.077  12.167  0.6477 -0.4683 -0.8190
12294TIP3    H258298   4.666   6.003  12.046 -0.7183  1.1101 -1.2096
12295TIP3   OH258299   5.483   5.907  14.675  0.4924 -0.0147  0.3950
12295TIP3    H158300   5.407   5.901  14.618  0.9212  1.2449 -0.3402
12295TIP3    H258301   5.491   5.820  14.714 -1.6209 -0.0221  0.9036
12296TIP3   OH258302   0.786   1.156  11.983 -0.2878  0.0783  0.2865
12296TIP3    H158303   0.691   1.145  11.977 -0.4339  0.8168  1.0104
12296TIP3    H258304   0.812   1.187  11.896 -0.4275 -1.8752 -0.4909
12297TIP3   OH258305   4.545   6.369  12.676 -0.7392 -0.4908 -0.2762
12297TIP3    H158306   4.637   6.347  12.663 -1.2997 -3.0510 -0.4661
12297TIP3    H258307   4.532   6.361  12.771 -0.6681  0.4376 -0.1771
12298TIP3   OH258308   1.770   2.001   2.918  0.3509 -0.1201 -0.2307
12298TIP3    H158309   1.863   2.002   2.941  0.4926 -0.3868 -0.7804
12298TIP3    H258310   1.768   2.019   2.824  0.0318 -2.5870 -0.7574
12299TIP3   OH258311   4.350   3.046  16.614 -0.3314  0.2575  0.7270
12299TIP3    H158312   4.330   3.140  16.615 -0.0218  0.3265  0.2774
12299TIP3    H258313   4.277   3.007  16.661 -0.6103  0.6955  0.6711
12300TIP3   OH258314   1.178   0.760  13.271 -0.3900  0.1235 -0.3754
12300TIP3    H158315   1.190   0.851  13.298  2.3728  0.5319 -2.5401
12300TIP3    H258316   1.116   0.765  13.199 -1.2611  0.0617  0.3417
12301TIP3   OH258317   4.310   5.711  13.347 -0.2096  0.4409 -0.3679
12301TIP3    H158318   4.365   5.785  13.320  1.1230 -0.4783 -0.2857
12301TIP3    H258319   4.372   5.649  13.385 -1.6373  0.4136  2.1023
12302TIP3   OH258320   4.261   3.302  16.822 -0.4176 -0.0279 -0.7410
12302TIP3    H158321   4.351   3.287  16.850 -0.6461  1.3258  0.8701
12302TIP3    H258322   4.254   3.397  16.814 -1.8672 -0.0749 -0.2686
12303TIP3   OH258323   3.131   6.304  16.528 -0.3322  0.1210  0.5001
12303TIP3    H158324   3.111   6.211  16.542  1.1341 -1.1920 -4.3468
12303TIP3    H258325   3.224   6.311  16.550 -0.3065  0.3235  0.3163
12304TIP3   OH258326   5.636   1.445  14.890 -0.6618  0.2662  0.2598
12304TIP3    H158327   5.652   1.410  14.803 -1.5314  2.5070 -0.9001
12304TIP3    H258328   5.691   1.393  14.948  0.0105 -1.2297 -1.6261
12305TIP3   OH258329   1.831   6.193   5.341  0.4051  1.4775 -0.5871
12305TIP3    H158330   1.844   6.153   5.427 -0.7503  1.7326 -0.2654
12305TIP3    H258331   1.874   6.278   5.347  2.0683  0.6989 -0.9605
12306TIP3   OH258332   3.058   4.012  15.217  0.4189 -0.0476  0.1039
12306TIP3    H158333   3.107   4.084  15.255 -0.9257  2.1047 -1.9504
12306TIP3    H258334   3.119   3.972  15.155  0.7142  0.2491  0.1990
12307TIP3   OH258335   3.405   0.043   0.449 -0.7509 -0.1965  0.3785
12307TIP3    H158336   3.345   0.022   0.377  0.7574 -1.2608 -0.6451
12307TIP3    H258337   3.351   0.039   0.528 -2.0207 -1.1260 -0.5028
12308TIP3   OH258338   4.933   1.931   2.135 -0.2631 -0.2132  0.2079
12308TIP3    H158339   4.999   2.000   2.143  0.5202 -0.8888 -0.2441
12308TIP3    H258340   4.858   1.973   2.092 -0.1906  0.6029  0.8823
12309TIP3   OH258341   0.581   4.976  13.146  0.0221 -0.6005  0.0204
12309TIP3    H158342   0.613   5.028  13.073  4.5388 -1.0553  1.3914
12309TIP3    H258343   0.571   4.887  13.110  1.6905 -0.7099 -0.2544
12310TIP3   OH258344   1.598   4.792  12.132  0.2284 -0.4135  0.1940
12310TIP3    H158345   1.652   4.852  12.080 -1.8720  0.7690 -0.7535
12310TIP3    H258346   1.603   4.708  12.086 -0.7852  0.3639 -1.4059
12311TIP3   OH258347   5.356   1.826  15.254  0.2113 -0.2906 -0.1212
12311TIP3    H158348   5.357   1.777  15.336  1.9462  2.0264  1.3606
12311TIP3    H258349   5.297   1.899  15.269  1.3184  0.7304 -0.5261
12312TIP3   OH258350   3.658   6.544  12.093 -0.0436  0.5853  0.1559
12312TIP3    H158351   3.732   6.527  12.151 -1.5421 -2.6127  1.4055
12312TIP3    H258352   3.581   6.539  12.150 -1.4198  0.3135 -1.6202
12313TIP3   OH258353   2.276   5.169  11.677  0.5410 -0.0531  0.1464
12313TIP3    H158354   2.309   5.142  11.762  0.0390 -5.4101 -0.9774
12313TIP3    H258355   2.182   5.183  11.691  0.5656 -0.3340  0.6188
12314TIP3   OH258356   5.631   5.001  13.069 -0.5094  0.2213  0.2933
12314TIP3    H158357   5.628   5.075  13.008 -1.6831  0.8968  1.1254
12314TIP3    H258358   5.660   5.040  13.151 -1.2381 -0.2126  0.7622
12315TIP3   OH258359   0.929   4.850   4.418  0.1825 -0.2746  0.0798
12315TIP3    H158360   0.938   4.757   4.442  0.8487 -0.2434 -0.0127
12315TIP3    H258361   0.898   4.892   4.498  0.2040 -0.5288  0.2253
12316TIP3   OH258362   3.881   5.128   4.395  0.4248  0.5060  0.1514
12316TIP3    H158363   3.951   5.148   4.333 -0.3958 -0.1531 -1.0217
12316TIP3    H258364   3.924   5.130   4.480  2.3637 -1.8674 -0.6650
12317TIP3   OH258365   5.063   0.696  12.562 -0.4178  0.3085  0.2752
12317TIP3    H158366   5.034   0.776  12.607 -1.7359  0.4023 -0.6858
12317TIP3    H258367   5.026   0.625  12.615 -2.7561  0.4290 -1.0648
12318TIP3   OH258368   1.440   2.201  12.760  0.4028 -0.0738  0.2553
12318TIP3    H158369   1.384   2.266  12.803  1.1278  0.6784  0.0973
12318TIP3    H258370   1.400   2.186  12.675  0.3057  0.2762  0.2383
12319TIP3   OH258371   0.891   2.015   2.383 -0.0946  0.3251 -0.0320
12319TIP3    H158372   0.903   1.969   2.300 -0.7601 -0.4521  0.2894
12319TIP3    H258373   0.965   2.076   2.387  0.4336 -0.2355 -0.7894
12320TIP3   OH258374   5.474   6.088  13.160 -0.2802 -0.3221 -0.5978
12320TIP3    H158375   5.457   6.032  13.085 -0.2393 -0.6147 -0.3932
12320TIP3    H258376   5.435   6.172  13.138  0.2286 -0.2359 -1.1822
12321TIP3   OH258377   2.550   0.296  11.651  0.3921  0.1390  0.0007
12321TIP3    H158378   2.598   0.361  11.703  1.9385 -1.3510  0.5485
12321TIP3    H258379   2.604   0.217  11.657 -0.6942 -0.7938 -1.8201
12322TIP3   OH258380   5.732   4.626   0.094  0.3586  0.3901 -0.0058
12322TIP3    H158381   5.769   4.714   0.081  0.9307  0.3419  1.1512
12322TIP3    H258382   5.787   4.587   0.161 -0.1689 -0.7001 -0.1931
12323TIP3   OH258383   4.995   4.932   0.435  0.2264  0.1709  0.5196
12323TIP3    H158384   4.959   5.020   0.423  0.7712  0.6287  2.0037
12323TIP3    H258385   5.029   4.908   0.348 -2.1090  0.3760 -0.5383
12324TIP3   OH258386   4.439   4.102   3.606 -0.1398 -0.8426 -0.0526
12324TIP3    H158387   4.389   4.183   3.621  0.5192 -0.5228  0.5316
12324TIP3    H258388   4.488   4.090   3.687  1.1618 -0.8229 -0.8080
12325TIP3   OH258389   4.148   6.797  11.611 -0.5150  0.1936 -0.1775
12325TIP3    H158390   4.148   6.892  11.604 -1.5066  0.1686 -0.7342
12325TIP3    H258391   4.230   6.769  11.569 -0.8488  0.7367 -1.2306
12326TIP3   OH258392   4.354   1.923  16.269 -0.6737  0.2730  0.1354
12326TIP3    H158393   4.301   1.988  16.224 -2.0502 -1.1009 -0.2991
12326TIP3    H258394   4.348   1.947  16.362  0.0691  1.5975 -0.1311
12327TIP3   OH258395   6.372   5.609   5.758 -0.4117 -0.6082  0.7771
12327TIP3    H158396   6.377   5.647   5.846  0.6653  0.9124  0.1184
12327TIP3    H258397   6.371   5.515   5.772  0.5827 -0.4206  2.3992
12328TIP3   OH258398   4.847   5.748   6.839  0.3585  0.4091  0.2023
12328TIP3    H158399   4.936   5.758   6.874  0.4827  0.6088 -0.1607
12328TIP3    H258400   4.859   5.701   6.756  0.1567  0.6968  0.0073
12329TIP3   OH258401   4.331   5.896   2.564 -0.0814 -0.2985  0.5920
12329TIP3    H158402   4.283   5.920   2.644 -0.6022  1.0864 -0.0983
12329TIP3    H258403   4.271   5.840   2.515 -0.0909 -0.4675  0.7970
12330TIP3   OH258404   4.405   1.166   6.096  0.2574 -0.2205  0.1807
12330TIP3    H158405   4.484   1.195   6.142  0.1278 -0.3061  0.4643
12330TIP3    H258406   4.382   1.083   6.139  0.2910 -0.4421 -0.2281
12331TIP3   OH258407   2.159   4.570   5.956  0.5790 -0.8502 -0.1143
12331TIP3    H158408   2.200   4.599   6.037  0.3087  0.6474 -0.4954
12331TIP3    H258409   2.185   4.634   5.890  0.1284 -1.5849 -1.0436
12332TIP3   OH258410   0.439   3.636  12.550  0.4884  0.2138  0.2561
12332TIP3    H158411   0.503   3.618  12.618 -0.2567  0.8502  1.1358
12332TIP3    H258412   0.364   3.673  12.596  0.6697  2.3973 -1.1002
12333TIP3   OH258413   2.660   5.013  16.938  0.2569  0.2964  0.9358
12333TIP3    H158414   2.635   4.927  16.971  0.5706 -0.4245 -0.5972
12333TIP3    H258415   2.703   5.056  17.012  0.4695 -1.0196  1.6019
12334TIP3   OH258416   4.515   2.011  11.894  0.0931 -0.3695  0.6399
12334TIP3    H158417   4.488   1.956  11.967  1.1924 -2.7246 -0.6113
12334TIP3    H258418   4.472   1.972  11.818  0.0970  1.1498 -0.1674
12335TIP3   OH258419   3.753   0.766   2.492  0.1907  0.0306  0.3527
12335TIP3    H158420   3.760   0.671   2.484  1.3854  0.0198  1.3394
12335TIP3    H258421   3.765   0.798   2.403 -2.0726 -0.8028 -0.3320
12336TIP3   OH258422   5.725   5.939  13.635  0.1223  0.0694 -0.2283
12336TIP3    H158423   5.752   5.968  13.722  1.2876  0.0325 -0.5542
12336TIP3    H258424   5.676   6.013  13.599 -2.0489 -0.6033  1.1366
12337TIP3   OH258425   6.207   3.655  16.585  0.7995  0.0195  0.1952
12337TIP3    H158426   6.223   3.561  16.599 -1.2516 -0.4436 -0.2796
12337TIP3    H258427   6.112   3.664  16.588  0.8652  1.8449 -1.3756
12338TIP3   OH258428   2.169   2.832   3.844  0.3573 -0.1134  0.5743
12338TIP3    H158429   2.142   2.911   3.798 -0.1832  0.0889  1.2296
12338TIP3    H258430   2.102   2.818   3.910 -0.3802 -1.9796 -0.4918
12339TIP3   OH258431   3.470   5.032   2.494  0.1286  0.0933 -0.2014
12339TIP3    H158432   3.485   5.119   2.457 -0.2957 -0.7281 -2.4491
12339TIP3    H258433   3.375   5.018   2.485 -0.2981  0.3869  2.6363
12340TIP3   OH258434   1.214   5.240  14.779 -0.1114  0.7785  0.2183
12340TIP3    H158435   1.126   5.214  14.805 -0.6182 -0.5329 -2.4963
12340TIP3    H258436   1.208   5.334  14.762 -1.0896  0.6315 -0.2676
12341TIP3   OH258437   5.498   0.365  14.106 -0.4276 -0.3242 -0.5432
12341TIP3    H158438   5.422   0.386  14.052 -2.2369  1.6419  2.4866
12341TIP3    H258439   5.503   0.436  14.170  2.9716 -1.2780  0.4716
12342TIP3   OH258440   0.171   5.953  16.419 -0.3627 -0.0402 -0.1978
12342TIP3    H158441   0.261   5.984  16.430 -0.3148 -0.3157  0.1988
12342TIP3    H258442   0.131   6.016  16.359 -0.3269  0.9191  0.7530
12343TIP3   OH258443   6.755   6.280  12.372 -0.1022 -0.3034 -0.3019
12343TIP3    H158444   6.739   6.340  12.444 -0.9498 -0.4949 -0.3153
12343TIP3    H258445   6.671   6.236  12.358  0.2854 -0.9045 -0.8228
12344TIP3   OH258446   1.009   6.628   4.298  0.0089  0.2534  0.8097
12344TIP3    H158447   0.940   6.662   4.240 -0.5012  1.2004  1.9230
12344TIP3    H258448   0.985   6.537   4.313  0.2861 -0.0865 -0.6434
12345TIP3   OH258449   0.809   5.215   2.048  0.9748 -0.0637 -0.1900
12345TIP3    H158450   0.883   5.275   2.058  1.0790 -0.4019  1.2767
12345TIP3    H258451   0.822   5.149   2.116 -1.7642  1.0082  1.5417
12346TIP3   OH258452   1.957   2.977   0.822  0.7012  0.0948  0.2072
12346TIP3    H158453   1.874   3.021   0.842  0.6503  0.6600 -1.1271
12346TIP3    H258454   1.999   3.035   0.758  0.4351 -1.9897 -1.9923
12347TIP3   OH258455   1.995   6.362  15.576  0.0902  0.3036  0.1669
12347TIP3    H158456   1.931   6.362  15.647  1.2237 -0.7555  1.2452
12347TIP3    H258457   1.979   6.444  15.529 -3.5766 -0.9571 -1.0975
12348TIP3   OH258458   6.205   6.573   3.680 -0.0559  0.5833 -0.1014
12348TIP3    H158459   6.159   6.616   3.608  0.1118  0.1281 -0.4896
12348TIP3    H258460   6.297   6.595   3.666  0.2128 -0.9998 -1.1122
12349TIP3   OH258461   0.135   1.796  12.340 -0.0448 -0.1097 -0.7951
12349TIP3    H158462   0.189   1.784  12.263 -0.2585 -1.1625 -0.7924
12349TIP3    H258463   0.188   1.851  12.399  0.3281  0.2512 -1.4561
12350TIP3   OH258464   1.949   6.478  16.387  0.1207  0.4826 -0.2301
12350TIP3    H158465   2.006   6.520  16.322 -1.7285  1.2303 -1.4540
12350TIP3    H258466   1.920   6.550  16.443  0.4641  0.0791  0.4828
12351TIP3   OH258467   1.672   5.213  11.125 -0.0337 -0.0643  0.5347
12351TIP3    H158468   1.607   5.193  11.058 -2.9098  2.5280  2.2693
12351TIP3    H258469   1.664   5.141  11.188 -0.4317 -0.3564  0.1568
12352TIP3   OH258470   3.487   0.612  12.751 -0.1146 -0.1640  0.0504
12352TIP3    H158471   3.531   0.589  12.833 -0.7885 -0.9084  0.2160
12352TIP3    H258472   3.434   0.688  12.773 -0.2774 -0.3491  0.3005
12353TIP3   OH258473   5.696   0.457   2.664 -0.0122  0.0608 -0.0582
12353TIP3    H158474   5.761   0.519   2.697 -0.1294  0.9793 -1.4796
12353TIP3    H258475   5.696   0.470   2.569 -0.4843 -1.6955 -0.3351
12354TIP3   OH258476   1.290   0.325   3.601 -0.4559 -0.2371  0.1855
12354TIP3    H158477   1.295   0.306   3.508  0.1326  0.1590  0.1346
12354TIP3    H258478   1.291   0.238   3.643  1.3911 -0.3862 -0.0884
12355TIP3   OH258479   5.036   3.263  16.757 -0.3644 -0.5590  0.0018
12355TIP3    H158480   5.028   3.356  16.736  0.2955 -0.4588  0.1755
12355TIP3    H258481   5.129   3.243  16.744 -0.1576 -0.7858  1.5843
12356TIP3   OH258482   0.445   0.825   2.047  0.2865 -0.1671 -0.6508
12356TIP3    H158483   0.357   0.831   2.082 -0.3322 -0.2252 -2.1268
12356TIP3    H258484   0.470   0.916   2.030  1.0150 -0.0488  0.8918
12357TIP3   OH258485   5.693   6.634  16.737 -0.0810  0.0816 -0.2372
12357TIP3    H158486   5.775   6.612  16.781 -1.2495 -1.8526  1.1183
12357TIP3    H258487   5.651   6.698  16.794 -0.0371  0.2153 -0.3537
12358TIP3   OH258488   0.731   6.583   4.476  0.8085 -0.1692  0.0988
12358TIP3    H158489   0.759   6.644   4.409  0.5504  0.1278  0.2616
12358TIP3    H258490   0.808   6.572   4.532  0.3258  1.4691  1.1674
12359TIP3   OH258491   4.062   3.644  16.321 -0.2804 -0.0825  0.0280
12359TIP3    H158492   4.102   3.561  16.294  0.4924  0.3449 -0.1990
12359TIP3    H258493   4.063   3.641  16.416  0.4238 -0.0336  0.0309
12360TIP3   OH258494   0.197   1.371  15.428 -0.4258  0.2386  0.0108
12360TIP3    H158495   0.127   1.420  15.471  0.5290  2.0804 -0.4113
12360TIP3    H258496   0.156   1.289  15.401 -2.2913  1.0600  0.1867
12361TIP3   OH258497   0.163   1.870  16.367 -0.5275 -0.5890  0.3170
12361TIP3    H158498   0.120   1.868  16.452 -1.6923 -0.3185 -0.2547
12361TIP3    H258499   0.110   1.929  16.314 -0.4199 -1.5354 -0.8996
12362TIP3   OH258500   2.242   1.996  10.610  0.3404 -0.5043 -0.4062
12362TIP3    H158501   2.150   2.022  10.615  0.6437  0.4128  2.6698
12362TIP3    H258502   2.242   1.918  10.555 -2.1307 -0.0494 -1.1792
12363TIP3   OH258503   1.142   4.601  11.602 -0.1278 -0.2018  0.3874
12363TIP3    H158504   1.213   4.539  11.619 -0.1692 -1.2459 -2.5825
12363TIP3    H258505   1.063   4.546  11.597 -0.3046  0.1300 -1.3373
12364TIP3   OH258506   2.571   4.541  12.665  0.0780 -0.1345  0.4783
12364TIP3    H158507   2.569   4.611  12.731 -0.6133  0.1838  0.1253
12364TIP3    H258508   2.598   4.585  12.585  0.0817 -0.3628  0.3533
12365TIP3   OH258509   2.348   4.742   4.538  0.9128  0.2798  0.3496
12365TIP3    H158510   2.359   4.823   4.589  1.1853 -0.1738  1.0255
12365TIP3    H258511   2.289   4.767   4.467  1.9762  1.3897 -0.1787
12366TIP3   OH258512   3.574   4.801  13.118 -0.2668  0.8164 -0.0366
12366TIP3    H158513   3.490   4.786  13.162 -0.2170 -0.5780 -0.3698
12366TIP3    H258514   3.626   4.848  13.182 -1.5561  2.4549 -0.1109
12367TIP3   OH258515   1.094   0.625  15.846 -0.3944  0.2390  0.4779
12367TIP3    H158516   1.184   0.655  15.852 -0.2096  0.0246 -0.9311
12367TIP3    H258517   1.098   0.546  15.792 -1.4235  0.2451  0.3604
12368TIP3   OH258518   5.403   2.045  11.313 -0.3732  0.4289 -0.1808
12368TIP3    H158519   5.454   2.013  11.239  1.3665  2.4335  0.0441
12368TIP3    H258520   5.398   2.139  11.300 -1.1573  0.6784  1.5710
12369TIP3   OH258521   5.549   3.010  12.361 -0.7710 -0.0957  0.0064
12369TIP3    H158522   5.557   3.106  12.362 -1.4127 -0.0396  1.1170
12369TIP3    H258523   5.614   2.980  12.424 -0.2573 -0.4421 -0.6669
12370TIP3   OH258524   5.375   0.014   3.944 -0.1527  0.1261  0.1913
12370TIP3    H158525   5.316  -0.048   3.901 -0.5546  0.6583 -0.0395
12370TIP3    H258526   5.376  -0.012   4.036  1.4479 -1.6134 -0.2627
12371TIP3   OH258527   4.678   0.107  16.289 -0.6663 -0.4854  0.3393
12371TIP3    H158528   4.679   0.050  16.212  1.2443 -0.0532 -0.0055
12371TIP3    H258529   4.650   0.192  16.256  0.7797 -0.1355 -0.0382
12372TIP3   OH258530   3.415   2.803   3.147  0.7833 -1.0930 -0.5024
12372TIP3    H158531   3.406   2.898   3.132 -1.1248 -0.8487  1.6349
12372TIP3    H258532   3.503   2.782   3.116  1.2791  1.3866 -1.0014
12373TIP3   OH258533   0.064   4.387   0.177 -0.1940  0.6031  0.3258
12373TIP3    H158534   0.143   4.355   0.133 -1.0542 -0.3898 -0.5613
12373TIP3    H258535   0.044   4.470   0.134 -0.0804  0.4548 -0.0194
12374TIP3   OH258536   5.741   2.005   4.551  0.3869  0.1353 -0.5114
12374TIP3    H158537   5.808   2.053   4.599 -0.6244  0.4214  0.6843
12374TIP3    H258538   5.713   1.936   4.611  1.6399 -1.8901 -2.1010
12375TIP3   OH258539   3.619   5.048   4.020 -0.2328  0.1210  0.3208
12375TIP3    H158540   3.691   5.097   4.058  0.9037  0.1210 -1.6866
12375TIP3    H258541   3.542   5.076   4.068  0.6476  2.4843  0.4552
12376TIP3   OH258542   3.169   4.721   3.618  0.1759 -0.9373  0.4603
12376TIP3    H158543   3.167   4.724   3.713 -1.3836  0.5396  0.4320
12376TIP3    H258544   3.087   4.764   3.591  0.0461 -2.2977 -1.5330
12377TIP3   OH258545   4.615   5.362  15.040  0.0868  0.0872 -0.0084
12377TIP3    H158546   4.689   5.420  15.022 -0.9716  1.0158 -1.6743
12377TIP3    H258547   4.593   5.324  14.955 -1.2458 -0.2898  0.4778
12378TIP3   OH258548   3.973   0.137  13.543 -0.3689  0.3576 -0.1935
12378TIP3    H158549   4.029   0.215  13.548 -1.1721  0.9218  0.1060
12378TIP3    H258550   3.904   0.153  13.607 -1.1104 -0.1467 -0.8487
12379TIP3   OH258551   0.861   1.935  13.791 -0.6227 -0.4577 -0.0909
12379TIP3    H158552   0.859   2.021  13.748  0.5594 -0.1198  0.4936
12379TIP3    H258553   0.940   1.937  13.844 -0.4008 -2.0472 -0.3213
12380TIP3   OH258554   1.990   3.817  14.717 -0.1050 -0.2329  0.1624
12380TIP3    H158555   2.028   3.765  14.646 -1.5483 -2.8926  1.1648
12380TIP3    H258556   2.005   3.764  14.795 -0.9742  1.2980  1.4224
12381TIP3   OH258557   1.988   4.329   5.479 -0.1950 -0.5298  0.4218
12381TIP3    H158558   1.930   4.258   5.450  0.2343 -1.3980  1.5953
12381TIP3    H258559   1.929   4.401   5.500 -0.7680 -1.0433  0.5963
12382TIP3   OH258560   2.241   0.293   5.344 -0.4043 -0.2085  0.2645
12382TIP3    H158561   2.295   0.215   5.347  1.4225  0.9994  0.3999
12382TIP3    H258562   2.252   0.328   5.256  0.7481  1.1460  0.8913
12383TIP3   OH258563   4.688   5.206  13.002 -0.6279  0.1151 -0.1963
12383TIP3    H158564   4.752   5.248  13.060  2.8848 -1.2630 -2.7097
12383TIP3    H258565   4.653   5.278  12.949 -0.6138  0.8201  0.7280
12384TIP3   OH258566   4.232   4.703   5.231  0.8901 -0.7237 -0.4681
12384TIP3    H158567   4.252   4.715   5.138  0.4384  0.5245 -0.4288
12384TIP3    H258568   4.138   4.682   5.232  0.9014 -0.7658 -0.2985
12385TIP3   OH258569   4.893   1.482   1.481  0.0193  0.6252  0.4166
12385TIP3    H158570   4.964   1.542   1.459  1.4816 -1.1636 -0.0596
12385TIP3    H258571   4.912   1.403   1.429  0.5601 -1.7949  3.9406
12386TIP3   OH258572   5.743   2.454  14.101  0.3135  0.0027  0.0981
12386TIP3    H158573   5.815   2.391  14.101  0.4063  0.1070 -0.0412
12386TIP3    H258574   5.665   2.402  14.083  0.3108 -0.1570  0.5612
12387TIP3   OH258575   5.337   3.192  16.815  0.0592 -0.0468  0.8324
12387TIP3    H158576   5.416   3.189  16.761 -0.7775  1.7889 -0.6450
12387TIP3    H258577   5.366   3.166  16.902  1.4762 -3.1938 -0.4402
12388TIP3   OH258578   4.885   6.067   4.640 -0.0186 -0.0098  0.0050
12388TIP3    H158579   4.972   6.104   4.629 -0.1298  0.0831 -0.6165
12388TIP3    H258580   4.837   6.131   4.692  0.4993 -0.4062  0.9922
12389TIP3   OH258581   5.984   5.917  14.007  0.0617  0.3886  0.1610
12389TIP3    H158582   6.056   5.866  13.972  0.1753 -2.1936  3.6158
12389TIP3    H258583   6.026   5.980  14.066 -0.3291  2.2312 -1.4117
12390TIP3   OH258584   2.906   0.789   0.517  0.1348 -0.2476  0.2199
12390TIP3    H158585   2.845   0.829   0.455  0.7626 -1.0046 -0.9363
12390TIP3    H258586   2.856   0.779   0.598 -0.5218  1.3397  0.0493
12391TIP3   OH258587   6.654   3.332   0.844  0.6090 -0.9291  0.1211
12391TIP3    H158588   6.577   3.388   0.831  0.2189 -1.0327  1.7480
12391TIP3    H258589   6.681   3.307   0.755 -1.1944 -0.8402 -0.4927
12392TIP3   OH258590   5.268   3.918  12.857 -0.5510 -0.3147  0.3828
12392TIP3    H158591   5.193   3.875  12.897 -0.7049 -0.5035 -0.0940
12392TIP3    H258592   5.249   4.012  12.866 -1.4989 -0.3496 -0.8823
12393TIP3   OH258593   3.982   2.517   1.610  0.7016 -0.4825 -0.1891
12393TIP3    H158594   3.969   2.565   1.529  0.4340 -0.1345  0.0597
12393TIP3    H258595   3.901   2.467   1.622  1.2993 -1.6772 -0.8898
12394TIP3   OH258596   4.836   4.514  12.729 -0.6791  0.1356 -0.3377
12394TIP3    H158597   4.783   4.569  12.671  1.8982  3.1381 -0.1065
12394TIP3    H258598   4.882   4.454  12.671 -1.1914  0.3115 -0.9349
12395TIP3   OH258599   3.160   4.465   1.033  0.2241  0.2154 -0.0348
12395TIP3    H158600   3.225   4.431   0.971 -1.4691 -2.8911 -0.3372
12395TIP3    H258601   3.168   4.408   1.109 -2.6711 -0.9651 -0.4825
12396TIP3   OH258602   5.315   0.402   1.477 -0.8118 -0.5633  0.0032
12396TIP3    H158603   5.224   0.415   1.504 -1.1411  1.6287 -1.8681
12396TIP3    H258604   5.352   0.490   1.476  0.1538 -0.9084 -3.1282
12397TIP3   OH258605   5.227   5.238  16.428 -0.2355 -0.5474  0.5277
12397TIP3    H158606   5.184   5.165  16.474  0.3790 -1.4382 -0.2668
12397TIP3    H258607   5.176   5.249  16.348 -0.4394  0.0369  0.7314
12398TIP3   OH258608   6.099   3.838   4.401 -0.0442  0.0879  0.0173
12398TIP3    H158609   6.102   3.889   4.320 -1.6069 -1.6267 -1.1881
12398TIP3    H258610   6.191   3.824   4.424  0.4127  1.4175 -0.8921
12399TIP3   OH258611   0.812   6.536  13.987  0.2132  0.5728 -0.0314
12399TIP3    H158612   0.815   6.608  14.049  1.2275  0.5763 -0.0664
12399TIP3    H258613   0.831   6.576  13.902  0.0765  0.3742 -0.1570
12400TIP3   OH258614   5.849   4.610   5.230  0.5470 -0.3119 -0.2577
12400TIP3    H158615   5.848   4.599   5.135  3.0021 -2.1454 -0.1712
12400TIP3    H258616   5.835   4.522   5.264 -2.0854  0.5632  1.1989
12401TIP3   OH258617   5.794   6.524  12.207  0.0789 -0.2061 -0.2823
12401TIP3    H158618   5.825   6.525  12.298  0.8076  1.9487 -0.4957
12401TIP3    H258619   5.712   6.475  12.210 -2.1786  3.2634  2.4047
12402TIP3   OH258620   2.859   0.485   2.551 -0.0677 -0.0951  0.2589
12402TIP3    H158621   2.818   0.540   2.617  2.1201  0.0205  1.5964
12402TIP3    H258622   2.857   0.537   2.471 -1.9575  0.1088  0.3895
12403TIP3   OH258623   6.374   5.199  13.678  0.7322 -0.0682 -0.7197
12403TIP3    H158624   6.352   5.288  13.651  2.5151  1.2546  1.7429
12403TIP3    H258625   6.460   5.182  13.638  0.2814 -0.8386 -1.4019
12404TIP3   OH258626   0.154   2.039  12.847  0.7843  0.2266 -0.1919
12404TIP3    H158627   0.233   1.984  12.841  1.2264  0.5919  1.7349
12404TIP3    H258628   0.082   1.977  12.858  1.0929 -0.0330  0.4002
12405TIP3   OH258629   6.224   4.497  16.208 -0.4406 -0.3243 -0.2729
12405TIP3    H158630   6.192   4.562  16.270 -1.7189  0.4129 -1.6675
12405TIP3    H258631   6.231   4.543  16.125  2.0601 -1.0640 -0.5675
12406TIP3   OH258632   4.765   5.538   0.101  0.1327  0.0781  0.0240
12406TIP3    H158633   4.847   5.489   0.094  0.4903  0.6241  0.3057
12406TIP3    H258634   4.705   5.478   0.145  0.8777  0.2334  1.3254
12407TIP3   OH258635   1.406   0.385   4.642 -0.0635  0.1345  0.7946
12407TIP3    H158636   1.359   0.468   4.641 -1.9594 -0.7869 -2.8544
12407TIP3    H258637   1.354   0.329   4.700 -1.7999  0.0787 -0.7194
12408TIP3   OH258638   4.838   3.302  12.271 -0.2119  0.4011 -0.1356
12408TIP3    H158639   4.877   3.214  12.274  0.0772  0.4153 -2.1839
12408TIP3    H258640   4.750   3.290  12.307 -0.3453 -0.8414 -0.8266
12409TIP3   OH258641   3.030   1.821  13.926  0.0577  0.1608 -0.8473
12409TIP3    H158642   2.973   1.834  14.002  0.2172 -1.0119 -0.5107
12409TIP3    H258643   3.074   1.906  13.914 -0.6645  0.6373 -0.2179
12410TIP3   OH258644   2.231   6.624   5.435  0.2174  0.4473 -0.3696
12410TIP3    H158645   2.174   6.629   5.358  1.3849 -0.9831 -1.3581
12410TIP3    H258646   2.196   6.552   5.487 -0.2869  1.1115  0.2385
12411TIP3   OH258647   5.972   6.760   1.464 -0.2806  0.3084  0.8244
12411TIP3    H158648   5.926   6.679   1.484  0.7067  0.1137  2.5016
12411TIP3    H258649   5.905   6.828   1.467 -1.1660 -0.4155 -0.8397
12412TIP3   OH258650   1.170   3.616   4.996  0.0493  0.2619 -0.1533
12412TIP3    H158651   1.254   3.601   5.039 -0.2464 -0.9284  0.0312
12412TIP3    H258652   1.185   3.592   4.905  0.5136  2.2310 -0.6490
12413TIP3   OH258653   1.858   0.236   5.604  0.0990  0.2517  0.1483
12413TIP3    H158654   1.861   0.182   5.525 -0.6212 -0.8438  0.8445
12413TIP3    H258655   1.934   0.208   5.654 -0.7100 -0.7194  0.8698
12414TIP3   OH258656   4.666   2.130  12.305  0.4149 -0.2925  1.0380
12414TIP3    H158657   4.648   2.131  12.399 -0.5983  0.6499  0.8673
12414TIP3    H258658   4.761   2.121  12.299  0.5006 -0.3408  2.1583
12415TIP3   OH258659   3.735   2.142  16.209 -0.3683  0.1628 -0.3824
12415TIP3    H158660   3.706   2.120  16.120  0.9595  0.8992 -1.0369
12415TIP3    H258661   3.664   2.112  16.266 -1.5057  0.1721 -1.7318
12416TIP3   OH258662   5.977   0.604   4.020 -0.0427 -0.4960 -0.2697
12416TIP3    H158663   5.951   0.602   3.928  0.0316 -1.5040 -0.2829
12416TIP3    H258664   6.028   0.683   4.029 -1.0132  0.2201 -0.8328
12417TIP3   OH258665   3.955   4.513   0.467  0.4199  0.0336 -0.4537
12417TIP3    H158666   3.995   4.510   0.555  0.3885 -1.0010 -0.4597
12417TIP3    H258667   4.019   4.559   0.413  1.5703 -1.4463 -0.4213
12418TIP3   OH258668   1.722   1.385  12.958 -0.3503  0.4869 -0.2509
12418TIP3    H158669   1.650   1.443  12.935 -1.2546  0.1760  1.6090
12418TIP3    H258670   1.794   1.444  12.981 -1.4953  0.9947  2.3852
12419TIP3   OH258671   6.721   1.098   4.072 -0.4378 -0.5503  0.5696
12419TIP3    H158672   6.770   1.063   3.997 -0.7297  0.6585 -0.2087
12419TIP3    H258673   6.665   1.026   4.100  1.8314 -2.0553  1.5876
12420TIP3   OH258674   5.945   6.517   3.775 -0.1855  0.3343 -0.8130
12420TIP3    H158675   6.035   6.551   3.780 -0.3206  0.5656  0.2777
12420TIP3    H258676   5.892   6.584   3.817 -0.7018 -0.3486 -0.3473
12421TIP3   OH258677   0.269   1.530   3.901  0.3825 -0.3171 -0.2354
12421TIP3    H158678   0.175   1.545   3.913  0.7513  0.6576  2.0714
12421TIP3    H258679   0.287   1.558   3.811 -1.9675 -3.3148 -1.8001
12422TIP3   OH258680   4.725   6.013   5.055  0.3328 -0.0560  0.0280
12422TIP3    H158681   4.720   6.108   5.046 -0.3453  0.0524  1.3005
12422TIP3    H258682   4.796   5.987   4.996 -1.0532  0.9424 -2.2134
12423TIP3   OH258683   2.033   1.124  16.743 -0.2127 -0.2595 -0.2636
12423TIP3    H158684   2.026   1.033  16.772  1.8406 -0.0182  1.2286
12423TIP3    H258685   2.079   1.168  16.814 -2.4371  2.3402 -0.2560
12424TIP3   OH258686   3.741   6.269  11.220 -0.3064 -0.2336 -0.2278
12424TIP3    H158687   3.726   6.225  11.304  0.4137 -1.2912 -0.6200
12424TIP3    H258688   3.794   6.206  11.170  1.5727  1.4409 -0.4923
12425TIP3   OH258689   3.286   5.167   1.021  0.4878  0.0716  0.1387
12425TIP3    H158690   3.260   5.258   1.004  0.3630  0.0226  0.0638
12425TIP3    H258691   3.288   5.159   1.116 -0.8302 -0.2189  0.1643
12426TIP3   OH258692   2.113   0.357  11.511  0.2240 -0.4820  0.0198
12426TIP3    H158693   2.072   0.418  11.451 -1.3682 -1.8728 -0.4021
12426TIP3    H258694   2.044   0.293  11.530  1.6147 -1.7698  0.9351
12427TIP3   OH258695   3.146   5.169  12.224 -0.2863  0.0291 -0.5344
12427TIP3    H158696   3.136   5.238  12.158  2.6831 -0.5498 -1.7557
12427TIP3    H258697   3.185   5.214  12.299  1.6259 -0.2070 -1.3215
12428TIP3   OH258698   5.128   1.636   6.475 -0.2570  0.6075  0.3298
12428TIP3    H158699   5.109   1.649   6.382  0.3107  0.4605  0.1917
12428TIP3    H258700   5.212   1.678   6.489 -0.6674  1.2490  0.9403
12429TIP3   OH258701   0.792   0.470  13.428 -0.2777 -0.1514  0.0203
12429TIP3    H158702   0.732   0.483  13.502  0.8509 -1.3816  1.1935
12429TIP3    H258703   0.834   0.555  13.416 -0.3128  0.0052  0.9425
12430TIP3   OH258704   3.004   3.660  11.370 -0.3677 -0.1954  0.0849
12430TIP3    H158705   3.015   3.755  11.373 -0.4966 -0.1524 -0.5922
12430TIP3    H258706   2.926   3.646  11.316 -0.2238 -0.6965 -0.0027
12431TIP3   OH258707   5.091   6.589  10.922 -0.6005  0.3439 -0.2155
12431TIP3    H158708   5.129   6.520  10.867 -2.2458 -1.6414  0.9995
12431TIP3    H258709   5.008   6.610  10.879 -0.8018  0.4870  0.2449
12432TIP3   OH258710   5.884   4.598  13.120  0.6317 -0.0185  0.2682
12432TIP3    H158711   5.816   4.571  13.182 -1.9039  0.9991 -1.9091
12432TIP3    H258712   5.876   4.536  13.047  1.9286  0.2540 -0.1210
12433TIP3   OH258713   1.091   2.896  14.033 -0.2553 -0.7266  0.0568
12433TIP3    H158714   1.094   2.984  14.071  0.8801 -0.5410 -0.4347
12433TIP3    H258715   1.034   2.847  14.092 -0.4725  0.1940  0.6385
12434TIP3   OH258716   2.296   6.598   3.386  0.4334  0.4130  0.0715
12434TIP3    H158717   2.384   6.609   3.349  0.6784 -0.4505  0.3691
12434TIP3    H258718   2.297   6.510   3.425 -0.6041  0.3376 -0.0356
12435TIP3   OH258719   4.404   2.657   6.534 -0.5907 -0.3615 -0.5297
12435TIP3    H158720   4.499   2.664   6.542 -0.7118  1.1563 -0.0302
12435TIP3    H258721   4.387   2.563   6.524  0.7695 -0.9708  1.9829
12436TIP3   OH258722   2.811   5.143   3.391  0.8481  0.1043 -0.0744
12436TIP3    H158723   2.889   5.139   3.446 -0.6445  1.2554  2.2749
12436TIP3    H258724   2.763   5.219   3.423 -1.2261 -0.5290 -1.4881
12437TIP3   OH258725   1.735   0.397  11.465 -0.4322 -0.1192 -0.6217
12437TIP3    H158726   1.720   0.461  11.395 -1.0168  1.7544  1.1040
12437TIP3    H258727   1.813   0.349  11.437 -2.5998 -1.9864 -4.2147
12438TIP3   OH258728   5.323   1.006  16.305  0.3110  0.2874  0.0576
12438TIP3    H158729   5.306   1.049  16.389  0.9169  0.9520 -0.1517
12438TIP3    H258730   5.250   1.034  16.249  0.0196  0.0134  0.2955
12439TIP3   OH258731   1.025   6.080  15.761 -0.5161  0.0414 -0.0140
12439TIP3    H158732   1.034   6.097  15.855  0.4585  1.4583 -0.3208
12439TIP3    H258733   0.942   6.033  15.753 -0.9954  0.5574  1.4813
12440TIP3   OH258734   0.438   6.466   0.261  0.1991 -0.7546  0.0891
12440TIP3    H158735   0.474   6.417   0.335  0.2459 -0.2869  0.3748
12440TIP3    H258736   0.471   6.418   0.184  0.1538 -1.2375  0.3635
12441TIP3   OH258737   3.269   1.451  16.228  0.1447 -0.4837  0.3311
12441TIP3    H158738   3.231   1.535  16.252 -0.7595 -1.3604  2.1393
12441TIP3    H258739   3.348   1.474  16.179 -1.3238  1.3745 -1.3051
12442TIP3   OH258740   5.979   3.764  16.275 -0.1433  0.6495  0.3857
12442TIP3    H158741   5.898   3.814  16.286 -0.7975 -0.2608 -0.0821
12442TIP3    H258742   6.049   3.829  16.278 -0.9140  1.4929  0.4703
12443TIP3   OH258743   1.454   1.274  13.407  0.2586 -0.3969 -0.2119
12443TIP3    H158744   1.495   1.193  13.378 -0.3077  0.1236 -2.7584
12443TIP3    H258745   1.518   1.342  13.386 -0.8660  0.1798 -1.9700
12444TIP3   OH258746   5.361   6.230   0.605 -0.6157 -0.2965  0.0584
12444TIP3    H158747   5.419   6.202   0.675  1.1827  0.8440 -0.9115
12444TIP3    H258748   5.414   6.224   0.525 -1.3405  2.1100 -0.6942
12445TIP3   OH258749   2.763   0.637  10.302  0.2803 -0.7713 -0.1008
12445TIP3    H158750   2.781   0.552  10.264 -0.7872 -0.9590 -0.2249
12445TIP3    H258751   2.678   0.627  10.345  0.6251 -0.0669  0.7995
12446TIP3   OH258752   1.456   2.725  15.715  0.4256 -0.2177 -0.2284
12446TIP3    H158753   1.535   2.763  15.755  0.2518 -0.4502  0.3417
12446TIP3    H258754   1.449   2.638  15.753 -1.0619  0.4247  1.0543
12447TIP3   OH258755   0.221   2.769   3.570 -0.0265  0.3521  0.7284
12447TIP3    H158756   0.177   2.770   3.655  0.0496 -0.7817  0.8052
12447TIP3    H258757   0.192   2.849   3.527  1.0995  1.7403  2.3981
12448TIP3   OH258758   3.944   1.421  11.859  0.5644  0.0041  0.4131
12448TIP3    H158759   4.015   1.388  11.914  0.2679  0.2586  0.9497
12448TIP3    H258760   3.981   1.423  11.771  1.1821  0.0092  0.6716
12449TIP3   OH258761   5.044   1.545   4.519 -0.2117  0.2744  0.1580
12449TIP3    H158762   5.074   1.636   4.531 -1.1570  0.6036  0.1099
12449TIP3    H258763   4.951   1.547   4.542 -0.0049 -0.9170  1.1951
12450TIP3   OH258764   4.544   1.312  12.072  0.1858  0.2483 -0.3842
12450TIP3    H158765   4.625   1.261  12.071  0.9661  1.4264 -1.2850
12450TIP3    H258766   4.563   1.387  12.016 -1.1883  1.1037  0.2430
12451TIP3   OH258767   5.703   1.817  15.778  0.4600 -0.3111 -0.6588
12451TIP3    H158768   5.789   1.856  15.762  0.7475 -0.1369  1.1615
12451TIP3    H258769   5.706   1.733  15.731  1.6718 -0.3678 -0.5140
12452TIP3   OH258770   5.069   2.274   0.831  0.4355 -0.5174 -0.0904
12452TIP3    H158771   5.017   2.197   0.851  2.0328 -1.6253 -0.0634
12452TIP3    H258772   5.102   2.259   0.742  2.1711 -0.7316  0.5453
12453TIP3   OH258773   3.930   0.440  16.519  0.0043  0.7140 -0.0845
12453TIP3    H158774   3.911   0.346  16.526  1.4491  0.2294 -1.8637
12453TIP3    H258775   3.954   0.466  16.608 -1.4661 -0.3307  0.6556
12454TIP3   OH258776   5.680   6.031  15.145 -0.2727 -0.0165 -0.0845
12454TIP3    H158777   5.766   5.992  15.161  1.3266  1.6238 -3.6433
12454TIP3    H258778   5.624   5.957  15.122  0.0680 -1.1251  2.3916
12455TIP3   OH258779   6.425   2.633   2.711  0.2947  0.1661  0.0162
12455TIP3    H158780   6.484   2.706   2.693 -0.5140  0.4054 -1.9754
12455TIP3    H258781   6.410   2.593   2.625 -2.8451  0.4393  0.3218
12456TIP3   OH258782   1.408   4.892  15.841 -0.4943 -0.2169 -0.0111
12456TIP3    H158783   1.321   4.928  15.824  0.1025  1.6732  0.6019
12456TIP3    H258784   1.395   4.797  15.846 -2.2944 -0.0704 -1.0995
12457TIP3   OH258785   2.406   3.810   1.401 -0.4630  0.1365 -0.2056
12457TIP3    H158786   2.313   3.792   1.415 -1.0352  3.2050  0.4604
12457TIP3    H258787   2.428   3.877   1.465  2.4664 -1.0382  0.1725
12458TIP3   OH258788   5.119   6.676   5.445  0.6282  0.0949  0.0955
12458TIP3    H158789   5.081   6.645   5.528 -0.2727 -0.4765 -0.5058
12458TIP3    H258790   5.055   6.738   5.411 -0.7412 -2.1632 -1.7849
12459TIP3   OH258791   5.832   5.521   2.786  0.5867 -0.0044 -0.1317
12459TIP3    H158792   5.919   5.561   2.789  1.6026 -2.0053 -0.8697
12459TIP3    H258793   5.823   5.476   2.870  0.7747 -0.7496 -0.5011
12460TIP3   OH258794   1.059   1.605   2.476  0.4175  0.6095  0.7563
12460TIP3    H158795   1.143   1.621   2.520  0.7677  0.3505  0.1845
12460TIP3    H258796   0.994   1.636   2.539  0.8354 -1.0022  2.0396
12461TIP3   OH258797   1.957   6.431  14.834 -0.1082  0.3327 -0.0469
12461TIP3    H158798   1.969   6.521  14.803  1.5376 -0.0163 -0.5085
12461TIP3    H258799   2.035   6.385  14.805 -0.6683 -1.1289  0.6676
12462TIP3   OH258800   3.102   0.494  13.057 -0.1149  0.2571 -0.7882
12462TIP3    H158801   3.028   0.440  13.031 -0.5206 -0.7153  2.0815
12462TIP3    H258802   3.127   0.540  12.977 -1.4320 -2.1734 -2.7258
12463TIP3   OH258803   5.694   4.898   5.792  0.2138 -0.3123  0.1872
12463TIP3    H158804   5.723   4.877   5.881 -1.1876 -0.3133  0.6603
12463TIP3    H258805   5.649   4.819   5.763 -1.9287  0.6914  0.6192
12464TIP3   OH258806   6.331   4.865  13.869 -0.2999 -0.0180  0.5819
12464TIP3    H158807   6.256   4.905  13.825  0.9043  1.4461 -0.2247
12464TIP3    H258808   6.353   4.789  13.816 -0.0731  0.6128 -0.2409
12465TIP3   OH258809   0.298   1.752   1.023 -0.1791  0.2285 -0.2828
12465TIP3    H158810   0.304   1.847   1.034 -0.0749  0.2671 -0.6525
12465TIP3    H258811   0.364   1.717   1.082 -0.7140  0.3453  0.4116
12466TIP3   OH258812   4.492   2.543  12.029 -0.1866  0.2402  0.1633
12466TIP3    H158813   4.580   2.506  12.027 -0.8933 -1.5714 -0.7258
12466TIP3    H258814   4.436   2.469  12.004 -1.6860  2.0912 -2.3003
12467TIP3   OH258815   3.276   1.064   0.240 -0.5904  0.3319  0.4244
12467TIP3    H158816   3.258   0.972   0.258  0.3543 -0.0300 -0.3789
12467TIP3    H258817   3.349   1.086   0.299  0.1120  0.1544 -0.3556
12468TIP3   OH258818   6.384   5.077   3.061 -0.2126  0.1371  0.5336
12468TIP3    H158819   6.385   5.037   2.974  0.0219  1.6343 -0.1836
12468TIP3    H258820   6.329   5.019   3.114 -2.7043  0.6370 -1.3360
12469TIP3   OH258821   3.830   3.231  12.728  0.3026  0.8738 -0.0080
12469TIP3    H158822   3.777   3.161  12.767  0.1023 -0.4634 -2.4984
12469TIP3    H258823   3.774   3.270  12.661  2.0223  0.0667 -2.0319
12470TIP3   OH258824   1.110   4.579  17.174  0.1328 -0.4043  0.3152
12470TIP3    H158825   1.169   4.646  17.141 -0.1460  0.5343  1.6457
12470TIP3    H258826   1.024   4.604  17.141 -0.0020  0.0189  0.9725
12471TIP3   OH258827   4.438   3.014  17.105 -0.2504  0.4619 -0.1551
12471TIP3    H158828   4.483   3.098  17.104 -0.5244  0.6332  0.6218
12471TIP3    H258829   4.508   2.949  17.115 -0.0226  0.5733 -0.9507
12472TIP3   OH258830   2.074   3.002   0.046  0.1846 -1.1013  0.7400
12472TIP3    H158831   1.979   2.999   0.061  0.0675  0.0005  0.3259
12472TIP3    H258832   2.083   3.051  -0.035  1.0409 -2.7952 -0.2359
12473TIP3   OH258833   1.389   0.026  16.696  0.3061 -0.8995 -0.1497
12473TIP3    H158834   1.424  -0.019  16.773  0.4166 -2.7433 -1.2102
12473TIP3    H258835   1.320  -0.033  16.663 -3.4189  2.1628  1.3820
12474TIP3   OH258836   0.429   5.284   5.017 -0.3207 -0.2753 -0.2958
12474TIP3    H158837   0.457   5.232   5.093 -0.0019  1.1552  0.5898
12474TIP3    H258838   0.457   5.232   4.941  0.8543 -0.9457  0.5650
12475TIP3   OH258839   4.473   0.512   1.981  0.4643  0.4710  0.2753
12475TIP3    H158840   4.382   0.539   1.990  0.7831  1.4787  0.5941
12475TIP3    H258841   4.473   0.449   1.909 -0.2506  1.6259 -0.7494
12476TIP3   OH258842   6.120   1.339   4.980 -0.1458 -0.2365  0.0398
12476TIP3    H158843   6.100   1.246   4.972 -1.8391  0.1764 -0.9773
12476TIP3    H258844   6.036   1.380   5.000  0.0102  1.3689 -2.2157
12477TIP3   OH258845   4.968   1.360  15.596 -0.6394 -0.3873  0.0904
12477TIP3    H158846   4.999   1.400  15.677 -1.0071 -1.3916  0.7451
12477TIP3    H258847   4.908   1.424  15.559 -0.7192 -0.0520  0.7797
12478TIP3   OH258848   1.188   3.878  11.274 -0.4415 -0.0193 -0.4904
12478TIP3    H158849   1.202   3.953  11.216 -0.9382  0.8439  0.4709
12478TIP3    H258850   1.235   3.900  11.354 -1.9424  0.0452  0.4153
12479TIP3   OH258851   0.152   3.806   3.214  0.1314  0.3917  0.3840
12479TIP3    H158852   0.215   3.737   3.232  1.3503  1.3944  0.0648
12479TIP3    H258853   0.203   3.876   3.173 -0.8329  1.9365  1.6883
12480TIP3   OH258854   6.299   2.768  10.207  0.1697  0.4754  0.2827
12480TIP3    H158855   6.313   2.863  10.196  0.2445  0.5777  1.1951
12480TIP3    H258856   6.216   2.751  10.161  0.5242  0.8402 -0.5237
12481TIP3   OH258857   3.407   2.971  14.132 -0.0222 -0.0044  0.1343
12481TIP3    H158858   3.420   2.896  14.190 -1.2202  0.9517  1.7404
12481TIP3    H258859   3.331   2.948  14.079 -0.1851 -0.0568  0.3919
12482TIP3   OH258860   6.315   2.035   6.286 -0.2909  0.3202 -0.9710
12482TIP3    H158861   6.406   2.052   6.310 -0.7392 -1.2871  2.4759
12482TIP3    H258862   6.317   1.949   6.242 -0.3016 -0.8959  1.2776
12483TIP3   OH258863   3.084   5.024   6.310 -0.3984 -0.0899  0.6035
12483TIP3    H158864   3.151   5.033   6.377 -1.5922 -0.1049  1.8531
12483TIP3    H258865   3.108   5.087   6.243  0.5496  0.3097  1.3000
12484TIP3   OH258866   6.010   1.693   4.177 -0.0234  0.6417 -0.2468
12484TIP3    H158867   6.042   1.693   4.086 -1.8281  1.4998 -0.9237
12484TIP3    H258868   5.976   1.781   4.190 -1.3499  0.0068  0.6883
12485TIP3   OH258869   5.101   3.835  13.368  0.2176  0.4970  0.3398
12485TIP3    H158870   5.042   3.897  13.410  2.1359  1.8785  1.1122
12485TIP3    H258871   5.099   3.859  13.275  0.1711  1.0498  0.4815
12486TIP3   OH258872   5.825   3.332  14.192  0.0436  0.2554  0.2812
12486TIP3    H158873   5.802   3.277  14.267  0.6544 -0.2197  0.1290
12486TIP3    H258874   5.858   3.413  14.229  0.2461  0.0614  0.5262
12487TIP3   OH258875   2.410   3.783  15.164 -0.1016 -0.2311 -0.0413
12487TIP3    H158876   2.315   3.775  15.170 -0.2365 -1.1599 -2.1740
12487TIP3    H258877   2.438   3.812  15.250 -2.0109 -3.0484  1.7058
12488TIP3   OH258878   1.253   5.204  16.708  0.1580  0.2593 -0.1527
12488TIP3    H158879   1.214   5.117  16.697  0.8531 -0.3119  1.6047
12488TIP3    H258880   1.313   5.195  16.782  2.6473  1.4310 -1.8524
12489TIP3   OH258881   0.607   5.336  13.985 -0.8657  0.1356 -0.4921
12489TIP3    H158882   0.534   5.339  14.046 -0.9043  0.6335 -0.5577
12489TIP3    H258883   0.648   5.422  13.992  0.7573 -0.6804  0.8157
12490TIP3   OH258884   0.065   3.680   1.638  0.2285  0.6160 -0.3305
12490TIP3    H158885   0.102   3.597   1.609  0.1517  0.6990 -0.6666
12490TIP3    H258886  -0.001   3.655   1.703 -1.0300  0.2765 -1.6691
12491TIP3   OH258887   4.736   1.543  13.775 -0.9447  0.4710 -0.7188
12491TIP3    H158888   4.695   1.600  13.712  2.3146  0.8906 -2.7062
12491TIP3    H258889   4.761   1.465  13.725 -0.8140 -0.4594  0.7271
12492TIP3   OH258890   6.422   1.119  15.425  0.1075 -0.6302 -0.2117
12492TIP3    H158891   6.482   1.141  15.496  2.0983  1.0704 -2.2208
12492TIP3    H258892   6.335   1.142  15.458  0.9090 -0.2180  1.7494
12493TIP3   OH258893   1.422   3.022  11.101  0.5986  0.3551 -0.2105
12493TIP3    H158894   1.468   2.944  11.130 -1.1972 -0.9851 -0.7909
12493TIP3    H258895   1.488   3.091  11.103  1.8392 -0.7929  1.8947
12494TIP3   OH258896   5.019   3.794  16.796  0.3837 -0.0017 -0.1827
12494TIP3    H158897   5.083   3.738  16.752 -0.6800 -0.1366 -1.6451
12494TIP3    H258898   5.042   3.789  16.889  2.1158 -0.4976 -0.6043
12495TIP3   OH258899   4.788   3.617  11.182  0.7152  0.2629 -0.4366
12495TIP3    H158900   4.837   3.689  11.223  0.7568  0.3373 -0.6150
12495TIP3    H258901   4.742   3.574  11.255  0.8906  0.3141 -0.2940
12496TIP3   OH258902   6.180   2.458   3.053 -0.5409 -0.8584 -0.5428
12496TIP3    H158903   6.108   2.426   3.107 -0.6321  0.7812  0.3892
12496TIP3    H258904   6.218   2.529   3.104 -1.4930  1.7453 -3.1436
12497TIP3   OH258905   1.690   6.457   2.210  0.3765  0.2941 -0.1683
12497TIP3    H158906   1.713   6.503   2.130  0.1820  0.0658 -0.3575
12497TIP3    H258907   1.623   6.513   2.251 -0.5937 -0.3002 -0.8958
12498TIP3   OH258908   4.466   4.955  17.114  0.1936 -0.0869 -0.2124
12498TIP3    H158909   4.560   4.938  17.119  0.3568  0.8688  0.1328
12498TIP3    H258910   4.427   4.889  17.173  0.7095 -0.0053  0.2282
12499TIP3   OH258911   0.756   0.711  13.752 -0.0736 -0.9596  0.1389
12499TIP3    H158912   0.754   0.792  13.804 -0.1674 -1.4725  0.9652
12499TIP3    H258913   0.739   0.739  13.662  1.0925  0.0870  0.2156
12500TIP3   OH258914   6.796   1.291  15.095  0.1521 -0.6866  0.0866
12500TIP3    H158915   6.702   1.309  15.092  0.5235  1.5151 -0.2003
12500TIP3    H258916   6.812   1.258  15.183 -0.7279 -0.0072  0.5085
12501TIP3   OH258917   3.158   4.548  13.052 -0.0097  0.7855  0.4003
12501TIP3    H158918   3.174   4.523  13.143  2.6732 -1.4163 -0.5456
12501TIP3    H258919   3.222   4.617  13.035  1.5910 -0.8449 -0.5394
12502TIP3   OH258920   5.921   0.991   2.357  0.6291  0.3416  0.0480
12502TIP3    H158921   5.924   1.086   2.343 -0.4505  0.5434  0.9804
12502TIP3    H258922   5.926   0.953   2.269  0.3081  1.2950 -0.3976
12503TIP3   OH258923   4.228   6.560  13.919 -0.7359  0.5457 -0.0886
12503TIP3    H158924   4.269   6.526  13.998 -0.9988 -1.4492 -0.7539
12503TIP3    H258925   4.167   6.491  13.892 -0.6749  1.1857 -2.0102
12504TIP3   OH258926   1.245   1.980  16.175  0.0126  0.1952  0.1210
12504TIP3    H158927   1.227   2.033  16.253  1.2026  0.3511  0.3208
12504TIP3    H258928   1.250   1.890  16.208 -0.6141  0.1200  0.0212
12505TIP3   OH258929   1.462   0.272  12.677  0.4743 -0.6803  0.5584
12505TIP3    H158930   1.526   0.338  12.651  0.0175  1.1521  3.5361
12505TIP3    H258931   1.514   0.202  12.716  0.7973 -0.2175  0.9751
12506TIP3   OH258932   2.640   0.045  11.256 -0.1367  0.5664  0.1210
12506TIP3    H158933   2.630   0.134  11.290  1.4418  0.8551 -0.0934
12506TIP3    H258934   2.660   0.057  11.163 -3.0387 -0.1669 -0.7055
12507TIP3   OH258935   4.274   4.729  17.132 -0.6737 -0.2555  0.4192
12507TIP3    H158936   4.349   4.674  17.156 -0.0842  0.3868  0.0728
12507TIP3    H258937   4.245   4.695  17.048 -0.1532  0.1146  0.0861
12508TIP3   OH258938   3.594   0.315  12.996 -0.4053  0.1797 -0.1915
12508TIP3    H158939   3.505   0.347  13.014 -0.6011 -0.8427  0.7879
12508TIP3    H258940   3.587   0.220  13.006  0.9740  0.1461  0.6914
12509TIP3   OH258941   6.127   2.522  15.890  0.4278  0.3569  0.3416
12509TIP3    H158942   6.128   2.610  15.854  3.1832  0.3437  0.1060
12509TIP3    H258943   6.087   2.531  15.976 -0.8020  1.4936 -0.3148
12510TIP3   OH258944   5.616   5.221  13.684 -0.2775 -0.7659  0.3142
12510TIP3    H158945   5.556   5.205  13.611 -1.9254  0.8856  1.2040
12510TIP3    H258946   5.606   5.314  13.702  0.9124 -0.9252  1.9512
12511TIP3   OH258947   4.010   2.376   5.030  0.5596 -0.0800  0.0066
12511TIP3    H158948   3.921   2.403   5.008  1.0968  1.9712  0.1295
12511TIP3    H258949   4.017   2.286   4.997 -1.4725 -0.2280 -0.1577
12512TIP3   OH258950   4.148   0.292   5.725 -0.1996  0.3165 -0.5169
12512TIP3    H158951   4.217   0.231   5.697  0.0786  0.5593 -0.3618
12512TIP3    H258952   4.070   0.237   5.734  0.3172 -0.2266  0.7383
12513TIP3   OH258953   6.795   3.461  11.883  0.0513  0.3695 -0.1402
12513TIP3    H158954   6.888   3.460  11.903 -0.3387  1.2838  1.9810
12513TIP3    H258955   6.777   3.373  11.848  1.4752 -0.2109  0.5018
12514TIP3   OH258956   1.826   4.577  16.170 -0.5629  0.0504 -0.3315
12514TIP3    H158957   1.858   4.488  16.156 -1.3984 -0.4923  1.0733
12514TIP3    H258958   1.786   4.602  16.087  1.6912  0.0150 -1.4948
12515TIP3   OH258959   4.497   3.771   3.526 -0.3331 -0.1968 -0.0056
12515TIP3    H158960   4.424   3.825   3.495  0.4200  0.4121 -0.7864
12515TIP3    H258961   4.485   3.687   3.482 -0.6464 -0.1499 -0.0117
12516TIP3   OH258962   2.867   6.693   4.944 -0.6518 -0.2719 -0.2981
12516TIP3    H158963   2.843   6.700   4.851  0.1093 -1.8318 -0.6441
12516TIP3    H258964   2.915   6.610   4.950  1.1508  0.8146  1.1072
12517TIP3   OH258965   4.793   5.626  14.920  0.0844  0.1493  0.0512
12517TIP3    H158966   4.790   5.693  14.852  0.8320 -0.8216 -0.9810
12517TIP3    H258967   4.864   5.568  14.893 -2.1569 -2.5356 -0.5044
12518TIP3   OH258968   0.160   2.106   4.451 -0.5053  0.3975  0.4380
12518TIP3    H158969   0.121   2.074   4.370 -0.2702 -1.5156  1.0313
12518TIP3    H258970   0.176   2.199   4.435 -1.1182  0.2204 -1.4331
12519TIP3   OH258971   3.360   6.390  15.699 -0.0122  0.0409  0.2908
12519TIP3    H158972   3.332   6.319  15.641  0.9028  1.7825 -2.4551
12519TIP3    H258973   3.290   6.455  15.693  0.3730  0.5054  0.7257
12520TIP3   OH258974   2.079   1.676  11.775  0.3240  0.1575  0.1475
12520TIP3    H158975   2.042   1.597  11.734 -2.2292  1.2854  0.1005
12520TIP3    H258976   2.058   1.746  11.714 -0.0019  1.2858  1.5229
12521TIP3   OH258977   5.089   0.466  11.397  1.2787 -0.7953  0.0317
12521TIP3    H158978   5.027   0.433  11.462  1.5605  0.3587  0.9197
12521TIP3    H258979   5.175   0.454  11.437  1.5602 -1.2601 -0.6834
12522TIP3   OH258980   3.492   3.764   5.738 -0.0019  0.4683 -0.3943
12522TIP3    H158981   3.559   3.805   5.793 -0.2491  1.3688 -0.7481
12522TIP3    H258982   3.541   3.716   5.671  0.4134 -2.9188  2.0704
12523TIP3   OH258983   4.461   2.229   2.926  0.7077  0.0006  0.0580
12523TIP3    H158984   4.477   2.309   2.975  0.5372  1.2116 -1.7544
12523TIP3    H258985   4.486   2.251   2.836 -0.5878 -1.5630 -0.7351
12524TIP3   OH258986   1.716   1.055   1.101 -0.1697  0.1208  0.3434
12524TIP3    H158987   1.737   1.138   1.145  1.5614 -0.1240  0.0310
12524TIP3    H258988   1.645   1.078   1.041  0.1317  1.3373  0.4242
12525TIP3   OH258989   1.358   6.071   4.329 -0.4189 -0.1294  0.4913
12525TIP3    H158990   1.308   6.151   4.346  0.8548  0.7066  0.4482
12525TIP3    H258991   1.409   6.091   4.250 -0.0461 -0.9716  0.5065
12526TIP3   OH258992   5.541   1.664   2.792  0.2659 -0.0300 -0.4520
12526TIP3    H158993   5.489   1.725   2.844  0.3153 -1.7145  1.7047
12526TIP3    H258994   5.477   1.621   2.734  0.1548  1.6004 -1.6139
12527TIP3   OH258995   5.215   5.875  14.578  0.3899  0.3027  0.0734
12527TIP3    H158996   5.217   5.779  14.576  2.5728  0.1949  2.4801
12527TIP3    H258997   5.126   5.897  14.552 -0.5091 -2.4202  0.4830
12528TIP3   OH258998   3.316   5.855   4.678  0.3741  0.1042 -0.6601
12528TIP3    H158999   3.260   5.828   4.751  1.5019 -3.2400 -0.8835
12528TIP3    H259000   3.387   5.904   4.720 -1.5096  2.6761 -0.1842
12529TIP3   OH259001   2.736   1.708   2.423 -0.2316  0.5698  0.8275
12529TIP3    H159002   2.807   1.644   2.418 -0.6213  0.2043 -0.3023
12529TIP3    H259003   2.663   1.660   2.461 -0.3723  0.4807  0.4466
12530TIP3   OH259004   2.808   4.029  15.547  0.1158 -0.2308  0.1133
12530TIP3    H159005   2.815   4.114  15.504 -1.4089 -0.7349 -1.2518
12530TIP3    H259006   2.775   3.970  15.478  0.6389 -1.8015  1.1608
12531TIP3   OH259007   4.915   5.160  12.034 -0.6456 -0.0924 -0.2628
12531TIP3    H159008   4.979   5.180  11.966 -0.4796  0.1503 -0.0361
12531TIP3    H259009   4.966   5.118  12.103 -0.7509  0.0011 -0.1289
12532TIP3   OH259010   2.475   5.684  11.089 -0.5144  0.2057 -0.4840
12532TIP3    H159011   2.481   5.612  11.151 -1.4472  0.1631 -0.4218
12532TIP3    H259012   2.439   5.645  11.009 -2.3295  0.8042 -0.0206
12533TIP3   OH259013   5.522   6.478   6.853 -0.3991 -0.6378 -0.1510
12533TIP3    H159014   5.584   6.531   6.804 -1.3648  2.5795  1.8113
12533TIP3    H259015   5.514   6.397   6.803  0.7921  1.2414 -3.6665
12534TIP3   OH259016   2.249   6.366  13.180 -0.3949  0.1464 -0.2788
12534TIP3    H159017   2.252   6.308  13.104 -1.2289 -1.3083  0.7340
12534TIP3    H259018   2.340   6.387  13.198  0.0139 -1.5976 -0.1618
12535TIP3   OH259019   5.527   4.309   3.536 -0.1645  0.0604  0.0708
12535TIP3    H159020   5.432   4.298   3.528  0.0705 -1.5036 -1.0102
12535TIP3    H259021   5.547   4.386   3.483 -0.6335 -0.7152 -1.2866
12536TIP3   OH259022   6.543   5.130   3.771 -0.4240  0.2490 -0.4435
12536TIP3    H159023   6.467   5.083   3.736  2.0733 -1.3357 -4.3954
12536TIP3    H259024   6.582   5.173   3.695  3.5244 -0.3665  0.9887
12537TIP3   OH259025   6.358   1.993   4.094  0.0184 -0.1271  0.2588
12537TIP3    H159026   6.276   2.018   4.136  1.1713  0.4657  2.3035
12537TIP3    H259027   6.369   1.901   4.116  0.2941  0.0053  0.6746
12538TIP3   OH259028   1.630   1.623  13.651  0.5366 -0.3077 -0.0894
12538TIP3    H159029   1.606   1.620  13.558 -1.3488 -3.2985  0.3529
12538TIP3    H259030   1.612   1.713  13.678 -0.1051  0.2985 -2.3171
12539TIP3   OH259031   4.292   4.276   1.397  0.1186 -0.1430 -0.5440
12539TIP3    H159032   4.251   4.360   1.420 -2.2959 -0.5597 -2.8668
12539TIP3    H259033   4.229   4.210   1.425  1.9551 -1.2643  1.1734
12540TIP3   OH259034   4.891   0.466  10.770  0.0591 -0.3992 -0.1090
12540TIP3    H159035   4.807   0.420  10.775  0.5995 -1.4594 -0.4811
12540TIP3    H259036   4.867   0.557  10.753 -1.0154 -0.6882 -0.2358
12541TIP3   OH259037   4.067   4.044  10.492 -0.1815  0.2433  0.4909
12541TIP3    H159038   4.062   4.112  10.559 -0.1603 -0.4249  1.1712
12541TIP3    H259039   4.153   4.056  10.451 -0.3190  0.8425  0.3696
12542TIP3   OH259040   0.699   4.850   3.024 -0.0139  0.0611  0.1274
12542TIP3    H159041   0.687   4.878   2.933 -0.3863 -2.8289 -0.8154
12542TIP3    H259042   0.784   4.808   3.025 -0.5780 -1.1000  0.7802
12543TIP3   OH259043   3.996   2.661  14.699 -0.7441  0.1856 -0.0186
12543TIP3    H159044   4.076   2.705  14.672 -1.5078  1.1850 -0.7601
12543TIP3    H259045   4.025   2.579  14.738  0.6896  1.0231  0.7555
12544TIP3   OH259046   0.666   2.278  10.172  0.3749  0.1358 -0.0066
12544TIP3    H159047   0.695   2.213  10.108 -0.1669 -0.8875  0.7670
12544TIP3    H259048   0.695   2.245  10.256 -0.4841  0.5505  0.4736
12545TIP3   OH259049   3.035   5.848   1.006  0.2116  0.1099  0.5323
12545TIP3    H159050   3.008   5.936   0.980  0.9626  0.1604 -0.1168
12545TIP3    H259051   2.959   5.811   1.050 -1.0387  0.1033 -1.5254
12546TIP3   OH259052   6.662   2.133  11.514  0.3699  0.5555  0.3914
12546TIP3    H159053   6.666   2.134  11.418 -0.1011  2.1117  0.3535
12546TIP3    H259054   6.568   2.132  11.534  0.4702 -0.6379  0.8566
12547TIP3   OH259055   4.499   4.603   1.006  0.1507  0.1975  0.2599
12547TIP3    H159056   4.574   4.647   1.046  1.0814 -0.0056 -1.1925
12547TIP3    H259057   4.423   4.653   1.037  1.1165  2.5659 -0.9150
12548TIP3   OH259058   4.447   2.701  16.908 -0.2950 -0.1462  0.2082
12548TIP3    H159059   4.453   2.717  16.813  1.4586  1.2437  0.5095
12548TIP3    H259060   4.381   2.763  16.938  0.2983  0.5573  0.1002
12549TIP3   OH259061   6.409   4.530   3.666 -0.3501 -0.1520  0.0920
12549TIP3    H159062   6.369   4.509   3.750 -0.1078 -1.0786 -0.0162
12549TIP3    H259063   6.503   4.516   3.680 -0.2015  0.6569 -0.0525
12550TIP3   OH259064   3.449   0.865  15.141 -0.1060  0.1142  0.4961
12550TIP3    H159065   3.529   0.918  15.147  0.7053 -0.9386 -0.4924
12550TIP3    H259066   3.393   0.915  15.081  0.1767  0.4211  0.4799
12551TIP3   OH259067   1.920   1.232  12.174  0.1034 -0.4709 -0.6907
12551TIP3    H159068   1.869   1.309  12.200  1.1949  0.4824 -1.2690
12551TIP3    H259069   2.006   1.268  12.150  0.3768 -1.7835 -1.7498
12552TIP3   OH259070   0.704   1.117  15.423  0.0099  0.2752  0.4188
12552TIP3    H159071   0.704   1.210  15.445  0.0579  0.1624  0.9193
12552TIP3    H259072   0.656   1.111  15.341  1.3223  0.9327 -0.4260
12553TIP3   OH259073   2.231   3.658  13.997  0.7074 -0.2064 -0.6618
12553TIP3    H159074   2.188   3.573  13.986  3.1722 -1.7044  0.4460
12553TIP3    H259075   2.301   3.641  14.060  0.0751  3.1312  1.1827
12554TIP3   OH259076   0.665   6.265  13.273  0.2477  0.4713 -0.3290
12554TIP3    H159077   0.683   6.296  13.361  2.3925 -2.7484  0.5713
12554TIP3    H259078   0.573   6.284  13.258 -0.4251  0.3276  3.0166
12555TIP3   OH259079   6.469   6.015  11.235  0.3947 -0.2963 -0.3469
12555TIP3    H159080   6.390   6.035  11.185  2.1354  1.7588 -2.5328
12555TIP3    H259081   6.518   6.097  11.236  1.6885 -0.9613  2.6222
12556TIP3   OH259082   4.348   2.620  16.445  0.2738  0.6443 -0.6726
12556TIP3    H159083   4.280   2.595  16.508  1.1407  1.1769  0.5185
12556TIP3    H259084   4.300   2.658  16.372 -1.0323 -3.1335 -2.0102
12557TIP3   OH259085   5.823   1.987  11.267 -0.5364 -0.1426  0.4496
12557TIP3    H159086   5.778   1.903  11.266 -3.2122  1.1908  0.9065
12557TIP3    H259087   5.868   1.991  11.182 -0.9520 -1.7117  0.1274
12558TIP3   OH259088   1.174   3.894   0.971  0.8153  0.3624 -0.5170
12558TIP3    H159089   1.111   3.855   0.910 -0.3357  2.4299 -0.7276
12558TIP3    H259090   1.259   3.859   0.943 -0.1604 -2.4982 -0.2157
12559TIP3   OH259091   0.483   6.402  15.620 -0.1315  0.1248 -0.0708
12559TIP3    H159092   0.468   6.443  15.705 -0.2638 -0.1272  0.0260
12559TIP3    H259093   0.427   6.452  15.560 -1.6295 -0.9995  0.3359
12560TIP3   OH259094   4.923   3.522  10.959 -0.0976  0.5612 -0.3689
12560TIP3    H159095   4.848   3.523  10.900  0.4972  1.9400 -1.1471
12560TIP3    H259096   4.885   3.535  11.046 -0.8513  0.1505 -0.6330
12561TIP3   OH259097   6.431   5.371   2.244 -0.4006 -0.3575 -0.3162
12561TIP3    H159098   6.450   5.368   2.338 -1.1104  0.5860 -0.1380
12561TIP3    H259099   6.431   5.279   2.218  0.4628 -0.6046  0.4634
12562TIP3   OH259100   5.978   1.857   2.858  0.1218 -0.4397 -0.5800
12562TIP3    H159101   5.902   1.856   2.800 -1.1906 -2.9750  1.0183
12562TIP3    H259102   5.954   1.800   2.930  2.9649 -0.0351  0.8182
12563TIP3   OH259103   5.773   2.394  16.405  0.4301  0.0920 -0.1294
12563TIP3    H159104   5.834   2.446  16.457  1.7746 -1.0008 -0.5384
12563TIP3    H259105   5.820   2.377  16.323  0.3145 -2.2235  0.2072
12564TIP3   OH259106   4.461   1.597   2.221 -0.7316  0.2535 -0.6463
12564TIP3    H159107   4.502   1.523   2.265 -1.2304 -0.6979 -1.7216
12564TIP3    H259108   4.375   1.564   2.193 -0.3908  0.7409 -2.4160
12565TIP3   OH259109   1.521   2.464   1.209  0.1783 -0.1190 -0.4788
12565TIP3    H159110   1.530   2.428   1.121  2.0721  0.5956 -0.6401
12565TIP3    H259111   1.587   2.416   1.260 -1.6684 -1.3345  0.8722
12566TIP3   OH259112   4.279   4.901   3.032  0.1411  0.7236 -0.0252
12566TIP3    H159113   4.199   4.890   2.981 -0.1305  0.0800  0.5271
12566TIP3    H259114   4.256   4.868   3.119  1.4659 -0.9534 -0.2681
12567TIP3   OH259115   4.493   0.163  10.987  0.2788 -0.0629  0.0258
12567TIP3    H159116   4.519   0.080  10.948  1.1087  1.4266 -2.8902
12567TIP3    H259117   4.508   0.151  11.081  2.1016 -2.5761 -0.4753
12568TIP3   OH259118   5.884   2.763  13.027  0.0715  0.1121  0.4298
12568TIP3    H159119   5.940   2.839  13.041 -1.8565  1.5649  0.7014
12568TIP3    H259120   5.933   2.689  13.064  1.7443  1.2967  0.6886
12569TIP3   OH259121   2.436   2.189   4.047 -0.2772  0.4158 -0.3712
12569TIP3    H159122   2.396   2.182   4.133  0.1547  0.6616 -0.1469
12569TIP3    H259123   2.409   2.275   4.014  0.3371  0.7299 -0.0742
12570TIP3   OH259124   3.830   2.197  15.067  0.6098 -0.0779  0.1252
12570TIP3    H159125   3.875   2.149  15.137 -0.2381 -1.0286  0.0382
12570TIP3    H259126   3.851   2.147  14.988 -0.9441 -0.8206  0.1444
12571TIP3   OH259127   6.227   0.576  14.658  0.7188  0.3133  0.1021
12571TIP3    H159128   6.172   0.631  14.713 -2.2189 -0.5568 -1.7209
12571TIP3    H259129   6.255   0.633  14.587 -0.3446  0.0792 -0.5248
12572TIP3   OH259130   6.054   3.921   0.199  0.2463 -0.2445 -0.7032
12572TIP3    H159131   6.011   4.004   0.221  0.3512 -0.7354  1.6884
12572TIP3    H259132   6.143   3.946   0.176  1.1897  0.2330  2.8578
12573TIP3   OH259133   5.431   2.779   6.575  0.1917  0.4265 -0.2035
12573TIP3    H159134   5.440   2.811   6.665 -3.1646 -0.1199  0.4306
12573TIP3    H259135   5.444   2.684   6.583  0.6923  0.4702 -0.4618
12574TIP3   OH259136   3.267   3.670  12.236  0.1684 -0.7342  0.3900
12574TIP3    H159137   3.171   3.673  12.243  0.2228  0.0574  0.8576
12574TIP3    H259138   3.284   3.591  12.184 -0.7814 -0.2141 -0.7557
12575TIP3   OH259139   3.924   6.396   3.332  0.4073 -0.8784 -0.2990
12575TIP3    H159140   3.919   6.326   3.267 -2.1426 -1.2645  0.1784
12575TIP3    H259141   4.002   6.377   3.383 -1.7142 -5.3182  1.7845
12576TIP3   OH259142   2.721   3.279  10.524  0.3005  0.1644 -0.1379
12576TIP3    H159143   2.785   3.336  10.483 -0.4225  0.0155 -1.5473
12576TIP3    H259144   2.773   3.208  10.562  0.9479 -0.5582 -2.2268
12577TIP3   OH259145   5.285   6.540  11.872  0.0765 -0.1594  0.4423
12577TIP3    H159146   5.192   6.560  11.883 -0.0505  1.4040 -2.5515
12577TIP3    H259147   5.328   6.586  11.944 -1.3338  0.1390  1.1302
12578TIP3   OH259148   5.094   2.556   1.416  0.0507  0.1311  0.4705
12578TIP3    H159149   5.127   2.478   1.461  0.0394 -0.4101 -0.4306
12578TIP3    H259150   5.114   2.540   1.324 -1.8299  0.2282  0.0007
12579TIP3   OH259151   2.703   2.892   5.373 -0.0126 -0.6592 -0.0651
12579TIP3    H159152   2.744   2.843   5.302 -1.2274 -0.5368 -0.8765
12579TIP3    H259153   2.747   2.977   5.373 -0.4232 -0.4409 -1.0785
12580TIP3   OH259154   0.998   2.772  14.415 -0.1496  0.9176 -0.2219
12580TIP3    H159155   1.080   2.784  14.368  0.9112 -3.0481  0.1949
12580TIP3    H259156   0.933   2.757  14.346  0.7718 -1.7312 -0.6402
12581TIP3   OH259157   5.781   4.741  12.754  0.1233  0.7161 -0.3116
12581TIP3    H159158   5.693   4.755  12.789  0.0654 -0.1087 -0.1235
12581TIP3    H259159   5.788   4.647  12.742  1.1055  0.7408 -0.0043
12582TIP3   OH259160   6.469   2.316   4.523  0.2750  0.1758  0.6593
12582TIP3    H159161   6.421   2.399   4.531 -0.6841 -0.4362  1.3832
12582TIP3    H259162   6.525   2.329   4.447 -2.6933  0.1627 -1.7505
12583TIP3   OH259163   1.572   5.937   0.646  0.0052 -0.5082 -0.5549
12583TIP3    H159164   1.648   5.897   0.689 -0.4667  0.0659  0.8809
12583TIP3    H259165   1.575   5.904   0.557  1.5728 -1.0156 -0.3507
12584TIP3   OH259166   2.135   3.041  12.010  0.2933 -0.6048  0.1564
12584TIP3    H159167   2.091   3.048  11.926 -2.2535  0.1730  1.4655
12584TIP3    H259168   2.111   2.954  12.042  0.9308 -0.7411  0.2966
12585TIP3   OH259169   2.739   1.393  11.922  0.3461  0.3206 -0.0671
12585TIP3    H159170   2.645   1.376  11.914  0.3908 -0.3433  0.6386
12585TIP3    H259171   2.777   1.309  11.949  1.3420  0.2181 -1.6784
12586TIP3   OH259172   2.457   5.167   4.011  0.2943 -0.2862  0.2227
12586TIP3    H159173   2.429   5.108   4.081  0.2231 -1.2523 -0.5944
12586TIP3    H259174   2.504   5.237   4.056 -0.1169 -0.6668  1.2715
12587TIP3   OH259175   0.661   6.545  14.763  0.3510  0.5647  0.2277
12587TIP3    H159176   0.727   6.561  14.830  0.3129  0.5129  0.2780
12587TIP3    H259177   0.590   6.501  14.809 -0.3312  1.8690  0.4738
12588TIP3   OH259178   2.761   4.509  16.362 -0.3145 -0.1617  0.4095
12588TIP3    H159179   2.713   4.505  16.445  0.8947 -0.6951  1.1122
12588TIP3    H259180   2.853   4.512  16.388  0.0753 -0.1726 -0.9165
12589TIP3   OH259181   3.585   1.209   0.982 -0.4954 -0.4867  0.1254
12589TIP3    H159182   3.548   1.291   0.951  0.6448 -0.2933 -0.8093
12589TIP3    H259183   3.661   1.235   1.035  0.8351 -0.9201 -1.4749
12590TIP3   OH259184   4.176   1.044   4.481  0.4652 -0.1300 -0.0753
12590TIP3    H159185   4.158   1.047   4.387  1.1434  0.4705 -0.1924
12590TIP3    H259186   4.148   0.957   4.508  2.1700 -1.0833 -1.2368
12591TIP3   OH259187   5.458   3.706  12.615  0.1580 -0.0282  0.4429
12591TIP3    H159188   5.503   3.689  12.532 -2.5413  3.1983 -1.9618
12591TIP3    H259189   5.511   3.773  12.658 -0.2742  0.9825 -0.5418
12592TIP3   OH259190   6.503   0.715  16.420 -0.1655  0.2160 -0.3796
12592TIP3    H159191   6.549   0.652  16.364 -2.3857 -0.1758 -1.8691
12592TIP3    H259192   6.497   0.671  16.505  1.9105  0.1839 -0.1907
12593TIP3   OH259193   2.931   1.918  11.451  0.3244 -0.5533 -0.0211
12593TIP3    H159194   2.872   1.843  11.454 -0.1727 -0.1729 -0.1565
12593TIP3    H259195   3.008   1.891  11.502 -0.7569 -0.3728  1.7912
12594TIP3   OH259196   3.345   3.151   4.678 -0.5322 -0.1437  0.4795
12594TIP3    H159197   3.395   3.071   4.693  1.6538  1.2528  1.0345
12594TIP3    H259198   3.375   3.211   4.747 -1.6899  1.3492 -0.2581
12595TIP3   OH259199   3.515   1.081   5.314 -0.0795  0.7060  0.4253
12595TIP3    H159200   3.423   1.055   5.321 -0.0549 -0.2414 -1.9092
12595TIP3    H259201   3.527   1.103   5.222  2.5420 -1.3316  0.1400
12596TIP3   OH259202   6.719   2.982   0.459 -0.7531  0.3843  0.2599
12596TIP3    H159203   6.808   2.951   0.439 -1.2261 -0.6975 -0.2711
12596TIP3    H259204   6.667   2.902   0.467 -2.5269  0.9480 -3.4313
12597TIP3   OH259205   6.585   4.559  16.204 -0.1533 -0.2953  0.2204
12597TIP3    H159206   6.515   4.605  16.250  1.0990  2.1841 -0.1530
12597TIP3    H259207   6.666   4.596  16.240  0.9100 -0.9522 -1.3676
12598TIP3   OH259208   0.866   5.809  14.930  0.0793  0.0781 -0.4119
12598TIP3    H159209   0.911   5.794  15.014 -1.0564  2.9159  0.8432
12598TIP3    H259210   0.929   5.860  14.878 -0.6749  1.9967  0.4408
12599TIP3   OH259211   3.597   0.217  16.617 -0.1819 -0.5756  0.1475
12599TIP3    H159212   3.689   0.195  16.630 -0.0498 -0.0341  0.1427
12599TIP3    H259213   3.598   0.295  16.563 -0.6567 -0.7748 -0.1522
12600TIP3   OH259214   4.086   3.033  14.672 -0.0486  0.4085 -0.1608
12600TIP3    H159215   4.045   3.109  14.631 -2.0918  0.2320  1.3857
12600TIP3    H259216   4.050   2.958  14.626 -1.1649  0.2735  0.8679
12601TIP3   OH259217   4.299   0.758  11.510 -0.3933  0.0993 -0.3481
12601TIP3    H159218   4.263   0.786  11.594  0.3773 -1.8586  0.6977
12601TIP3    H259219   4.248   0.681  11.486  2.1517 -2.0811  0.6311
12602TIP3   OH259220   4.349   2.045  13.958 -0.2528  0.2160 -0.1342
12602TIP3    H159221   4.271   2.059  13.903  0.2591 -1.0793 -1.2421
12602TIP3    H259222   4.322   2.072  14.046 -1.7540  0.3554 -0.6160
12603TIP3   OH259223   0.890   6.181  16.443 -0.0633 -0.4788 -0.5126
12603TIP3    H159224   0.853   6.112  16.388  2.5257 -1.6974 -0.8849
12603TIP3    H259225   0.947   6.135  16.504  0.2572  1.1986  0.5125
12604TIP3   OH259226   2.037   2.843  13.125  0.1179  0.1210 -0.1183
12604TIP3    H159227   2.036   2.771  13.062 -0.7663  0.1172 -0.1118
12604TIP3    H259228   2.091   2.811  13.197  0.9902  0.0577 -0.7822
12605TIP3   OH259229   1.259   0.835  14.273 -0.5698 -0.2452  0.6564
12605TIP3    H159230   1.240   0.889  14.350 -0.6806  0.0378  0.4333
12605TIP3    H259231   1.348   0.861  14.248 -0.9232  0.4403  0.0616
12606TIP3   OH259232   0.488   0.777  16.543 -0.3013 -0.4272 -0.1452
12606TIP3    H159233   0.439   0.841  16.491 -0.2046  1.6815  2.1799
12606TIP3    H259234   0.576   0.778  16.503 -0.6700 -0.1528 -0.9882
12607TIP3   OH259235   4.352   5.200  16.140 -0.0037  0.0583 -0.2434
12607TIP3    H159236   4.274   5.218  16.192 -1.2622 -3.4432 -0.6587
12607TIP3    H259237   4.423   5.194  16.204 -0.4093  1.3704  0.3590
12608TIP3   OH259238   1.628   2.359  15.734 -0.0195  0.6836 -0.3064
12608TIP3    H159239   1.534   2.359  15.717 -0.0936 -2.7095 -0.4403
12608TIP3    H259240   1.664   2.412  15.662 -1.5736 -1.0671 -2.5345
12609TIP3   OH259241   5.154   3.435  13.917  0.5002 -0.0912 -0.3478
12609TIP3    H159242   5.142   3.530  13.920  1.3167 -0.0003  0.7677
12609TIP3    H259243   5.159   3.415  13.824 -1.0288  0.7590 -0.6486
12610TIP3   OH259244   2.915   0.585   5.116 -0.8726  0.6643 -0.6140
12610TIP3    H159245   2.940   0.664   5.165  1.3201  0.5857 -1.5159
12610TIP3    H259246   2.870   0.619   5.039 -1.3758  0.9401 -0.2083
12611TIP3   OH259247   6.591   0.916  13.522 -0.5343  0.3041  0.1230
12611TIP3    H159248   6.514   0.973  13.517 -0.3405  0.5557 -0.0503
12611TIP3    H259249   6.618   0.905  13.430 -0.8627 -0.4730  0.1140
12612TIP3   OH259250   3.211   1.408  13.284  0.5588  0.3717 -0.0834
12612TIP3    H159251   3.164   1.329  13.310  0.6455  0.1841 -0.4944
12612TIP3    H259252   3.223   1.457  13.366 -2.6095  1.6856 -0.2517
12613TIP3   OH259253   3.613   5.670   2.810  0.3277 -0.4433 -0.1111
12613TIP3    H159254   3.623   5.575   2.817 -0.0324 -0.6896 -2.2272
12613TIP3    H259255   3.702   5.703   2.815  0.4530 -0.8784  0.7036
12614TIP3   OH259256   4.877   1.348  13.975  0.5788 -0.5629 -0.0221
12614TIP3    H159257   4.917   1.327  14.059 -1.3634 -0.6580  0.9383
12614TIP3    H259258   4.786   1.320  13.984  0.1528  0.0137 -1.9474
12615TIP3   OH259259   3.279   2.501   1.458  0.8631  0.1943 -0.2013
12615TIP3    H159260   3.195   2.546   1.463  0.7698  0.0056 -0.0840
12615TIP3    H259261   3.304   2.487   1.549  0.6493 -0.4440 -0.2363
12616TIP3   OH259262   5.609   3.357   1.576  0.0828 -0.6302 -0.3814
12616TIP3    H159263   5.547   3.308   1.630 -1.9268  0.1845 -1.7933
12616TIP3    H259264   5.687   3.366   1.630  0.2694 -4.5275  0.2911
12617TIP3   OH259265   4.005   3.526   5.242 -0.3315  0.0589 -0.2880
12617TIP3    H159266   3.979   3.438   5.215  0.3454 -0.0710 -0.5306
12617TIP3    H259267   4.091   3.539   5.203 -0.5835  0.9721 -0.5644
12618TIP3   OH259268   6.485   2.558   1.204  0.0686  0.0098 -0.2673
12618TIP3    H159269   6.393   2.576   1.187 -0.1203 -1.6373 -1.2474
12618TIP3    H259270   6.518   2.524   1.121  1.4307  0.0787  0.2235
12619TIP3   OH259271   1.373   3.399  14.729  0.2140 -0.3549  0.1321
12619TIP3    H159272   1.370   3.375  14.636 -0.5286  1.2175 -0.3018
12619TIP3    H259273   1.463   3.428  14.743  0.3137 -0.5359 -0.1225
12620TIP3   OH259274   6.625   2.900  12.541  0.6281 -0.4435 -0.0300
12620TIP3    H159275   6.557   2.838  12.516  0.1884 -0.1153  0.3238
12620TIP3    H259276   6.633   2.890  12.636 -0.3598  0.9333  0.2269
12621TIP3   OH259277   4.637   2.409   4.149 -0.5385  0.4647 -0.1840
12621TIP3    H159278   4.706   2.406   4.215 -1.9311 -1.1761  1.3257
12621TIP3    H259279   4.668   2.472   4.084  1.2464  1.5996  1.6500
12622TIP3   OH259280   6.556   2.005   1.042 -0.4908 -0.2608 -0.0494
12622TIP3    H159281   6.519   2.091   1.023  3.7154  1.2305 -2.8651
12622TIP3    H259282   6.616   2.021   1.114  0.4480 -0.7615 -0.7073
12623TIP3   OH259283   6.661   3.230  16.405  0.2544 -0.0344  0.1870
12623TIP3    H159284   6.673   3.174  16.328  0.1951 -0.4053  0.4416
12623TIP3    H259285   6.673   3.170  16.479 -1.7385 -0.1342  0.4660
12624TIP3   OH259286   4.437   6.389   5.147 -0.5149  0.1690  0.5185
12624TIP3    H159287   4.454   6.314   5.090 -0.0295  1.9091 -1.7665
12624TIP3    H259288   4.382   6.353   5.217 -0.0951 -2.3440 -0.3214
12625TIP3   OH259289   0.730   5.196   5.115 -0.7913  0.0213  0.0230
12625TIP3    H159290   0.807   5.232   5.159 -0.1323 -0.2275 -0.8910
12625TIP3    H259291   0.709   5.116   5.164  0.6530 -0.8974 -0.7763
12626TIP3   OH259292   4.152   6.059   1.309 -0.3350 -0.0029 -0.1586
12626TIP3    H159293   4.187   6.144   1.285 -2.6440  1.3381  0.9022
12626TIP3    H259294   4.073   6.078   1.360  0.7955 -2.6825  3.0139
12627TIP3   OH259295   0.329   0.210   4.017 -0.6209 -0.1439  0.2900
12627TIP3    H159296   0.360   0.212   4.108  0.4793  0.5713 -0.0916
12627TIP3    H259297   0.287   0.295   4.004 -0.9970 -0.3404  0.1903
12628TIP3   OH259298   2.227   5.240  13.485 -0.0961  0.1594  0.7094
12628TIP3    H159299   2.282   5.294  13.542 -0.0052  0.7240  0.0983
12628TIP3    H259300   2.290   5.189  13.434 -0.1810 -0.6186  1.3520
12629TIP3   OH259301   6.666   3.270  11.705  0.4529  0.0916  0.2328
12629TIP3    H159302   6.587   3.324  11.703  0.2562 -0.1654 -1.9226
12629TIP3    H259303   6.635   3.180  11.695  1.0061  0.0468 -1.3928
12630TIP3   OH259304   0.709   0.964   0.380  0.1309  0.1840 -0.1794
12630TIP3    H159305   0.725   0.920   0.296  1.1298 -0.1185  0.1517
12630TIP3    H259306   0.794   1.001   0.404  0.2569 -1.0227  1.4155
12631TIP3   OH259307   4.337   1.358  11.230 -0.5707  0.4137 -0.4317
12631TIP3    H159308   4.274   1.430  11.227  0.9577  1.8315  0.0892
12631TIP3    H259309   4.378   1.365  11.316  1.0709  0.2447 -1.1595
12632TIP3   OH259310   6.287   0.665   5.112 -0.1022 -0.1086 -0.1698
12632TIP3    H159311   6.288   0.760   5.126 -1.8052 -0.1778  0.6751
12632TIP3    H259312   6.234   0.653   5.034  0.8796 -0.3272 -0.8143
12633TIP3   OH259313   2.514   5.927   0.391 -0.0488 -0.9132  0.1771
12633TIP3    H159314   2.503   5.910   0.297  2.2706  0.4959 -0.4245
12633TIP3    H259315   2.556   5.847   0.424 -2.6553 -2.2552  0.5198
12634TIP3   OH259316   6.440   0.336  12.564 -0.1980  0.3558 -0.3306
12634TIP3    H159317   6.363   0.389  12.584 -0.1206  0.2891  0.1568
12634TIP3    H259318   6.514   0.397  12.571 -0.0514  0.0773  0.7881
12635TIP3   OH259319   6.023   3.861   4.831 -0.3382  0.7484 -0.3115
12635TIP3    H159320   6.104   3.907   4.810 -1.5556  2.9817 -0.4063
12635TIP3    H259321   5.955   3.909   4.784 -1.6748 -1.4914 -0.8151
12636TIP3   OH259322   0.742   4.533  13.709 -0.2138 -0.3280 -0.2006
12636TIP3    H159323   0.818   4.551  13.765 -0.5149 -0.3173  0.2128
12636TIP3    H259324   0.753   4.591  13.634 -0.3427  0.4272  0.3523
12637TIP3   OH259325   1.410   0.228   6.093 -0.4713 -0.0582 -0.3039
12637TIP3    H159326   1.329   0.276   6.075  0.0260  0.6216 -0.7625
12637TIP3    H259327   1.395   0.188   6.179 -1.8808 -1.2205 -1.0454
12638TIP3   OH259328   5.452   3.906   4.958 -0.0505  0.4308  0.2696
12638TIP3    H159329   5.419   3.996   4.961 -1.4229 -0.0633  0.4145
12638TIP3    H259330   5.505   3.902   4.878 -1.8574  0.7523 -1.0028
12639TIP3   OH259331   3.269   5.496   0.099 -1.2746 -0.2950  0.4711
12639TIP3    H159332   3.253   5.423   0.158  0.1215 -0.3128  0.8544
12639TIP3    H259333   3.200   5.489   0.033 -0.6262 -2.5313 -0.0444
12640TIP3   OH259334   4.941   4.563   0.228 -0.2566  0.4523  0.6303
12640TIP3    H159335   4.978   4.572   0.140  0.3857  2.0297  1.0109
12640TIP3    H259336   4.982   4.484   0.263 -0.8247 -0.4280 -0.6003
12641TIP3   OH259337   0.496   1.118   3.552 -0.6915  0.3906  0.1532
12641TIP3    H159338   0.562   1.092   3.489 -0.5793  0.1686  0.3591
12641TIP3    H259339   0.546   1.153   3.626 -0.6201 -2.1247  1.4263
12642TIP3   OH259340   2.871   1.627   2.870  0.3489 -0.4300  0.0062
12642TIP3    H159341   2.798   1.608   2.930 -0.8594  2.2162 -0.4753
12642TIP3    H259342   2.848   1.582   2.789 -1.1180  0.7980 -0.3175
12643TIP3   OH259343   3.791   6.340  16.294 -0.3857  0.1346  0.7326
12643TIP3    H159344   3.747   6.269  16.341 -1.9913 -0.1932 -1.1322
12643TIP3    H259345   3.807   6.305  16.207  1.6819  1.0342  0.6790
12644TIP3   OH259346   1.190   3.494  16.406  0.1197  0.1162  0.0648
12644TIP3    H159347   1.099   3.513  16.382  0.3176  0.6726 -0.2582
12644TIP3    H259348   1.190   3.400  16.423 -0.8267  0.3327  1.4908
12645TIP3   OH259349   2.410   4.710   2.329  0.5811 -0.1797  0.2763
12645TIP3    H159350   2.365   4.793   2.310 -1.5093 -1.4047 -0.5247
12645TIP3    H259351   2.387   4.691   2.420  0.5080 -0.1977  0.2544
12646TIP3   OH259352   6.003   6.654   5.682 -0.0959  0.0436  0.0561
12646TIP3    H159353   5.989   6.626   5.773  3.2231 -2.8704 -0.0756
12646TIP3    H259354   5.970   6.581   5.630 -0.1504  0.7963 -0.9900
12647TIP3   OH259355   4.611   0.399  15.496 -0.7251 -0.1581  0.3684
12647TIP3    H159356   4.686   0.439  15.452 -0.5852 -2.3937 -1.6337
12647TIP3    H259357   4.541   0.403  15.431 -1.3456 -1.0995  0.9581
12648TIP3   OH259358   4.122   0.664  16.934  0.1106  0.0338 -0.0854
12648TIP3    H159359   4.056   0.692  16.998  0.5210 -1.8168  1.2394
12648TIP3    H259360   4.190   0.731  16.939 -0.8156  1.0090 -0.1313
12649TIP3   OH259361   2.635   3.324   2.466  0.6207 -0.5990  0.1540
12649TIP3    H159362   2.672   3.408   2.440 -1.3594 -0.1674 -1.6341
12649TIP3    H259363   2.586   3.343   2.546 -0.8640  0.3393 -0.9089
12650TIP3   OH259364   0.309   3.085   2.512  0.0866 -0.0405 -0.2956
12650TIP3    H159365   0.314   3.181   2.519  0.3361  0.0665 -1.6143
12650TIP3    H259366   0.215   3.066   2.517  0.1186  0.1435  1.2573
12651TIP3   OH259367   1.322   4.535  12.362 -0.5592  0.5517  0.0805
12651TIP3    H159368   1.324   4.621  12.321 -0.9337  1.1079  1.2080
12651TIP3    H259369   1.409   4.498  12.345  0.8666  2.5140  2.4046
12652TIP3   OH259370   0.855   3.489  12.268 -0.8606 -0.3316  0.2174
12652TIP3    H159371   0.827   3.525  12.352 -2.6877 -0.3229 -0.3484
12652TIP3    H259372   0.800   3.533  12.204  0.7418 -0.0789 -1.0496
12653TIP3   OH259373   2.098   6.520  11.220  0.4647  0.1408 -0.3668
12653TIP3    H159374   2.136   6.586  11.162 -0.2386 -1.2550 -2.5569
12653TIP3    H259375   2.140   6.438  11.194 -2.2348 -1.0840 -1.3261
12654TIP3   OH259376   0.761   4.296   3.241 -0.0129  0.5618 -0.2770
12654TIP3    H159377   0.710   4.271   3.318  0.0336  1.6431  0.1169
12654TIP3    H259378   0.716   4.253   3.168  0.3416 -1.0508  0.4040
12655TIP3   OH259379   6.648   4.542   2.752 -0.1211 -0.4663  0.0331
12655TIP3    H159380   6.570   4.554   2.806 -0.2772  3.0129 -0.7273
12655TIP3    H259381   6.621   4.571   2.665  1.8297  0.3239 -0.3616
12656TIP3   OH259382   6.098   4.632   1.771  0.3335  0.1422 -0.1387
12656TIP3    H159383   6.144   4.716   1.770 -1.4130  1.1390 -0.3937
12656TIP3    H259384   6.023   4.647   1.828  0.6023 -1.6187  0.7299
12657TIP3   OH259385   1.587   2.803  12.532 -0.4418 -0.0305 -0.0874
12657TIP3    H159386   1.627   2.749  12.464 -0.5398  0.9982 -0.9987
12657TIP3    H259387   1.615   2.892  12.511  0.9868  0.1433  2.2571
12658TIP3   OH259388   4.288   1.877   5.030  0.4798  0.0245  0.0487
12658TIP3    H159389   4.354   1.819   4.992 -0.2428 -0.2513 -0.8120
12658TIP3    H259390   4.204   1.842   5.000 -0.0551  0.5059  0.9421
12659TIP3   OH259391   0.718   3.927  15.984 -0.6620 -0.5194 -0.2713
12659TIP3    H159392   0.628   3.959  15.976 -1.3415 -1.7064  1.8908
12659TIP3    H259393   0.765   3.996  16.031 -0.7633 -0.4382 -0.2903
12660TIP3   OH259394   1.802   3.218   6.542 -0.4206  0.2909  0.2545
12660TIP3    H159395   1.876   3.178   6.498 -1.4998 -1.2656 -0.2503
12660TIP3    H259396   1.838   3.296   6.585  1.3447 -0.0734 -0.4875
12661TIP3   OH259397   5.802   3.579  14.321 -0.2348 -0.0550  0.1638
12661TIP3    H159398   5.766   3.637  14.254 -1.0571  0.6518  1.1864
12661TIP3    H259399   5.837   3.638  14.388  0.4703 -0.7480  0.4338
12662TIP3   OH259400   5.288   1.460   5.928  0.4769  0.4571 -0.2685
12662TIP3    H159401   5.289   1.369   5.957 -0.4595 -0.1083 -1.9162
12662TIP3    H259402   5.309   1.510   6.007 -0.4871 -1.0842  1.0256
12663TIP3   OH259403   2.400   0.180   3.302 -0.1361 -0.2604 -0.1956
12663TIP3    H159404   2.438   0.143   3.381 -1.0111 -0.8299 -0.0306
12663TIP3    H259405   2.447   0.262   3.289  0.6004 -0.5717  0.4343
12664TIP3   OH259406   0.816   1.434   6.058 -0.1678 -0.8509  0.1009
12664TIP3    H159407   0.794   1.526   6.068 -2.1760 -1.1494 -1.1491
12664TIP3    H259408   0.781   1.392   6.136  1.6211 -0.4693  1.1618
12665TIP3   OH259409   5.339   3.503   3.406 -0.0074 -0.6848 -0.6954
12665TIP3    H159410   5.258   3.531   3.363 -0.6143 -2.2138 -0.5851
12665TIP3    H259411   5.408   3.522   3.342 -0.5909 -0.4679 -1.2635
12666TIP3   OH259412   5.788   2.562  12.803  0.3104  0.0449 -0.3349
12666TIP3    H159413   5.698   2.570  12.772  0.6462 -0.1510 -1.4197
12666TIP3    H259414   5.782   2.573  12.897 -0.9880 -1.0148 -0.2578
12667TIP3   OH259415   2.046   3.441   1.905  0.1275 -0.1969  0.3682
12667TIP3    H159416   2.129   3.468   1.944  0.4148 -1.3998  0.6437
12667TIP3    H259417   2.035   3.350   1.933 -1.9730  0.3166  1.5005
12668TIP3   OH259418   5.090   6.059   3.147 -0.5588  0.5552 -0.1609
12668TIP3    H159419   5.132   5.973   3.144 -0.8313  0.4265 -2.3515
12668TIP3    H259420   5.014   6.046   3.203 -1.7551 -1.2482 -2.0450
12669TIP3   OH259421   3.397   6.343  16.604  0.0701 -0.0962 -0.3178
12669TIP3    H159422   3.430   6.413  16.547  1.2575 -1.2281 -1.0781
12669TIP3    H259423   3.409   6.377  16.693  0.1480  0.8606 -0.6765
12670TIP3   OH259424   6.613   0.255  15.098 -0.0761 -0.3526 -0.0554
12670TIP3    H159425   6.629   0.277  15.006 -1.5241 -1.9362 -0.7478
12670TIP3    H259426   6.624   0.161  15.103  1.4697 -0.1268  1.7811
12671TIP3   OH259427   3.677   0.558  16.747  0.2236 -0.1863  0.2293
12671TIP3    H159428   3.648   0.524  16.662  0.9423  3.5795 -1.6972
12671TIP3    H259429   3.766   0.524  16.757  0.4549  0.0249 -0.9768
12672TIP3   OH259430   5.109   4.572   2.914  0.0856  0.2935  0.0643
12672TIP3    H159431   5.069   4.597   2.831 -1.6457  1.0134  1.0536
12672TIP3    H259432   5.192   4.532   2.890 -0.0778  1.0762 -1.9600
12673TIP3   OH259433   6.265   6.214  14.551 -0.0238  0.6493  0.0696
12673TIP3    H159434   6.294   6.203  14.460  0.8952  1.7066  0.1988
12673TIP3    H259435   6.205   6.142  14.567 -0.8502  0.9138 -1.6411
12674TIP3   OH259436   0.729   3.658   4.824  0.1441  0.4046  0.5981
12674TIP3    H159437   0.816   3.687   4.797  0.1568 -0.5519 -0.4892
12674TIP3    H259438   0.738   3.563   4.835 -1.2543 -0.0521 -1.6745
12675TIP3   OH259439   5.497   3.508  11.468  0.2455  0.0264 -0.3179
12675TIP3    H159440   5.590   3.509  11.446  0.3387 -0.2706  0.0294
12675TIP3    H259441   5.466   3.423  11.437 -0.2203  0.6453 -1.6075
12676TIP3   OH259442   1.101   1.610   1.621 -0.0468 -0.6809 -0.3674
12676TIP3    H159443   1.086   1.688   1.567  1.3249  0.5755  0.9662
12676TIP3    H259444   1.014   1.578   1.642 -0.6399 -1.0196 -2.9663
12677TIP3   OH259445   1.157   1.447   3.868  0.6582  0.4381 -0.3372
12677TIP3    H159446   1.242   1.415   3.838 -0.0682 -0.9743 -0.9388
12677TIP3    H259447   1.119   1.490   3.792  0.5304  0.4631 -0.2595
12678TIP3   OH259448   2.876   0.888   3.009 -0.3598 -0.1782 -0.6083
12678TIP3    H159449   2.782   0.873   3.002 -0.4670  0.1346  0.0762
12678TIP3    H259450   2.895   0.880   3.102  0.2211  0.1983 -0.6876
12679TIP3   OH259451   5.432   6.365   7.068  0.0055 -0.5368 -0.0128
12679TIP3    H159452   5.465   6.276   7.058  0.3457 -0.5436  1.1031
12679TIP3    H259453   5.481   6.416   7.004  0.5410 -0.9684  0.0528
12680TIP3   OH259454   0.015   3.118   1.880  0.0225  0.1955 -0.1318
12680TIP3    H159455   0.050   3.190   1.933 -0.2440  0.4260 -0.2664
12680TIP3    H259456   0.080   3.048   1.888  1.3756  1.1822 -1.7057
12681TIP3   OH259457   2.250   4.614  15.974 -0.4644 -0.1389 -0.1411
12681TIP3    H159458   2.292   4.562  16.043  0.0602  0.3331 -0.0972
12681TIP3    H259459   2.216   4.691  16.019 -1.5335 -0.5903 -0.1498
12682TIP3   OH259460   5.008   4.692  12.470 -0.7702 -0.0369  0.2110
12682TIP3    H159461   4.914   4.679  12.482 -0.4181 -1.8905  1.2687
12682TIP3    H259462   5.043   4.703  12.558  0.1539 -0.5491 -0.0735
12683TIP3   OH259463   2.735   6.549  15.364  0.3495 -0.1703 -0.3264
12683TIP3    H159464   2.821   6.582  15.387  0.0386  0.1793  0.3662
12683TIP3    H259465   2.674   6.602  15.416 -0.3655  0.4041 -1.6842
12684TIP3   OH259466   6.094   0.208  13.963 -0.3300  0.6291 -0.2669
12684TIP3    H159467   6.097   0.151  14.039 -3.0149  0.1850 -0.3944
12684TIP3    H259468   6.060   0.291  13.995 -1.7317  0.3607 -0.9641
12685TIP3   OH259469   1.640   1.662  11.862 -0.2214 -0.0147  0.7171
12685TIP3    H159470   1.701   1.613  11.808  2.1984 -0.3038  3.4065
12685TIP3    H259471   1.576   1.597  11.892  0.0115 -0.4242  0.3388
12686TIP3   OH259472   2.409   3.057   0.689 -0.3368 -0.4775  0.6621
12686TIP3    H159473   2.332   3.113   0.691  0.2727  0.3996  0.2519
12686TIP3    H259474   2.380   2.977   0.644 -0.5714  0.5469 -1.0952
12687TIP3   OH259475   5.710   6.036  14.836  0.4110 -0.1919 -0.4862
12687TIP3    H159476   5.790   6.060  14.885  0.3936 -0.2955 -0.4078
12687TIP3    H259477   5.659   5.983  14.897  0.3155 -0.1883 -0.5618
12688TIP3   OH259478   5.364   4.967  13.937 -0.2363 -0.4390  0.5747
12688TIP3    H159479   5.306   4.938  14.006 -0.2936  0.9291  1.1171
12688TIP3    H259480   5.318   5.039  13.894  0.1745 -0.6886 -0.3217
12689TIP3   OH259481   1.761   4.235  12.119 -1.2523 -0.3969 -0.0922
12689TIP3    H159482   1.826   4.306  12.119 -2.5789  0.8558 -0.1062
12689TIP3    H259483   1.814   4.155  12.120  0.2931  0.5734 -0.0988
12690TIP3   OH259484   4.745   2.573  13.653 -0.3037 -0.5303  0.2670
12690TIP3    H159485   4.723   2.489  13.614  0.2726 -0.2898 -0.6072
12690TIP3    H259486   4.661   2.617  13.666 -0.4617  0.0248 -2.2119
12691TIP3   OH259487   6.566   5.707  16.806 -0.2057 -0.1802 -0.1737
12691TIP3    H159488   6.571   5.645  16.733  1.4943  1.1562 -1.2749
12691TIP3    H259489   6.587   5.655  16.884  1.0949 -1.0172 -1.0522
12692TIP3   OH259490   1.180   0.730  15.491  0.1816 -1.0210  0.1346
12692TIP3    H159491   1.147   0.645  15.461 -0.5489 -0.9165  0.6012
12692TIP3    H259492   1.275   0.719  15.496  0.4358 -0.8198 -2.8499
12693TIP3   OH259493   3.335   0.778  17.086 -0.3604  0.3259  0.3365
12693TIP3    H159494   3.364   0.700  17.132  0.6759  0.0974 -0.6598
12693TIP3    H259495   3.298   0.834  17.154  1.1799  0.0256  1.4823
12694TIP3   OH259496   4.691   4.376  12.389 -0.3038  0.6849 -0.3903
12694TIP3    H159497   4.718   4.466  12.409 -0.1687  0.3693  0.8917
12694TIP3    H259498   4.596   4.379  12.389 -0.3083  1.0390 -1.4080
12695TIP3   OH259499   5.945   2.261   1.575  0.1220  0.0083 -0.1860
12695TIP3    H159500   6.022   2.313   1.550 -1.0923  1.4237 -1.1493
12695TIP3    H259501   5.885   2.323   1.615 -0.1127 -1.2893  1.5910
12696TIP3   OH259502   3.569   4.919  15.530 -0.1631  0.0095 -0.2457
12696TIP3    H159503   3.564   4.856  15.602 -1.4206 -0.1271 -0.4288
12696TIP3    H259504   3.525   4.998  15.563 -3.1597 -0.9033 -1.6616
12697TIP3   OH259505   1.764   2.219  14.431  0.3420 -0.1777 -0.5458
12697TIP3    H159506   1.765   2.314  14.431 -0.0653 -0.1712  0.4140
12697TIP3    H259507   1.749   2.195  14.339 -0.8711  0.6934 -0.5830
12698TIP3   OH259508   3.577   5.774   5.338  0.8960  0.2488  0.3494
12698TIP3    H159509   3.501   5.820   5.305  0.1556 -0.5797  0.8404
12698TIP3    H259510   3.578   5.691   5.290  0.2707 -0.6236  1.7549
12699TIP3   OH259511   2.619   1.147   3.890  0.1896 -0.1995 -0.2503
12699TIP3    H159512   2.654   1.225   3.845  0.3265 -0.4688 -0.6170
12699TIP3    H259513   2.576   1.097   3.820 -1.2118  0.2729  0.2357
12700TIP3   OH259514   3.747   4.745   3.170  0.9792 -0.1484 -0.0068
12700TIP3    H159515   3.815   4.809   3.187 -0.6746  0.9254  3.4597
12700TIP3    H259516   3.673   4.773   3.223 -0.4523 -4.0182  0.4214
12701TIP3   OH259517   2.507   5.325   2.027 -0.9749  0.1188 -0.4351
12701TIP3    H159518   2.498   5.335   2.122 -0.5029  0.3112 -0.4093
12701TIP3    H259519   2.449   5.252   2.005 -0.1967 -0.7020  0.1737
12702TIP3   OH259520   1.333   6.013   1.276  0.0016  0.3267  0.0847
12702TIP3    H159521   1.252   6.059   1.253  0.5287  0.8123 -0.8248
12702TIP3    H259522   1.314   5.976   1.363 -0.8018  1.3880  0.3977
12703TIP3   OH259523   0.094   4.859   1.637 -0.1125 -0.3254 -0.0579
12703TIP3    H159524   0.124   4.882   1.549 -0.8728 -0.4104 -0.3466
12703TIP3    H259525   0.159   4.899   1.695 -0.2784  0.8020 -0.6091
12704TIP3   OH259526   1.332   1.579  13.230 -0.3839 -0.0613 -0.2886
12704TIP3    H159527   1.281   1.531  13.296  0.6663  1.2306  1.5581
12704TIP3    H259528   1.386   1.512  13.188 -0.9722 -0.8981  0.2383
12705TIP3   OH259529   3.726   4.847   2.517 -0.6063 -0.3664  0.0954
12705TIP3    H159530   3.647   4.899   2.511  0.6360  1.5399 -0.5529
12705TIP3    H259531   3.769   4.858   2.432  0.3338 -1.4165  0.3997
12706TIP3   OH259532   3.400   6.725  15.200 -0.3651  0.2285  0.5568
12706TIP3    H159533   3.368   6.815  15.189 -1.1898 -0.1581 -0.3444
12706TIP3    H259534   3.414   6.716  15.294 -0.6586  1.1780  0.7051
12707TIP3   OH259535   6.099   4.115  10.701  0.5992  0.0627 -0.5895
12707TIP3    H159536   6.066   4.033  10.663 -1.6695  0.7037 -0.1783
12707TIP3    H259537   6.164   4.147  10.639  1.1820 -1.7895 -0.9931
12708TIP3   OH259538   3.574   3.798   0.421  0.4946 -0.6533 -0.0698
12708TIP3    H159539   3.525   3.826   0.343  1.3947  0.7222 -0.1719
12708TIP3    H259540   3.664   3.788   0.390  0.8033 -0.3965  0.7230
12709TIP3   OH259541   1.383   2.384  15.383 -0.1667 -0.1596 -0.2691
12709TIP3    H159542   1.315   2.404  15.447  0.7884 -2.4159  1.6487
12709TIP3    H259543   1.342   2.399  15.298 -1.4466  3.1669  0.7762
12710TIP3   OH259544   1.034   0.093  16.698 -0.1339  0.3415  0.8321
12710TIP3    H159545   0.995   0.177  16.675 -0.8137 -0.0110  0.6593
12710TIP3    H259546   1.060   0.055  16.614 -0.0452  0.2755  0.8905
12711TIP3   OH259547   5.914   6.620   5.954  0.0541 -0.1293 -0.7658
12711TIP3    H159548   5.854   6.685   5.919 -0.3678  0.1720  0.4499
12711TIP3    H259549   5.922   6.643   6.047  1.4034 -0.6634 -0.7241
12712TIP3   OH259550   4.135   3.638  12.247 -0.5620 -0.1256  0.1415
12712TIP3    H159551   4.084   3.619  12.169 -0.0571 -0.4585 -0.1139
12712TIP3    H259552   4.086   3.707  12.292 -0.8213  0.1241 -0.5095
12713TIP3   OH259553   5.699   1.359   0.990  0.0598 -0.6683 -0.1826
12713TIP3    H159554   5.716   1.269   0.962  0.9214  0.4855 -3.9580
12713TIP3    H259555   5.748   1.413   0.928 -1.2549  2.4495  1.2776
12714TIP3   OH259556   4.985   4.183   5.151 -0.2446  0.5246  0.5328
12714TIP3    H159557   4.974   4.114   5.217  0.6847  1.6495  1.9310
12714TIP3    H259558   4.925   4.252   5.178  1.2913  1.6624  1.1905
12715TIP3   OH259559   3.663   4.219   0.260  0.6605 -0.0993  0.0774
12715TIP3    H159560   3.662   4.134   0.215 -0.7052 -0.2936  0.4287
12715TIP3    H259561   3.644   4.283   0.191  0.2982 -0.2301  0.0507
12716TIP3   OH259562   2.087   6.713  15.677 -0.1896 -0.1063  0.2463
12716TIP3    H159563   2.042   6.678  15.600 -1.2818 -1.4329  1.4196
12716TIP3    H259564   2.166   6.660  15.684 -1.0174 -1.2715  1.0706
12717TIP3   OH259565   2.390   1.561   4.399  0.5871 -0.1753 -0.3261
12717TIP3    H159566   2.314   1.619   4.406  0.7900  0.1432 -0.6788
12717TIP3    H259567   2.363   1.493   4.337  0.3294 -0.4929  0.1297
12718TIP3   OH259568   6.613   6.397  17.154  0.7489  0.4233  0.1421
12718TIP3    H159569   6.596   6.489  17.177 -0.3956  0.5809 -1.2165
12718TIP3    H259570   6.558   6.381  17.077  2.0584 -0.9655 -0.5534
12719TIP3   OH259571   5.833   1.709  10.479  0.2351  0.5045  0.1371
12719TIP3    H159572   5.774   1.635  10.491  1.3740 -0.6968 -1.2537
12719TIP3    H259573   5.899   1.698  10.548  0.2111  0.4265  0.1482
12720TIP3   OH259574   0.722   3.676  15.492  0.1359  0.0656  0.8736
12720TIP3    H159575   0.676   3.753  15.526  1.5258  1.7161 -0.7898
12720TIP3    H259576   0.654   3.608  15.488 -2.0466  2.1618 -0.7171
12721TIP3   OH259577   4.250   5.726   2.952 -0.9203  0.8936  0.1185
12721TIP3    H159578   4.274   5.818   2.948 -0.1096  0.7776  1.7170
12721TIP3    H259579   4.260   5.702   3.044 -1.7467 -0.6291 -0.1529
12722TIP3   OH259580   4.440   0.466   6.486  0.0917 -0.6123  0.2351
12722TIP3    H159581   4.469   0.550   6.451 -2.2454  0.4251  0.5734
12722TIP3    H259582   4.348   0.480   6.507  0.8243 -1.6509  5.2063
12723TIP3   OH259583   2.050   1.489   3.858  0.3000  0.1955 -0.2082
12723TIP3    H159584   2.134   1.469   3.818  0.0455 -0.4265 -0.4305
12723TIP3    H259585   2.029   1.577   3.825 -1.2007 -1.3081 -3.6948
12724TIP3   OH259586   0.243   0.450  14.629 -0.4844  0.1748  0.0363
12724TIP3    H159587   0.285   0.513  14.687 -1.1200 -0.3435  1.0822
12724TIP3    H259588   0.248   0.367  14.676  0.8160 -0.7026 -1.5386
12725TIP3   OH259589   4.560   2.773   0.596  0.0260 -0.3096  0.1804
12725TIP3    H159590   4.470   2.767   0.562  0.2099 -0.0061 -0.3775
12725TIP3    H259591   4.569   2.863   0.626  0.5923  0.0759 -1.0860
12726TIP3   OH259592   5.796   6.599   1.184 -0.2965 -0.4072 -0.1140
12726TIP3    H159593   5.881   6.565   1.213 -0.1024  0.3574  0.2339
12726TIP3    H259594   5.760   6.642   1.262  0.3110  1.8626 -1.0175
12727TIP3   OH259595   4.660   0.871   4.410 -0.8174  0.1959 -0.4512
12727TIP3    H159596   4.627   0.781   4.415 -2.1278  0.6928  0.2285
12727TIP3    H259597   4.597   0.917   4.354  0.2820  0.5308 -1.4683
12728TIP3   OH259598   4.308   3.776   0.390 -0.3239 -0.1763  0.2637
12728TIP3    H159599   4.355   3.840   0.444 -0.1342 -0.8302  0.8929
12728TIP3    H259600   4.375   3.712   0.364 -0.8392 -1.1234  1.1759
12729TIP3   OH259601   0.055   3.359  11.543  0.5742 -0.2555  0.1926
12729TIP3    H159602  -0.022   3.344  11.598  0.2384  0.4263 -0.0670
12729TIP3    H259603   0.047   3.295  11.473 -0.0133  0.1089 -0.0833
12730TIP3   OH259604   4.118   2.712  11.900 -0.5248  0.7013  0.0788
12730TIP3    H159605   4.081   2.703  11.813 -2.4963  1.5427  0.7740
12730TIP3    H259606   4.080   2.640  11.950  0.7545  0.0988  0.2319
12731TIP3   OH259607   5.621   1.398   6.094 -0.2580  0.6437  0.4342
12731TIP3    H159608   5.597   1.455   6.021  2.8190  0.1015 -1.1754
12731TIP3    H259609   5.552   1.332   6.097  0.1092 -0.0095 -2.8246
12732TIP3   OH259610   5.163   4.080  13.141 -0.0281  0.1430 -0.0347
12732TIP3    H159611   5.213   4.136  13.082  0.6234  0.3929  0.7383
12732TIP3    H259612   5.114   4.022  13.083  2.1319 -0.9901 -0.8414
12733TIP3   OH259613   2.066   5.424   0.123  0.2768 -0.0079 -0.2200
12733TIP3    H159614   2.039   5.333   0.112 -0.9725  0.0262  1.8741
12733TIP3    H259615   2.115   5.425   0.205 -0.2918  1.2697  0.1403
12734TIP3   OH259616   1.219   2.904  12.379  0.3862 -0.0637 -0.0983
12734TIP3    H159617   1.302   2.949  12.362 -0.0821  0.5821 -0.7068
12734TIP3    H259618   1.189   2.876  12.293  0.7824 -1.7923  0.2718
12735TIP3   OH259619   1.518   5.878   1.124  0.2008 -0.1645 -0.5625
12735TIP3    H159620   1.499   5.897   1.032  0.2915 -1.2969 -0.8369
12735TIP3    H259621   1.448   5.921   1.173 -0.1431  0.0159 -1.2072
12736TIP3   OH259622   0.108   3.591  14.813 -0.6469  0.6627 -0.9297
12736TIP3    H159623   0.104   3.519  14.876 -1.0985 -0.8086 -2.5613
12736TIP3    H259624   0.126   3.668  14.866 -0.5978 -0.5713  0.9426
12737TIP3   OH259625   5.058   4.165  11.920  0.2008  0.5051  0.7337
12737TIP3    H159626   5.115   4.101  11.962  0.5834  1.1702  1.2585
12737TIP3    H259627   5.001   4.196  11.990 -0.6283  0.0510  0.2757
12738TIP3   OH259628   2.526   5.887  16.692  0.8332 -0.4386  0.0941
12738TIP3    H159629   2.552   5.899  16.601 -1.4917 -0.8923 -0.6847
12738TIP3    H259630   2.570   5.806  16.719  0.8046 -0.7982 -0.9162
12739TIP3   OH259631   1.488   2.130  16.876 -0.6414  0.3179 -0.3073
12739TIP3    H159632   1.499   2.220  16.843 -3.0120  1.0654  0.7554
12739TIP3    H259633   1.576   2.106  16.906  0.4577  1.5624 -2.2468
12740TIP3   OH259634   4.188   4.791  11.466  0.0189  0.3108  0.1731
12740TIP3    H159635   4.126   4.744  11.522 -2.3224  0.9891 -1.6827
12740TIP3    H259636   4.217   4.865  11.519 -1.8739  0.7596  0.6768
12741TIP3   OH259637   4.268   4.112  14.447  0.6329  0.3226 -0.3451
12741TIP3    H159638   4.330   4.040  14.458 -0.0921 -0.5768 -1.7967
12741TIP3    H259639   4.241   4.106  14.355 -0.9838  1.1917  0.0460
12742TIP3   OH259640   1.785   0.147   1.970  0.0388 -0.0735  0.2760
12742TIP3    H159641   1.852   0.138   1.903  0.5802  0.3152  0.7517
12742TIP3    H259642   1.805   0.077   2.033  1.5199  1.5111  1.6730
12743TIP3   OH259643   2.711   3.846  16.571  0.1387 -0.6443 -0.6810
12743TIP3    H159644   2.633   3.793  16.555 -0.2720  0.1137 -1.2426
12743TIP3    H259645   2.678   3.926  16.612  0.5422 -0.0814 -1.4132
12744TIP3   OH259646   5.653   5.697  13.704  0.2740  0.3454  0.5134
12744TIP3    H159647   5.649   5.790  13.681  2.6804  0.4447  0.2593
12744TIP3    H259648   5.689   5.695  13.792 -2.8437 -0.2971  1.8932
12745TIP3   OH259649   0.375   1.594   2.900  0.2504 -0.3658  0.0273
12745TIP3    H159650   0.468   1.615   2.894  0.1362 -0.0865 -0.9401
12745TIP3    H259651   0.331   1.678   2.886 -0.1460 -0.5272  0.3072
12746TIP3   OH259652   5.019   6.078  13.503  0.0442  0.1624  0.4082
12746TIP3    H159653   5.012   6.092  13.597 -0.4628  0.7863  0.2880
12746TIP3    H259654   5.113   6.077  13.486  0.1506 -0.4794  0.9909
12747TIP3   OH259655   1.218   1.302  12.300  0.2720  0.3609  0.0541
12747TIP3    H159656   1.145   1.297  12.238  0.3457 -3.5790 -0.0006
12747TIP3    H259657   1.175   1.306  12.386  0.1615  3.4961 -0.0469
12748TIP3   OH259658   0.703   3.146  15.573 -0.0535  0.1527  0.9262
12748TIP3    H159659   0.774   3.151  15.509  0.9184  1.4785  2.0642
12748TIP3    H259660   0.624   3.155  15.520  0.6170 -0.6270 -0.2778
12749TIP3   OH259661   3.487   3.755   2.562  0.1624  0.2408  0.1460
12749TIP3    H159662   3.512   3.830   2.508  2.3948  1.9230  3.2202
12749TIP3    H259663   3.555   3.690   2.546  0.2795  0.3504  0.1973
12750TIP3   OH259664   0.942   3.439   0.417  0.1674  0.2310 -0.1572
12750TIP3    H159665   0.971   3.447   0.508 -1.6333  0.4791  0.4394
12750TIP3    H259666   1.017   3.403   0.370  1.5736  1.3128  1.1724
12751TIP3   OH259667   1.551   4.097  15.598 -0.0988  0.3121 -0.0291
12751TIP3    H159668   1.511   4.028  15.546 -0.2738 -2.7894  3.7406
12751TIP3    H259669   1.643   4.072  15.606  0.3228  1.6976 -0.2119
12752TIP3   OH259670   4.482   0.516  12.589  0.8841  0.0712  0.2174
12752TIP3    H159671   4.432   0.574  12.645  0.9966  0.3091  0.0721
12752TIP3    H259672   4.417   0.467  12.540  0.7948  0.3909  0.0169
12753TIP3   OH259673   4.815   4.764  11.608 -0.7797 -0.2784  0.0227
12753TIP3    H159674   4.822   4.669  11.598  0.6934 -0.6232  3.2069
12753TIP3    H259675   4.721   4.781  11.606 -1.3024 -2.2965  2.3111
12754TIP3   OH259676   6.497   6.701   1.011 -0.5353 -0.2140 -0.7777
12754TIP3    H159677   6.576   6.749   1.037 -1.4401  1.1875 -0.4989
12754TIP3    H259678   6.528   6.635   0.950  0.6754  1.3281 -1.9262
12755TIP3   OH259679   2.638   5.443   0.533  0.3883 -0.8033  0.3026
12755TIP3    H159680   2.622   5.379   0.602  3.3560 -1.4285  0.5329
12755TIP3    H259681   2.733   5.445   0.523  0.4787  3.2748 -0.0036
12756TIP3   OH259682   2.617   4.479  17.155 -0.3077  0.4364  0.1064
12756TIP3    H159683   2.652   4.504  17.069  1.5809  2.1888  1.2713
12756TIP3    H259684   2.689   4.431  17.196 -0.6584  0.8431  1.2161
12757TIP3   OH259685   5.982   5.859   0.241 -0.2919  0.1791 -0.0246
12757TIP3    H159686   6.038   5.927   0.204 -2.7776  1.6293 -1.4168
12757TIP3    H259687   5.962   5.890   0.329  1.2575 -0.5157  0.6097
12758TIP3   OH259688   2.102   5.790  14.508  0.6059 -0.6783  0.2154
12758TIP3    H159689   2.026   5.736  14.489 -0.7445  1.3652 -0.6021
12758TIP3    H259690   2.136   5.814  14.421 -0.6491  2.1101  0.3867
12759TIP3   OH259691   4.317   4.859  13.504 -0.8016 -0.2288 -0.4407
12759TIP3    H159692   4.330   4.933  13.564 -0.6015 -0.7879  0.2224
12759TIP3    H259693   4.287   4.899  13.422 -0.8842  0.5677 -0.0303
12760TIP3   OH259694   0.964   5.815   5.459 -0.1616  0.7222  0.0722
12760TIP3    H159695   1.014   5.734   5.464 -1.3800 -0.0096  0.9260
12760TIP3    H259696   0.933   5.819   5.369 -1.3335 -0.5635  0.3901
12761TIP3   OH259697   5.508   2.444   4.143 -0.4247 -0.1185 -0.2588
12761TIP3    H159698   5.489   2.489   4.225 -3.9060 -0.6049 -0.6616
12761TIP3    H259699   5.573   2.378   4.166  2.6196  2.9945  0.9379
12762TIP3   OH259700   2.934   3.814   1.955 -0.8437 -0.0259 -0.5182
12762TIP3    H159701   2.852   3.813   2.005 -0.5840  0.0996 -0.0896
12762TIP3    H259702   2.932   3.733   1.905 -1.0807 -0.1770 -0.2680
12763TIP3   OH259703   6.601   2.951  13.762  0.6599 -0.0565  0.3544
12763TIP3    H159704   6.595   3.007  13.684  1.1536  0.5959  0.7779
12763TIP3    H259705   6.600   2.861  13.727 -1.3606  0.1512 -0.2717
12764TIP3   OH259706   1.785   3.741  13.975 -0.2134 -0.0218 -0.2446
12764TIP3    H159707   1.769   3.829  14.010  0.9062 -0.1478  0.6472
12764TIP3    H259708   1.846   3.754  13.902  0.6743 -0.1165  0.4597
12765TIP3   OH259709   4.799   2.667  14.831  0.7163 -0.1986  0.6100
12765TIP3    H159710   4.788   2.577  14.863  1.8205 -0.4148  0.3987
12765TIP3    H259711   4.878   2.665  14.778 -0.5443  0.3737 -1.4096
12766TIP3   OH259712   2.890   0.985   3.753 -0.1285 -0.1460  0.1612
12766TIP3    H159713   2.885   1.069   3.706 -0.1470  0.2272  0.8171
12766TIP3    H259714   2.804   0.975   3.793 -0.0670 -0.3936  0.2343
12767TIP3   OH259715   0.652   1.149   2.909 -1.0580 -0.2375  0.1697
12767TIP3    H159716   0.728   1.091   2.906 -0.3865  0.6537 -1.1197
12767TIP3    H259717   0.666   1.210   2.837 -0.6422  2.8673  2.6788
12768TIP3   OH259718   1.224   0.685   1.040  0.4801 -0.1193  0.0632
12768TIP3    H159719   1.315   0.660   1.053 -0.0061 -1.8710  0.4078
12768TIP3    H259720   1.189   0.693   1.129  0.1018 -0.2102 -0.0772
12769TIP3   OH259721   0.613   4.680  13.078 -0.1910  0.1271 -0.6229
12769TIP3    H159722   0.675   4.608  13.090 -1.5970 -0.9774  0.2775
12769TIP3    H259723   0.583   4.671  12.988 -1.1583 -1.1051 -0.2019
12770TIP3   OH259724   3.645   5.644  14.222  0.1437  0.0639 -0.2034
12770TIP3    H159725   3.664   5.628  14.314  1.2028  2.1983  0.0152
12770TIP3    H259726   3.551   5.658  14.219 -0.0811 -1.1988  0.3247
12771TIP3   OH259727   2.667   1.581  12.137  1.0277  0.0034 -0.2148
12771TIP3    H159728   2.706   1.499  12.167 -1.4555 -1.3922 -0.5071
12771TIP3    H259729   2.677   1.579  12.042 -0.3166 -0.7657 -0.3780
12772TIP3   OH259730   1.851   0.655  11.602 -0.3073 -0.1378 -0.0915
12772TIP3    H159731   1.778   0.716  11.606  0.0178  0.2068  1.2877
12772TIP3    H259732   1.811   0.569  11.615 -0.4039  0.1334  1.6601
12773TIP3   OH259733   5.563   3.956  14.267  0.2927  0.5484  0.1646
12773TIP3    H159734   5.626   3.973  14.337 -0.2443  0.6655  0.6235
12773TIP3    H259735   5.498   3.899  14.306  1.1871 -1.2869 -0.8914
12774TIP3   OH259736   2.197   5.516  13.408  0.1464  0.4231 -0.3287
12774TIP3    H159737   2.215   5.429  13.373  1.5245  2.0822 -4.2153
12774TIP3    H259738   2.264   5.530  13.475  0.8388 -0.9165 -0.7197
12775TIP3   OH259739   6.178   5.503   1.409  0.1384  0.7701  0.1534
12775TIP3    H159740   6.207   5.524   1.497 -2.0565  0.6583  0.9738
12775TIP3    H259741   6.104   5.562   1.393 -1.6207 -1.3917 -0.2591
12776TIP3   OH259742   0.808   3.028   3.519  0.6211  0.4076 -0.2673
12776TIP3    H159743   0.766   2.948   3.488  2.2631 -0.6863  0.2063
12776TIP3    H259744   0.774   3.040   3.608 -1.2379  1.4726 -1.0599
12777TIP3   OH259745   3.826   6.352   6.077 -0.5896 -0.1521  0.1740
12777TIP3    H159746   3.867   6.282   6.128 -0.4106 -0.6309 -0.6108
12777TIP3    H259747   3.818   6.316   5.989  0.3239  1.1304 -0.4722
12778TIP3   OH259748   0.844   6.204   3.271  0.8723 -0.6173  0.0831
12778TIP3    H159749   0.833   6.299   3.280 -1.7027 -0.6002 -1.9841
12778TIP3    H259750   0.803   6.184   3.187 -1.2649 -3.9461  1.7327
12779TIP3   OH259751   6.398   1.038  16.931  0.3244 -0.6209 -0.0499
12779TIP3    H159752   6.406   0.943  16.925  0.2612 -0.5684 -1.0125
12779TIP3    H259753   6.322   1.052  16.987 -0.0499 -1.1371 -0.4243
12780TIP3   OH259754   6.401   4.692   5.505  0.1666 -0.6382  0.0830
12780TIP3    H159755   6.470   4.681   5.441  1.6882  0.9833  1.3321
12780TIP3    H259756   6.323   4.715   5.454  1.4636  1.1776 -1.1963
12781TIP3   OH259757   2.260   3.952  14.671 -0.0353 -0.2562 -0.1517
12781TIP3    H159758   2.297   3.946  14.759  0.9967  0.4941 -0.5088
12781TIP3    H259759   2.167   3.936  14.683 -0.1261  1.0821  1.2823
12782TIP3   OH259760   1.698   4.727   5.268  0.3577 -0.2988  0.1434
12782TIP3    H159761   1.775   4.671   5.282 -0.2742 -1.3914 -0.6196
12782TIP3    H259762   1.644   4.678   5.206 -0.3686  1.0274 -0.3077
12783TIP3   OH259763   0.968   3.217  17.168 -0.2610  0.1656 -0.0095
12783TIP3    H159764   0.966   3.123  17.184 -1.5214  0.2706  0.6327
12783TIP3    H259765   0.902   3.253  17.228  0.5630  1.5181  0.1343
12784TIP3   OH259766   4.134   4.121   3.265 -0.7312  0.2765 -0.2715
12784TIP3    H159767   4.155   4.201   3.314 -0.5519  0.0883 -0.0373
12784TIP3    H259768   4.169   4.050   3.319 -1.8707 -0.0379  0.0872
12785TIP3   OH259769   0.127   4.256  16.344  0.3085  0.2423  0.1809
12785TIP3    H159770   0.184   4.219  16.277  0.8277 -0.2765  0.8984
12785TIP3    H259771   0.138   4.199  16.420 -1.5094 -0.1357  0.2092
12786TIP3   OH259772   5.850   5.664  11.854  0.3344 -0.0760  0.7321
12786TIP3    H159773   5.757   5.644  11.850  0.1089  1.1086 -0.5469
12786TIP3    H259774   5.853   5.758  11.871  1.2914  0.0034  0.1679
12787TIP3   OH259775   3.168   6.740   1.752 -0.3023 -0.2181 -0.4924
12787TIP3    H159776   3.100   6.807   1.759 -1.3321 -1.1837 -0.9759
12787TIP3    H259777   3.128   6.661   1.789  0.2743 -1.0041 -1.4792
12788TIP3   OH259778   0.739   4.385   1.255  0.1276  0.3033  0.3242
12788TIP3    H159779   0.803   4.456   1.244  0.7990 -0.6074 -2.5055
12788TIP3    H259780   0.787   4.315   1.299  1.2423 -0.4254 -1.8990
12789TIP3   OH259781   6.105   3.169  12.219 -0.7632 -0.2617  0.1022
12789TIP3    H159782   6.024   3.132  12.254 -0.7043 -0.2987  0.1984
12789TIP3    H259783   6.162   3.093  12.206 -0.4871 -0.1611  0.6978
12790TIP3   OH259784   3.178   2.709   6.483  0.3717 -0.5752  0.1440
12790TIP3    H159785   3.123   2.699   6.405  0.5290  1.4811 -0.2696
12790TIP3    H259786   3.202   2.801   6.484 -0.6467 -0.2263  3.3048
12791TIP3   OH259787   3.975   5.886  11.105 -0.2307  0.6774 -0.5343
12791TIP3    H159788   4.050   5.895  11.046  2.1518 -0.4361  2.0729
12791TIP3    H259789   3.906   5.846  11.052  0.8422  2.0785 -3.1378
12792TIP3   OH259790   3.190   5.488  15.712  0.2744 -0.3084 -0.2740
12792TIP3    H159791   3.146   5.407  15.687 -0.2882 -0.1954  0.3283
12792TIP3    H259792   3.232   5.468  15.795 -2.2672  0.8030  1.3843
12793TIP3   OH259793   6.183   2.274  14.291 -0.1391  0.2083 -0.1250
12793TIP3    H159794   6.191   2.199  14.348 -3.3478 -0.5298 -0.4291
12793TIP3    H259795   6.242   2.256  14.218  0.3128 -1.2231  0.5666
12794TIP3   OH259796   0.828   6.013   5.966  0.0579  0.0904 -0.5163
12794TIP3    H159797   0.780   5.979   6.042  1.9932  0.6503  1.0483
12794TIP3    H259798   0.856   6.101   5.993  0.9666  0.2123 -1.7932
12795TIP3   OH259799   4.294   5.719  14.642 -0.3834  0.3329  0.2492
12795TIP3    H159800   4.271   5.679  14.726  1.6118 -0.6501  0.3890
12795TIP3    H259801   4.325   5.807  14.665  1.2680 -0.3359  0.7363
12796TIP3   OH259802   5.460   4.238   5.008 -0.8806  1.0713 -0.7120
12796TIP3    H159803   5.415   4.249   5.092  0.2326  2.5544 -0.2583
12796TIP3    H259804   5.543   4.284   5.020 -0.6008  1.1161 -2.5562
12797TIP3   OH259805   4.023   3.773  10.369 -0.3128 -0.1993 -0.4720
12797TIP3    H159806   4.011   3.853  10.421 -0.2416 -0.6129  0.1881
12797TIP3    H259807   3.993   3.702  10.426  0.3585 -0.7196 -0.7515
12798TIP3   OH259808   3.952   1.505  15.524  0.0373  0.0644 -0.1661
12798TIP3    H159809   3.908   1.429  15.485 -0.8278  0.3077  0.3363
12798TIP3    H259810   3.882   1.564  15.550  0.6599  0.5291  0.5057
12799TIP3   OH259811   4.881   1.572  10.867  0.1253 -0.7024  0.8735
12799TIP3    H159812   4.819   1.534  10.930 -0.4275 -0.5257  0.4433
12799TIP3    H259813   4.952   1.508  10.862  0.8833 -0.0775  2.7355
12800TIP3   OH259814   3.571   5.456   0.572 -0.6184 -0.2721  0.0793
12800TIP3    H159815   3.630   5.512   0.621  0.5131 -1.8225  0.5825
12800TIP3    H259816   3.558   5.501   0.488 -0.5516  1.1719  0.8156
12801TIP3   OH259817   0.148   5.093  16.457  0.5861 -0.7173  0.0272
12801TIP3    H159818   0.108   5.104  16.371 -0.4543 -2.4929  0.2453
12801TIP3    H259819   0.225   5.038  16.441  0.3026 -1.1827  0.2395
12802TIP3   OH259820   2.254   5.850  13.206 -0.3391  0.4777 -0.0961
12802TIP3    H159821   2.271   5.920  13.144  0.1715 -0.3625 -0.9296
12802TIP3    H259822   2.241   5.772  13.152  0.5349 -0.3606  0.8596
12803TIP3   OH259823   6.588   3.304  12.273 -0.2296 -0.2046 -0.3873
12803TIP3    H159824   6.568   3.211  12.260 -2.2267 -0.0858  1.3018
12803TIP3    H259825   6.539   3.328  12.351  0.2027  2.3129 -0.8160
12804TIP3   OH259826   0.369   1.190  12.647  0.0534  0.1525 -1.1356
12804TIP3    H159827   0.276   1.206  12.663  0.3304  0.4194  0.2836
12804TIP3    H259828   0.390   1.248  12.574 -1.0176 -0.3464 -1.8802
12805TIP3   OH259829   1.093   2.139  13.390  0.5334 -0.1639 -0.2754
12805TIP3    H159830   1.134   2.203  13.332  0.4579 -2.4527 -3.0701
12805TIP3    H259831   1.164   2.081  13.417 -0.1163 -2.0827 -2.3296
12806TIP3   OH259832   0.697   6.224   5.262 -0.0784  0.8952  0.3033
12806TIP3    H159833   0.638   6.217   5.337 -1.4734  1.2456 -0.7241
12806TIP3    H259834   0.641   6.210   5.185  1.7909 -2.6821 -0.6538
12807TIP3   OH259835   4.478   1.803  12.881 -0.3209  0.5084  0.5367
12807TIP3    H159836   4.458   1.839  12.794 -1.4533  0.3298  0.6977
12807TIP3    H259837   4.499   1.711  12.865  0.6243  0.7502  0.3371
12808TIP3   OH259838   4.570   0.418  11.768  0.2141  0.6677 -0.1130
12808TIP3    H159839   4.548   0.478  11.697 -0.2513  0.3434 -0.2471
12808TIP3    H259840   4.511   0.343  11.756 -0.6587  1.0966  1.2713
12809TIP3   OH259841   5.992   4.518  12.193  0.1054 -0.2476  1.3166
12809TIP3    H159842   5.904   4.509  12.155  0.2390 -0.6469  1.0907
12809TIP3    H259843   6.013   4.611  12.183  0.0542 -0.3067  0.5857
12810TIP3   OH259844   3.351   0.461   5.486  0.1851  0.1174 -0.4903
12810TIP3    H159845   3.395   0.544   5.505 -0.1546  0.0009  0.8374
12810TIP3    H259846   3.260   0.475   5.511  0.2642 -0.8702  0.3857
12811TIP3   OH259847   2.632   5.215  14.465 -0.4107  0.2076 -0.1064
12811TIP3    H159848   2.691   5.151  14.425  0.4777  0.4119  0.8338
12811TIP3    H259849   2.559   5.163  14.498  0.0200 -0.2600  0.1312
12812TIP3   OH259850   1.834   6.713   3.507  0.5097  0.9965  0.8373
12812TIP3    H159851   1.896   6.644   3.531 -0.6977  0.1465  1.6342
12812TIP3    H259852   1.810   6.693   3.416  1.5078  1.4323  0.4669
12813TIP3   OH259853   5.978   1.072  11.868  0.8456  0.2553 -0.2707
12813TIP3    H159854   5.909   1.032  11.921 -0.2540  1.6491 -0.6255
12813TIP3    H259855   6.038   0.999  11.850 -0.4368 -0.9607  0.1610
12814TIP3   OH259856   0.854   6.657  15.461 -0.2425  0.4715 -0.0787
12814TIP3    H159857   0.948   6.661  15.476 -0.0093 -0.1932 -1.2228
12814TIP3    H259858   0.839   6.719  15.389 -0.8715  1.4517  0.8625
12815TIP3   OH259859   0.755   1.677   1.267  0.2771 -0.5153 -0.6728
12815TIP3    H159860   0.760   1.611   1.199 -0.4733 -0.0802 -1.1571
12815TIP3    H259861   0.770   1.629   1.349 -0.4960 -1.3144 -0.9941
12816TIP3   OH259862   5.366   5.595   5.820  0.1411 -0.1300  0.7503
12816TIP3    H159863   5.448   5.644   5.824  1.5139 -2.0546 -1.4408
12816TIP3    H259864   5.370   5.537   5.896  1.1334 -0.6243  0.3400
12817TIP3   OH259865   4.543   2.671  12.409  0.3230 -0.3479 -0.3912
12817TIP3    H159866   4.541   2.579  12.436 -0.4026 -0.0657  0.5370
12817TIP3    H259867   4.452   2.693  12.393  0.4432  0.3612 -0.1120
12818TIP3   OH259868   2.434   2.645   4.906  0.2158 -0.0418 -0.0892
12818TIP3    H159869   2.509   2.601   4.946  1.2743  1.7352  0.0350
12818TIP3    H259870   2.372   2.657   4.978  0.3139 -0.5142  0.0754
12819TIP3   OH259871   5.133   2.951  15.587  0.5517 -0.2461 -0.2635
12819TIP3    H159872   5.121   2.909  15.672  1.6155  0.2387  0.1423
12819TIP3    H259873   5.044   2.966  15.555  0.1456 -1.2360  0.3548
12820TIP3   OH259874   5.038   3.473  12.137  0.0492  0.7637 -0.4535
12820TIP3    H159875   4.991   3.397  12.171 -0.1616  1.3443  0.5701
12820TIP3    H259876   5.118   3.436  12.099 -0.0042  0.0340  0.1177
12821TIP3   OH259877   6.696   4.915  14.353 -0.3181  0.1147  0.4327
12821TIP3    H159878   6.703   4.943  14.262  0.8117  0.3453  0.5735
12821TIP3    H259879   6.611   4.948  14.383 -1.3846 -1.2486 -0.9545
12822TIP3   OH259880   5.164   6.021  16.654 -0.0578  0.0322 -0.0076
12822TIP3    H159881   5.130   6.006  16.566 -0.8306  1.6965 -0.0330
12822TIP3    H259882   5.103   5.974  16.711  0.6351 -1.3279 -0.3537
12823TIP3   OH259883   5.449   6.727  14.036 -0.3469 -0.4446  0.0288
12823TIP3    H159884   5.411   6.649  14.076  0.2118 -1.6666 -1.6856
12823TIP3    H259885   5.540   6.703  14.018  0.3298  1.2175  0.9623
12824TIP3   OH259886   5.719   0.344   2.139  0.5443 -0.6004  0.0461
12824TIP3    H159887   5.627   0.329   2.159  0.7821 -2.0399  0.2052
12824TIP3    H259888   5.765   0.325   2.221  0.9784  0.1913 -0.0056
12825TIP3   OH259889   4.873   2.959  11.637  0.2588  0.5080  0.1018
12825TIP3    H159890   4.837   2.870  11.643 -0.9961  1.0514  0.9938
12825TIP3    H259891   4.857   2.984  11.546 -0.5892  0.3047  0.1873
12826TIP3   OH259892   5.814   2.826   2.569  0.5392  0.0410 -0.0511
12826TIP3    H159893   5.745   2.761   2.579  1.5329 -1.1459 -0.6390
12826TIP3    H259894   5.839   2.820   2.476  1.8566 -0.0092  0.2949
12827TIP3   OH259895   3.288   3.528   2.639  0.5336  0.3145  0.5998
12827TIP3    H159896   3.372   3.552   2.679  0.3030  2.3806 -0.0526
12827TIP3    H259897   3.283   3.581   2.560 -0.9390 -0.5379  0.0929
12828TIP3   OH259898   6.118   6.070   4.121 -0.0052 -0.6633  0.3798
12828TIP3    H159899   6.146   6.018   4.046 -0.4334 -0.6978  0.2400
12828TIP3    H259900   6.131   6.013   4.196  2.5136  0.1021  0.6352
12829TIP3   OH259901   3.791   5.101   2.696  0.2763 -0.3157  0.2629
12829TIP3    H159902   3.737   5.054   2.632  3.8894 -3.1819 -1.0381
12829TIP3    H259903   3.773   5.058   2.779  1.8367 -2.6954 -0.5263
12830TIP3   OH259904   2.890   4.926  12.093  0.1169 -0.2168 -0.2073
12830TIP3    H159905   2.808   4.896  12.053 -1.3682  1.8146  1.0794
12830TIP3    H259906   2.882   5.021  12.096  2.1050 -0.0282  0.8431
12831TIP3   OH259907   6.189   0.506   4.317  0.8228  0.6862 -0.0521
12831TIP3    H159908   6.151   0.419   4.313  1.9060  0.1266  1.1452
12831TIP3    H259909   6.115   0.565   4.304 -0.3536 -0.3729  1.5006
12832TIP3   OH259910   4.448   1.974  13.620 -0.8889  0.9539  0.2244
12832TIP3    H159911   4.458   2.035  13.692  0.3887  0.4516  0.5100
12832TIP3    H259912   4.532   1.977  13.574 -0.2994 -1.4667  0.9736
12833TIP3   OH259913   0.223   6.043   4.296  0.4587 -0.6922  0.0707
12833TIP3    H159914   0.224   6.079   4.385  0.3436  1.4569 -0.7448
12833TIP3    H259915   0.208   6.118   4.240 -0.1790 -2.1046 -1.7524
12834TIP3   OH259916   3.263   1.894   0.753  0.2424  0.1455  0.1799
12834TIP3    H159917   3.173   1.874   0.781  0.6008  0.4212  1.6212
12834TIP3    H259918   3.252   1.949   0.675 -0.9031  1.3631  1.1322
12835TIP3   OH259919   1.405   5.244  13.947 -0.1857  0.0195 -1.1820
12835TIP3    H159920   1.427   5.152  13.932  0.5745  0.0485 -0.3574
12835TIP3    H259921   1.473   5.292  13.901  1.0447  0.1190  0.6163
12836TIP3   OH259922   3.249   5.441   0.422  0.6826 -0.2553 -0.0074
12836TIP3    H159923   3.318   5.453   0.487 -0.0294 -0.1604  0.7587
12836TIP3    H259924   3.226   5.531   0.396 -0.1056 -0.2049  0.7978
12837TIP3   OH259925   0.192   5.800   0.848 -0.0353 -0.4186  0.8213
12837TIP3    H159926   0.247   5.771   0.921  1.6405  2.1282  0.6814
12837TIP3    H259927   0.168   5.890   0.870 -1.2752 -0.2939 -0.8197
12838TIP3   OH259928   3.287   0.783   1.967  0.1686  0.2627  0.2068
12838TIP3    H159929   3.284   0.878   1.956 -0.0554  0.1812 -0.5037
12838TIP3    H259930   3.221   0.750   1.906  0.8689 -0.4009 -0.2040
12839TIP3   OH259931   1.774   1.001  14.542  0.4858  0.0087 -0.1128
12839TIP3    H159932   1.819   0.975  14.623  1.2181  1.5777  0.0278
12839TIP3    H259933   1.797   0.933  14.479  0.9604 -0.5614  0.6507
12840TIP3   OH259934   2.427   6.765  16.983 -0.6644  0.6561 -0.6966
12840TIP3    H159935   2.498   6.748  16.922  0.0446 -1.1074  0.5330
12840TIP3    H259936   2.366   6.692  16.971  0.2051 -0.5717  1.6006
12841TIP3   OH259937   1.130   2.194  12.795 -0.6362  0.4598  0.6495
12841TIP3    H159938   1.042   2.222  12.768  0.4534  3.7773  0.0247
12841TIP3    H259939   1.175   2.276  12.815  2.8562 -0.9788 -0.6741
12842TIP3   OH259940   0.236   6.624  13.597  0.4814 -0.2696 -0.0686
12842TIP3    H159941   0.253   6.683  13.670 -1.4419 -2.9547  2.8169
12842TIP3    H259942   0.141   6.607  13.601  0.4135 -1.0916 -2.8229
12843TIP3   OH259943   6.671   2.017  13.133 -0.0984 -0.0658 -0.1922
12843TIP3    H159944   6.734   1.948  13.113  0.1055 -0.2129  0.8816
12843TIP3    H259945   6.618   1.981  13.204 -0.9279  0.3367 -0.5964
12844TIP3   OH259946   0.704   0.579  14.838 -0.0371 -0.1632 -0.0119
12844TIP3    H159947   0.658   0.663  14.830  0.1550 -0.0535  0.0132
12844TIP3    H259948   0.676   0.529  14.762  0.4808  0.2400 -0.4808
12845TIP3   OH259949   6.372   0.965  12.601 -0.5968 -0.1544 -0.2883
12845TIP3    H159950   6.455   0.923  12.579 -1.0966 -1.2562 -0.1026
12845TIP3    H259951   6.397   1.043  12.652  0.3291 -0.2730 -0.5551
12846TIP3   OH259952   5.586   6.687   3.745  0.1303  0.1932  0.2219
12846TIP3    H159953   5.542   6.713   3.826 -0.5669 -0.3914  0.0406
12846TIP3    H259954   5.675   6.722   3.754 -0.8007  2.9051 -0.1366
12847TIP3   OH259955   1.709   0.710   0.003 -0.2841 -0.3078  0.5964
12847TIP3    H159956   1.701   0.797   0.041 -1.1159  0.4864 -1.3070
12847TIP3    H259957   1.707   0.724  -0.092  2.0455 -2.1713  0.1851
12848TIP3   OH259958   4.192   3.296  11.173 -0.4872 -0.4634 -0.1346
12848TIP3    H159959   4.176   3.216  11.222 -3.0275  0.0099 -0.0371
12848TIP3    H259960   4.147   3.283  11.090  1.3016 -0.1145 -1.2135
12849TIP3   OH259961   3.490   6.789  11.032  0.1960 -0.2765 -0.5309
12849TIP3    H159962   3.488   6.799  10.936  0.3611 -2.0365 -0.7454
12849TIP3    H259963   3.407   6.826  11.061  1.5857  3.6825 -0.9102
12850TIP3   OH259964   6.294   4.672   0.657 -0.3869  0.2604  0.0000
12850TIP3    H159965   6.321   4.700   0.744  0.6184 -1.4863  0.2912
12850TIP3    H259966   6.372   4.631   0.620 -0.6925  1.2412 -1.8756
12851TIP3   OH259967   4.320   2.545   5.499 -0.4511 -0.1747 -0.1677
12851TIP3    H159968   4.374   2.480   5.454 -0.2557 -1.4426  1.7853
12851TIP3    H259969   4.368   2.627   5.491  1.4622 -1.1361  0.9517
12852TIP3   OH259970   6.547   1.597   1.404 -0.3948 -0.0760  0.1077
12852TIP3    H159971   6.613   1.594   1.335  2.0734 -0.3089  2.3233
12852TIP3    H259972   6.534   1.506   1.430  1.7597  0.1617  2.5026
12853TIP3   OH259973   4.091   4.534  11.109 -0.1686  0.9908 -0.1258
12853TIP3    H159974   4.037   4.599  11.065  0.4618  0.2145 -2.1238
12853TIP3    H259975   4.145   4.496  11.040  0.8850 -0.2801  1.3267
12854TIP3   OH259976   5.070   0.257   0.073 -0.2560 -0.0101 -0.7052
12854TIP3    H159977   5.151   0.289   0.033 -0.3400  0.1367 -0.7567
12854TIP3    H259978   5.000   0.295   0.020 -0.4119  1.3197  0.4049
12855TIP3   OH259979   4.135   0.194  11.862  0.2130 -0.2255  0.0237
12855TIP3    H159980   4.166   0.168  11.949  1.3353 -1.5972 -0.7312
12855TIP3    H259981   4.053   0.240  11.878  0.7345  0.1493  1.8461
12856TIP3   OH259982   6.485   2.805  10.410  0.4143  1.1322  0.3830
12856TIP3    H159983   6.401   2.798  10.365  0.3539  0.8496  0.5407
12856TIP3    H259984   6.461   2.829  10.500  0.5882  3.3829 -0.0984
12857TIP3   OH259985   2.590   5.452  15.888  0.4085  0.4290  0.8575
12857TIP3    H159986   2.584   5.546  15.877  0.8646  0.5551  1.5793
12857TIP3    H259987   2.549   5.435  15.972 -2.0448 -0.3591 -0.4170
12858TIP3   OH259988   5.831   6.148   4.029 -0.2015  0.9579  0.1421
12858TIP3    H159989   5.917   6.149   3.987 -0.2880  3.8766 -0.1655
12858TIP3    H259990   5.846   6.186   4.115 -0.8744 -0.5014  0.9437
12859TIP3   OH259991   1.637   4.639  15.989 -0.2100 -0.2293  0.1435
12859TIP3    H159992   1.681   4.705  15.935 -2.5081  2.0822  0.8764
12859TIP3    H259993   1.587   4.587  15.926  0.0811  0.0058 -0.2913
12860TIP3   OH259994   6.638   0.527   1.457 -0.1076 -0.8609  0.3482
12860TIP3    H159995   6.549   0.492   1.451  0.0443 -1.6603  2.2502
12860TIP3    H259996   6.684   0.487   1.382 -1.5790  0.4620 -1.3379
12861TIP3   OH259997   1.341   4.141  13.911 -0.0574 -0.5248 -0.3852
12861TIP3    H159998   1.392   4.101  13.981  0.9586 -1.0867 -1.4131
12861TIP3    H259999   1.398   4.208  13.874 -0.8177  0.2019 -0.2901
12862TIP3   OH260000   2.704   4.774   1.539  0.4422 -0.3557  0.1311
12862TIP3    H160001   2.701   4.825   1.458  2.6867  0.6010  0.5597
12862TIP3    H260002   2.759   4.699   1.518  0.4490 -0.4749  0.5744
12863TIP3   OH260003   5.232   4.252   6.463 -0.2024  0.5194 -0.3183
12863TIP3    H160004   5.199   4.324   6.409  1.3569  0.2919 -1.6453
12863TIP3    H260005   5.206   4.173   6.416 -0.6015  0.2514  0.3449
12864TIP3   OH260006   0.459   5.310  14.234  0.4714 -0.5135 -0.9543
12864TIP3    H160007   0.503   5.350  14.309  0.6333  0.2038 -1.4233
12864TIP3    H260008   0.366   5.326  14.249  0.3956 -1.4601 -0.2937
12865TIP3   OH260009   1.177   5.167   5.184  0.8893  0.4091 -0.2514
12865TIP3    H160010   1.126   5.195   5.107  0.9472  0.1762 -0.3758
12865TIP3    H260011   1.178   5.071   5.178  2.9048  0.4295 -1.2838
12866TIP3   OH260012   4.325   4.789   0.294  0.0628 -0.1137 -0.1107
12866TIP3    H160013   4.287   4.876   0.304  0.9136  0.2883 -0.3185
12866TIP3    H260014   4.413   4.796   0.332  0.0923 -0.9155 -0.0134
12867TIP3   OH260015   1.607   3.494   5.137  0.3537 -0.4841  0.7420
12867TIP3    H160016   1.563   3.560   5.083  0.1965 -0.6518  0.6665
12867TIP3    H260017   1.699   3.499   5.109  0.2714 -0.5767  0.4524
12868TIP3   OH260018   5.584   4.845  12.010 -0.1626  0.3008 -0.0838
12868TIP3    H160019   5.582   4.789  12.089  0.4353 -0.7980 -0.8206
12868TIP3    H260020   5.576   4.934  12.044 -0.0783 -0.1587  1.2185
12869TIP3   OH260021   2.493   2.587   0.810 -0.2464  0.5565 -0.2987
12869TIP3    H160022   2.533   2.564   0.894 -0.8129  1.2077  0.1580
12869TIP3    H260023   2.408   2.624   0.833 -0.6887  0.1379 -1.2003
12870TIP3   OH260024   3.863   1.769   0.005  0.0401  0.0900 -0.5456
12870TIP3    H160025   3.948   1.811  -0.007  0.4790  0.7605  3.4707
12870TIP3    H260026   3.802   1.842   0.021 -0.2619 -0.5181  1.3018
12871TIP3   OH260027   3.125   3.917  14.806 -0.8268 -0.2392 -0.5169
12871TIP3    H160028   3.042   3.869  14.815 -0.6909 -0.0298  3.2454
12871TIP3    H260029   3.103   3.994  14.753 -2.4181 -1.4142 -1.6436
12872TIP3   OH260030   0.741   6.773   4.252 -0.4542  0.5741 -0.8914
12872TIP3    H160031   0.694   6.830   4.313  0.3779  1.2850 -0.9092
12872TIP3    H260032   0.671   6.732   4.201 -1.5053 -2.7002  2.6628
12873TIP3   OH260033   6.172   3.100  14.217 -0.1927 -0.3766 -0.7921
12873TIP3    H160034   6.252   3.050  14.234  0.5433  0.9627 -0.1533
12873TIP3    H260035   6.101   3.042  14.244  0.6666 -0.8760  0.5134
12874TIP3   OH260036   3.380   5.490   3.165  0.6661  0.0224 -0.2771
12874TIP3    H160037   3.424   5.444   3.094  0.6514 -0.4353  0.0061
12874TIP3    H260038   3.287   5.474   3.150  0.6569  0.0225 -0.2206
12875TIP3   OH260039   6.144   6.421  16.581  0.0376  0.0939  0.4957
12875TIP3    H160040   6.223   6.369  16.596  0.7030 -0.3830 -3.6340
12875TIP3    H260041   6.176   6.509  16.566 -0.1900 -0.0716 -1.0571
12876TIP3   OH260042   2.865   5.275  17.075  0.1297 -0.0417  0.1149
12876TIP3    H160043   2.899   5.338  17.011  0.5120 -0.2180  0.1419
12876TIP3    H260044   2.922   5.199  17.066 -1.5904 -1.2364 -1.4346
12877TIP3   OH260045   6.360   1.970  10.651 -0.5519  0.4033  0.1629
12877TIP3    H160046   6.293   1.923  10.701 -1.1814 -2.5066 -3.0184
12877TIP3    H260047   6.324   1.976  10.563  1.8751  2.1405 -0.8088
12878TIP3   OH260048   2.841   4.662  16.967  0.1179  0.6848  0.7648
12878TIP3    H160049   2.934   4.662  16.947 -0.2237  1.1554 -0.9687
12878TIP3    H260050   2.808   4.581  16.927 -0.2993  0.7363  1.0013
12879TIP3   OH260051   1.398   1.777  16.609 -0.2212  0.1008 -0.4827
12879TIP3    H160052   1.485   1.790  16.570 -1.1049  0.1055 -2.6073
12879TIP3    H260053   1.372   1.690  16.580  0.6267 -1.6903  3.4863
12880TIP3   OH260054   3.490   2.160  11.747  0.2354 -0.1007  0.0967
12880TIP3    H160055   3.471   2.192  11.659  0.5378 -1.0316 -0.3212
12880TIP3    H260056   3.540   2.231  11.789  1.6570 -0.3536 -1.0961
12881TIP3   OH260057   2.952   2.048  15.055 -0.0307 -0.3066 -0.1990
12881TIP3    H160058   2.925   2.086  15.139 -1.3408  1.9730 -1.5489
12881TIP3    H260059   2.905   1.965  15.051 -0.7974  0.0453  0.8651
12882TIP3   OH260060   4.754   6.038   4.005  0.2315  0.7401  1.3766
12882TIP3    H160061   4.774   5.959   4.056  1.2393  0.0197 -0.0486
12882TIP3    H260062   4.660   6.052   4.018 -0.4065 -1.8220  0.2434
12883TIP3   OH260063   1.080   6.740   2.203 -0.3198 -0.0108  0.6422
12883TIP3    H160064   0.999   6.763   2.157  1.0888  0.7048 -1.6546
12883TIP3    H260065   1.082   6.798   2.279 -1.2970  0.9632 -0.0466
12884TIP3   OH260066   5.249   4.871  14.310 -0.1653  0.3500 -0.5565
12884TIP3    H160067   5.325   4.915  14.348  0.2531 -0.6475 -0.2172
12884TIP3    H260068   5.276   4.780  14.300 -0.9285  0.2154 -1.5026
12885TIP3   OH260069   2.257   3.666  16.567  0.3268 -0.4032 -0.3873
12885TIP3    H160070   2.342   3.638  16.600  1.6661  3.3428 -0.1547
12885TIP3    H260071   2.275   3.703  16.480 -1.0483  0.3166 -0.4012
12886TIP3   OH260072   6.242   4.379   3.474 -0.0571  1.0138 -0.8414
12886TIP3    H160073   6.303   4.402   3.544  0.0408 -0.3565 -0.4483
12886TIP3    H260074   6.179   4.451   3.473  0.3939  1.4403  0.1216
12887TIP3   OH260075   3.275   2.314   4.024 -0.2751  0.0517  0.5158
12887TIP3    H160076   3.274   2.253   3.950 -0.6893 -0.7365  1.1637
12887TIP3    H260077   3.348   2.373   4.004  1.8812 -2.2212  1.1051
12888TIP3   OH260078   3.798   2.814  15.949  0.1570 -0.1249 -0.5650
12888TIP3    H160079   3.769   2.905  15.949  0.7216  0.1196  1.8659
12888TIP3    H260080   3.721   2.765  15.977  0.9964  0.1845  2.6943
12889TIP3   OH260081   2.431   4.314   1.823  0.0379 -0.0539 -0.8360
12889TIP3    H160082   2.463   4.338   1.736 -0.6772 -1.5120 -1.5459
12889TIP3    H260083   2.481   4.369   1.883  0.7701  0.7701 -2.1490
12890TIP3   OH260084   4.524   2.442  16.947  0.0741 -0.3739 -0.7104
12890TIP3    H160085   4.600   2.452  16.889  0.5363 -1.4647 -0.3073
12890TIP3    H260086   4.478   2.526  16.939  2.0479  0.8819  0.0686
12891TIP3   OH260087   1.225   0.979   4.311  0.3783  0.4571  0.3178
12891TIP3    H160088   1.261   1.066   4.329  0.0833  0.3716  1.3804
12891TIP3    H260089   1.298   0.930   4.273  1.2287  0.4881  1.8301
12892TIP3   OH260090   5.880   5.518  13.934 -0.5720  0.3292  0.0189
12892TIP3    H160091   5.930   5.582  13.883  0.0227 -0.2937 -0.1787
12892TIP3    H260092   5.918   5.434  13.912 -1.0477 -0.0562  0.6464
12893TIP3   OH260093   5.273   6.726  11.123 -0.2740  0.5115  0.0718
12893TIP3    H160094   5.253   6.773  11.042 -1.0084  1.0688  0.5596
12893TIP3    H260095   5.193   6.675  11.142  0.8517 -1.8247 -1.0028
12894TIP3   OH260096   0.560   5.044  14.939 -0.0249  0.2511  0.1452
12894TIP3    H160097   0.625   4.986  14.979 -0.3887  0.9427  1.8074
12894TIP3    H260098   0.593   5.132  14.955 -1.0708  0.5942  0.4881
12895TIP3   OH260099   1.533   5.923   5.346  0.3446  0.2013 -0.3041
12895TIP3    H160100   1.508   5.849   5.290 -1.0246  0.8781 -0.6241
12895TIP3    H260101   1.472   5.919   5.420  2.4254 -0.9581  1.4505
12896TIP3   OH260102   2.625   0.996  16.604  0.0849 -0.6899 -0.3703
12896TIP3    H160103   2.610   1.088  16.625 -3.5423 -0.9947 -0.9788
12896TIP3    H260104   2.647   0.955  16.687 -1.2007  0.2971  0.4909
12897TIP3   OH260105   3.488   6.411   2.355 -0.1379 -0.0648 -0.1401
12897TIP3    H160106   3.458   6.469   2.425  1.2470  0.2511  0.2163
12897TIP3    H260107   3.570   6.375   2.388 -0.1149 -0.8962 -1.0854
12898TIP3   OH260108   1.792   5.626   1.801 -0.3427  0.1921 -0.0752
12898TIP3    H160109   1.765   5.716   1.822 -2.7337 -0.5076  0.1318
12898TIP3    H260110   1.887   5.628   1.807 -0.3758  2.4996  0.8075
12899TIP3   OH260111   5.872   5.194  11.139  0.4246  0.3256 -0.4088
12899TIP3    H160112   5.873   5.136  11.063 -2.3109 -0.7949  0.2743
12899TIP3    H260113   5.883   5.135  11.214  3.5865  1.4606  0.1696
12900TIP3   OH260114   3.422   3.043   0.241 -0.3156 -0.3234 -0.4105
12900TIP3    H160115   3.492   3.098   0.276  0.1314 -0.7797 -0.5796
12900TIP3    H260116   3.370   3.103   0.187 -0.8711  0.3329  0.8030
12901TIP3   OH260117   4.494   3.794   4.015  0.1576  0.4649 -0.0556
12901TIP3    H160118   4.434   3.832   3.951  2.2763  1.8418 -1.3412
12901TIP3    H260119   4.453   3.812   4.099 -0.6095  2.6147 -0.8111
12902TIP3   OH260120   0.968   4.681  11.928 -0.3199  0.1396  0.3712
12902TIP3    H160121   0.886   4.638  11.905  0.2692 -0.3354 -0.9135
12902TIP3    H260122   0.987   4.738  11.854  0.1332  0.8330  1.0026
12903TIP3   OH260123   4.315   1.377  14.864  0.3127 -0.0778 -1.1023
12903TIP3    H160124   4.266   1.430  14.802  0.1577 -0.0481 -0.9560
12903TIP3    H260125   4.318   1.430  14.944 -0.7848 -0.7312 -0.5966
12904TIP3   OH260126   0.884   5.512  15.523  0.3720 -0.3879 -0.4402
12904TIP3    H160127   0.863   5.441  15.583  0.4178 -0.0430 -0.0097
12904TIP3    H260128   0.831   5.586  15.554 -0.8214 -0.6337 -1.7754
12905TIP3   OH260129   1.301   2.968   3.092  0.2284 -0.1261  0.3193
12905TIP3    H160130   1.269   3.010   3.012  2.0022  0.0997 -0.3193
12905TIP3    H260131   1.223   2.925   3.129 -1.0487  1.4315 -0.4394
12906TIP3   OH260132   5.601   5.179  16.919  0.3397 -0.0468  0.5672
12906TIP3    H160133   5.526   5.169  16.978  0.4745  1.1873  0.9580
12906TIP3    H260134   5.568   5.151  16.833  0.0623 -1.5881  1.1378
12907TIP3   OH260135   2.663   2.340  17.144 -0.1874  0.2997 -0.0389
12907TIP3    H160136   2.758   2.346  17.151  0.3588 -4.3266 -0.3534
12907TIP3    H260137   2.633   2.324  17.234 -0.3293 -0.7294 -0.2595
12908TIP3   OH260138   4.054   1.648  16.644  0.1300  0.6343 -0.6985
12908TIP3    H160139   3.975   1.676  16.599  0.3441  1.0747 -0.8097
12908TIP3    H260140   4.095   1.584  16.585 -0.1874  0.3354 -0.5989
12909TIP3   OH260141   5.992   4.855  13.105 -0.0413 -0.7644  0.3707
12909TIP3    H160142   5.939   4.778  13.122 -1.4892  0.8319  4.1006
12909TIP3    H260143   5.939   4.909  13.047  0.7716 -2.2055 -1.8490
12910TIP3   OH260144   1.773   2.144  15.332  0.4913 -0.6203  0.1048
12910TIP3    H160145   1.778   2.213  15.265  0.6561 -0.4829  0.2570
12910TIP3    H260146   1.680   2.127  15.342  0.4563 -0.5153 -0.0326
12911TIP3   OH260147   3.544   5.183  13.106  0.1114  0.2651  0.0794
12911TIP3    H160148   3.597   5.164  13.184 -1.0124  1.0120  1.0704
12911TIP3    H260149   3.454   5.180  13.137 -0.3311  1.6595 -0.9351
12912TIP3   OH260150   4.315   6.062  12.951  0.4108 -0.2957  0.3677
12912TIP3    H160151   4.239   6.120  12.946  0.9038  0.2262 -1.6945
12912TIP3    H260152   4.386   6.113  12.913  1.2840 -1.5832  0.2389
12913TIP3   OH260153   0.021   0.284   3.996  0.0965  0.4115  0.0543
12913TIP3    H160154   0.054   0.198   3.970  0.6454  0.4958  0.4589
12913TIP3    H260155   0.009   0.277   4.091 -1.0814  0.3740 -0.0830
12914TIP3   OH260156   3.394   2.710  12.871  0.6486 -0.0357  0.1600
12914TIP3    H160157   3.430   2.779  12.814  0.0048  0.1418 -0.0410
12914TIP3    H260158   3.461   2.697  12.938  1.0410  0.3641 -0.1461
12915TIP3   OH260159   4.508   5.848  15.843  0.2367  0.4133  0.2258
12915TIP3    H160160   4.579   5.859  15.780  3.0493  0.8488  3.2078
12915TIP3    H260161   4.503   5.754  15.858 -1.8926  0.0794 -2.0203
12916TIP3   OH260162   1.302   4.671   5.353 -0.5025  0.5771  0.0801
12916TIP3    H160163   1.279   4.603   5.290  0.4079 -1.2821  1.6399
12916TIP3    H260164   1.287   4.753   5.307  1.8032 -0.6532 -3.1727
12917TIP3   OH260165   5.563   0.056  16.261 -0.2645 -0.0605  0.3555
12917TIP3    H160166   5.544  -0.016  16.320  2.6076 -0.8357  0.4738
12917TIP3    H260167   5.618   0.018  16.193 -1.3922  1.3589 -1.4612
12918TIP3   OH260168   4.936   6.193   2.274 -0.4204 -0.0234 -0.2259
12918TIP3    H160169   4.937   6.289   2.283 -3.1010 -0.0532  1.4512
12918TIP3    H260170   4.887   6.178   2.193  0.2236  0.0045 -0.6269
12919TIP3   OH260171   4.051   5.784  12.646  0.1629  0.2443 -0.0078
12919TIP3    H160172   4.001   5.866  12.647 -2.8688 -1.4161  1.6323
12919TIP3    H260173   4.120   5.797  12.710 -2.5597  0.4601  3.1845
12920TIP3   OH260174   5.852   1.231  15.530  0.0345 -0.6507  0.5061
12920TIP3    H160175   5.861   1.323  15.508 -0.9655 -0.8986 -1.1003
12920TIP3    H260176   5.940   1.204  15.556  0.5269  0.5415  0.1548
12921TIP3   OH260177   1.632   0.902  15.804 -0.7287 -0.2793 -0.2819
12921TIP3    H160178   1.551   0.952  15.794  0.6661  2.3911  0.8603
12921TIP3    H260179   1.678   0.913  15.721 -0.4662  0.3218 -0.0654
12922TIP3   OH260180   5.128   2.969   1.514  0.2617 -0.4586 -0.4557
12922TIP3    H160181   5.034   2.964   1.534 -0.0549  0.4889 -1.6240
12922TIP3    H260182   5.136   2.930   1.427  0.9638 -0.5051 -0.3771
12923TIP3   OH260183   4.833   1.180  16.086  0.7964  1.0673 -0.2374
12923TIP3    H160184   4.866   1.226  16.009  1.0308  0.6036 -0.4161
12923TIP3    H260185   4.815   1.091  16.056 -1.3613  1.4769 -0.3338
12924TIP3   OH260186   1.373   3.020   1.961 -0.0373  0.2199 -0.5713
12924TIP3    H160187   1.294   3.073   1.947  0.4797  0.7977 -1.3959
12924TIP3    H260188   1.378   3.010   2.056 -1.2955 -0.1289 -0.5264
12925TIP3   OH260189   6.505   5.689  11.364  0.0486 -0.1997  0.2393
12925TIP3    H160190   6.478   5.675  11.273  0.8978 -1.4853  0.1759
12925TIP3    H260191   6.527   5.602  11.396  1.3193  0.4519  1.1826
12926TIP3   OH260192   0.209   0.596   5.574 -0.0157  0.7215 -0.6781
12926TIP3    H160193   0.299   0.621   5.591  0.0534 -0.7137  1.5092
12926TIP3    H260194   0.214   0.505   5.545 -0.8059 -0.0150  1.3005
12927TIP3   OH260195   4.437   1.982   2.176  0.5760  0.2747 -0.4761
12927TIP3    H160196   4.370   1.931   2.131  0.2765  0.8291 -0.6630
12927TIP3    H260197   4.420   2.072   2.150  1.6425  0.3830 -0.8475
12928TIP3   OH260198   5.949   0.928  13.570  0.5919 -0.5724  0.0167
12928TIP3    H160199   6.036   0.965  13.551  0.5851 -0.0210  1.0005
12928TIP3    H260200   5.918   0.898  13.485  1.4687 -0.1683 -0.4707
12929TIP3   OH260201   5.990   5.064  11.685 -0.0420  0.4104  0.2283
12929TIP3    H160202   6.002   5.156  11.660 -0.0404  0.6547  1.0939
12929TIP3    H260203   5.901   5.061  11.719  0.1967  0.2365  0.8354
12930TIP3   OH260204   0.058   4.234   5.554 -0.5657 -0.0237 -0.6094
12930TIP3    H160205   0.152   4.243   5.568 -0.5468 -0.6798 -0.2883
12930TIP3    H260206   0.050   4.182   5.474 -0.6669  1.0121 -1.2898
12931TIP3   OH260207   3.329   1.639   0.709 -1.0667 -0.6194 -0.0406
12931TIP3    H160208   3.423   1.653   0.705 -1.0218 -0.8476  0.2118
12931TIP3    H260209   3.293   1.728   0.720 -0.9853 -0.3688 -1.6546
12932TIP3   OH260210   3.124   0.646  15.143  0.6002  0.0274 -0.7416
12932TIP3    H160211   3.162   0.600  15.068 -0.4001  0.5329 -1.5835
12932TIP3    H260212   3.184   0.627  15.215  1.3976 -0.7624 -1.5789
12933TIP3   OH260213   2.121   1.416  12.095  0.4786  0.1991  0.2622
12933TIP3    H160214   2.124   1.412  11.999  2.4121  0.4482  0.2731
12933TIP3    H260215   2.076   1.498  12.114 -0.4429 -0.1250 -0.4010
12934TIP3   OH260216   4.394   5.914   3.775  1.0387  0.2253  0.0735
12934TIP3    H160217   4.451   5.963   3.716  1.7531  1.0805  1.4169
12934TIP3    H260218   4.395   5.825   3.742  0.3115  0.9336 -1.9932
12935TIP3   OH260219   3.878   2.614  15.755  0.2782 -0.4367 -0.0682
12935TIP3    H160220   3.844   2.693  15.797  0.2430 -0.3002 -0.3501
12935TIP3    H260221   3.969   2.635  15.733 -0.1144  0.0299 -1.3703
12936TIP3   OH260222   5.560   2.706   2.544 -0.1149  0.2271  0.4424
12936TIP3    H160223   5.573   2.613   2.526  1.3312 -0.0311  2.4646
12936TIP3    H260224   5.501   2.736   2.474 -1.4972 -2.4148  0.3439
12937TIP3   OH260225   6.090   5.224  11.971 -0.2350 -0.0643  0.5205
12937TIP3    H160226   6.131   5.281  11.906 -1.5244  0.2234 -0.0742
12937TIP3    H260227   6.138   5.141  11.964 -0.9523 -0.3761 -1.5181
12938TIP3   OH260228   5.392   0.504   6.636 -0.5765  0.4624 -0.3884
12938TIP3    H160229   5.473   0.537   6.676  0.1427  0.6703 -1.9641
12938TIP3    H260230   5.329   0.503   6.708  0.6657  0.8461  0.7445
12939TIP3   OH260231   2.288   3.356  13.304 -0.0874 -0.3635  0.2288
12939TIP3    H160232   2.248   3.269  13.300 -0.7179 -0.0757  0.2077
12939TIP3    H260233   2.381   3.338  13.319 -0.3872 -1.0273  1.5362
12940TIP3   OH260234   2.219   1.730   1.224  0.1387  0.4357  0.3740
12940TIP3    H160235   2.200   1.637   1.212 -1.4967  0.7164  0.6255
12940TIP3    H260236   2.226   1.740   1.319 -2.7604  1.0701  0.6155
12941TIP3   OH260237   0.708   1.553  14.491 -0.6653 -0.3467  0.2451
12941TIP3    H160238   0.702   1.472  14.441 -0.9103 -0.3642  0.3011
12941TIP3    H260239   0.726   1.621  14.426  3.1735 -0.8795  0.4976
12942TIP3   OH260240   5.874   3.838  13.911 -0.1608 -0.5939 -0.4385
12942TIP3    H160241   5.911   3.908  13.858  1.2514 -1.8942 -1.2706
12942TIP3    H260242   5.793   3.813  13.866 -0.0399 -0.3111 -0.8100
12943TIP3   OH260243   6.534   2.154  16.096  0.3075  0.5857 -0.3860
12943TIP3    H160244   6.584   2.235  16.087  3.3089 -1.1661 -0.5289
12943TIP3    H260245   6.560   2.100  16.021  0.7579 -1.6602  1.2713
12944TIP3   OH260246   1.464   3.347  16.334 -0.3439  0.3710  0.1589
12944TIP3    H160247   1.423   3.433  16.328 -0.2756  0.3785 -0.2575
12944TIP3    H260248   1.415   3.293  16.273  0.7480  0.5845 -0.9523
12945TIP3   OH260249   3.859   3.364   5.051 -1.0496 -0.0951  0.5731
12945TIP3    H160250   3.946   3.374   5.012 -0.7465 -2.3297  0.5632
12945TIP3    H260251   3.816   3.448   5.035  0.9093  0.8796  0.1197
12946TIP3   OH260252   0.785   6.522  13.174 -0.3909  0.5022 -0.4636
12946TIP3    H160253   0.828   6.575  13.241  0.4176 -1.6120  0.7499
12946TIP3    H260254   0.772   6.436  13.214 -0.9189 -0.5069 -2.6281
12947TIP3   OH260255   4.584   3.243   0.220  0.3170 -0.3026 -0.1517
12947TIP3    H160256   4.590   3.289   0.304 -1.2232  0.4199 -0.4026
12947TIP3    H260257   4.633   3.299   0.160  1.4527 -0.8377  0.2444
12948TIP3   OH260258   2.177   2.576   0.151  0.0739  0.1549 -0.0895
12948TIP3    H160259   2.200   2.667   0.166  0.4198  0.2341 -1.0225
12948TIP3    H260260   2.188   2.563   0.056  1.2767 -1.1792  0.1806
12949TIP3   OH260261   2.322   4.480  11.074 -0.0656 -0.6619  0.2381
12949TIP3    H160262   2.397   4.449  11.023 -0.0155 -1.7371  0.9433
12949TIP3    H260263   2.263   4.518  11.008  1.3554  0.8194 -0.2584
12950TIP3   OH260264   2.241   3.582   4.865  0.5894  0.1785  0.3204
12950TIP3    H160265   2.212   3.540   4.946  0.3509 -1.9026 -0.7580
12950TIP3    H260266   2.258   3.673   4.889  0.6338 -0.4013  2.7164
12951TIP3   OH260267   3.449   2.577  11.771 -0.2928 -0.2631  0.3485
12951TIP3    H160268   3.482   2.667  11.780  0.4276 -0.6116  1.3327
12951TIP3    H260269   3.485   2.547  11.687 -2.0448  0.9669 -0.9050
12952TIP3   OH260270   1.782   5.988   0.964  0.2478 -0.1806  0.7949
12952TIP3    H160271   1.778   6.074   1.006  1.1614 -0.0300  0.5923
12952TIP3    H260272   1.853   5.942   1.010  0.3440 -0.5111  0.3273
12953TIP3   OH260273   5.145   4.266   4.093  0.2107 -0.2212 -0.0365
12953TIP3    H160274   5.179   4.241   4.180 -1.5371 -0.3838  0.6317
12953TIP3    H260275   5.065   4.214   4.083  0.7743 -0.7498 -2.0938
12954TIP3   OH260276   3.835   3.931   4.578  0.1720 -0.9136  0.1610
12954TIP3    H160277   3.811   3.935   4.670  0.7406 -1.8556  0.3590
12954TIP3    H260278   3.917   3.882   4.576  0.9677  0.3724 -0.7009
12955TIP3   OH260279   6.665   1.404  14.022 -0.1465  0.1315 -1.0790
12955TIP3    H160280   6.638   1.320  13.984 -0.7073 -0.0786 -0.2586
12955TIP3    H260281   6.746   1.427  13.977  0.8439 -1.6047 -0.2954
12956TIP3   OH260282   3.051   3.917  14.441  0.3284 -0.0657  0.6112
12956TIP3    H160283   3.118   3.964  14.491  2.4165 -1.0560 -1.0556
12956TIP3    H260284   2.991   3.986  14.411  2.4468  1.4172 -0.5242
12957TIP3   OH260285   3.064   5.960  16.854 -0.1928 -0.0815 -0.1835
12957TIP3    H160286   3.153   5.996  16.846 -0.5863  0.6084 -1.7866
12957TIP3    H260287   3.006   6.034  16.835 -1.0487 -1.0805 -1.7126
12958TIP3   OH260288   4.147   1.171   0.987  0.3851  0.1184 -0.6658
12958TIP3    H160289   4.080   1.222   0.942 -0.7734 -0.0685  0.7466
12958TIP3    H260290   4.132   1.081   0.959 -0.6771 -0.0751  0.4143
12959TIP3   OH260291   4.111   1.162   5.829  0.1233  0.0828 -0.1974
12959TIP3    H160292   4.148   1.206   5.753  0.7066 -0.5864 -0.3072
12959TIP3    H260293   4.122   1.068   5.812  2.7006 -0.1053  1.8571
12960TIP3   OH260294   3.481   4.331   0.561 -0.3924 -0.4172 -0.3964
12960TIP3    H160295   3.394   4.345   0.600 -0.8183 -1.2234 -1.0169
12960TIP3    H260296   3.471   4.251   0.509  0.4992 -0.0541 -1.1552
12961TIP3   OH260297   4.895   5.783   3.171 -0.5455 -0.7111  0.3170
12961TIP3    H160298   4.989   5.796   3.184 -0.7490  1.9787 -0.4095
12961TIP3    H260299   4.863   5.753   3.257  0.5101  1.5493  1.5941
12962TIP3   OH260300   1.194   2.725  13.292 -0.6468 -0.0319  0.5119
12962TIP3    H160301   1.234   2.670  13.225 -1.1579 -0.2324  0.3665
12962TIP3    H260302   1.114   2.758  13.252 -2.5913 -2.5591  1.9864
12963TIP3   OH260303   0.720   5.832   3.402  0.4026  0.7588 -0.3579
12963TIP3    H160304   0.630   5.864   3.410  0.0344 -0.6141  1.8669
12963TIP3    H260305   0.758   5.845   3.489  1.7490 -0.3727 -0.7463
12964TIP3   OH260306   0.969   6.029   3.467 -0.3347  0.1403 -0.6560
12964TIP3    H160307   0.916   5.999   3.541  1.1874 -0.8588  0.0699
12964TIP3    H260308   0.906   6.074   3.410 -1.3029  2.3548  1.9345
12965TIP3   OH260309   0.632   3.618  12.135 -0.1617  0.1653 -0.3660
12965TIP3    H160310   0.635   3.606  12.040  0.4619  0.2811 -0.3621
12965TIP3    H260311   0.540   3.602  12.158 -0.1489 -0.7520 -0.8753
12966TIP3   OH260312   0.683   0.288  10.781  0.1881  0.1969  0.5335
12966TIP3    H160313   0.719   0.323  10.700 -1.5738  0.3658 -0.2216
12966TIP3    H260314   0.624   0.357  10.813  1.6518  0.6078  2.5708
12967TIP3   OH260315   3.058   3.635   3.425  0.1261  0.4859 -0.0989
12967TIP3    H160316   3.130   3.686   3.388 -0.1167  2.4008  1.8637
12967TIP3    H260317   2.981   3.660   3.374 -0.4329  3.9618  2.0843
12968TIP3   OH260318   3.976   2.911   6.191  0.1723 -0.1109  0.2575
12968TIP3    H160319   3.881   2.918   6.189  0.2269  1.0102  0.5026
12968TIP3    H260320   3.994   2.826   6.232 -0.7447  0.8273  2.8547
12969TIP3   OH260321   1.475   6.322  10.557 -0.6524 -0.7038 -0.5221
12969TIP3    H160322   1.404   6.329  10.493  0.3660  0.2150 -1.6017
12969TIP3    H260323   1.431   6.304  10.640 -2.0281 -1.6864 -1.4331
12970TIP3   OH260324   2.247   3.280   3.972  0.1698 -0.0423 -0.3382
12970TIP3    H160325   2.292   3.332   3.906  0.4260  0.6052  0.3280
12970TIP3    H260326   2.197   3.344   4.023 -1.0745 -0.6858 -0.7205
12971TIP3   OH260327   1.655   2.147   6.159 -0.4200  0.2922 -0.0547
12971TIP3    H160328   1.694   2.060   6.167 -0.6609 -0.0144 -1.7619
12971TIP3    H260329   1.729   2.206   6.150 -0.2784 -0.0039 -0.9252
12972TIP3   OH260330   4.977   0.886  15.194  0.6476 -0.6384  0.1282
12972TIP3    H160331   4.922   0.956  15.159  0.6311 -1.0367 -0.6661
12972TIP3    H260332   5.005   0.918  15.279 -0.0662 -0.0369  0.1458
12973TIP3   OH260333   5.797   2.477   1.591 -0.6268  0.1058 -0.2708
12973TIP3    H160334   5.850   2.550   1.561  0.3212 -0.1660  0.6608
12973TIP3    H260335   5.707   2.508   1.584 -0.4636  0.1954 -2.9225
12974TIP3   OH260336   0.694   0.342   5.023  0.4313  0.0024 -0.0561
12974TIP3    H160337   0.648   0.259   5.035  1.8054 -0.7240  0.4433
12974TIP3    H260338   0.624   0.406   5.009 -0.7697 -0.9471  1.2167
12975TIP3   OH260339   0.533   6.136   3.210  0.2883  0.2030 -0.5889
12975TIP3    H160340   0.480   6.215   3.215  0.0915  0.0337  0.0689
12975TIP3    H260341   0.481   6.075   3.158 -0.2692 -0.0386  0.2351
12976TIP3   OH260342   4.503   6.230  12.268  0.3225 -0.8075 -0.0333
12976TIP3    H160343   4.543   6.186  12.193  0.1521 -2.0863  0.6008
12976TIP3    H260344   4.571   6.290  12.300  1.5158 -2.3985  0.5756
12977TIP3   OH260345   0.236   3.622  13.283 -0.1669  0.2768  0.4491
12977TIP3    H160346   0.274   3.539  13.313 -1.3192 -0.3928  0.1544
12977TIP3    H260347   0.215   3.670  13.363 -0.3956 -0.1573  0.6537
12978TIP3   OH260348   3.323   3.717  12.770 -0.2526 -0.1368  0.2327
12978TIP3    H160349   3.268   3.794  12.756 -0.7836 -0.5066  0.2463
12978TIP3    H260350   3.322   3.670  12.687  0.7607  0.3045 -0.0314
12979TIP3   OH260351   5.960   1.521   1.076 -0.5973  0.7819  0.7050
12979TIP3    H160352   5.997   1.524   1.164 -1.0043  0.5759  0.8879
12979TIP3    H260353   5.975   1.431   1.047 -0.3881  0.8725  0.5271
12980TIP3   OH260354   1.589   0.924   2.377  0.5739 -0.4169  0.0293
12980TIP3    H160355   1.509   0.870   2.376  0.1231  0.2437 -0.0718
12980TIP3    H260356   1.585   0.972   2.294  0.7249  0.1310  0.3399
12981TIP3   OH260357   4.745   6.230  15.514  0.5241 -0.3297 -0.0207
12981TIP3    H160358   4.686   6.288  15.465 -0.7687 -1.9748 -0.5203
12981TIP3    H260359   4.790   6.288  15.575 -1.1632  1.1120 -0.0571
12982TIP3   OH260360   1.599   2.664  12.059  0.1018 -0.6546 -0.5112
12982TIP3    H160361   1.558   2.578  12.051 -0.6252 -0.3376 -0.2858
12982TIP3    H260362   1.568   2.713  11.983 -0.4519 -0.2174 -0.0242
12983TIP3   OH260363   2.633   2.254  11.583  0.5932 -0.2059 -0.7530
12983TIP3    H160364   2.597   2.281  11.668 -0.2516  0.3335 -1.2611
12983TIP3    H260365   2.724   2.231  11.601 -0.4945 -3.8486  1.0763
12984TIP3   OH260366   3.813   3.164  10.865 -0.2267 -0.7176  0.0511
12984TIP3    H160367   3.735   3.164  10.921 -1.1351 -1.3559 -1.1742
12984TIP3    H260368   3.856   3.081  10.884  1.2803  0.4349  2.1556
12985TIP3   OH260369   3.763   5.309  14.900  0.1573  0.5130  0.1820
12985TIP3    H160370   3.805   5.224  14.912 -0.5438  0.2017  0.4816
12985TIP3    H260371   3.810   5.349  14.826 -0.3352 -0.6653 -0.8009
12986TIP3   OH260372   6.352   1.822   2.429  0.5376 -0.8274  0.1200
12986TIP3    H160373   6.379   1.752   2.370 -0.9088  0.3716 -2.0863
12986TIP3    H260374   6.434   1.856   2.465  1.3153 -2.9803  0.5302
12987TIP3   OH260375   3.373   1.148  17.044 -0.0619  0.3376 -0.1387
12987TIP3    H160376   3.291   1.103  17.061 -0.5809  1.3587  0.1282
12987TIP3    H260377   3.410   1.165  17.131 -0.7460  1.9694 -0.1208
12988TIP3   OH260378   0.339   0.106  11.655 -0.8039 -0.3394 -0.5085
12988TIP3    H160379   0.427   0.133  11.628  0.4347 -0.5890  2.8398
12988TIP3    H260380   0.283   0.180  11.631  1.3954  2.5644  2.4669
12989TIP3   OH260381   1.703   3.391  16.529  0.6534  0.5119 -0.0403
12989TIP3    H160382   1.609   3.371  16.527  0.8231 -0.2550 -0.8191
12989TIP3    H260383   1.708   3.480  16.494  0.2987  0.1227 -1.1517
12990TIP3   OH260384   4.230   3.693  12.932 -0.1766 -0.0274 -0.0653
12990TIP3    H160385   4.179   3.768  12.902 -1.6912 -1.1929 -0.5503
12990TIP3    H260386   4.192   3.672  13.018  2.1033  1.4163  1.3955
12991TIP3   OH260387   6.103   3.422  15.756  0.4111  0.4429  1.0494
12991TIP3    H160388   6.024   3.471  15.733  0.4358 -1.2648 -3.7285
12991TIP3    H260389   6.174   3.485  15.746  0.1672  0.3641 -2.0050
12992TIP3   OH260390   1.370   3.703   4.409 -0.0605  0.0022 -0.7216
12992TIP3    H160391   1.465   3.695   4.400 -0.1062 -0.2754 -0.9662
12992TIP3    H260392   1.355   3.796   4.423  0.3777 -0.1352  0.8601
12993TIP3   OH260393   2.750   5.346  11.425 -0.4424 -0.4564 -0.1843
12993TIP3    H160394   2.688   5.369  11.355 -1.3538 -0.5395  0.5649
12993TIP3    H260395   2.756   5.425  11.479  0.2527 -0.3914 -0.3526
12994TIP3   OH260396   3.938   4.433  16.308 -0.1727 -0.0541 -0.0384
12994TIP3    H160397   4.025   4.396  16.295 -0.4191 -0.7240  0.1754
12994TIP3    H260398   3.951   4.528  16.303  0.9497 -0.0330  2.2712
12995TIP3   OH260399   1.951   3.505   0.921 -0.3564  0.1496  0.3174
12995TIP3    H160400   1.881   3.504   0.855  0.3232 -1.0985 -0.4266
12995TIP3    H260401   1.939   3.588   0.967 -0.9543  1.0058 -1.2736
12996TIP3   OH260402   3.346   3.291  16.421 -0.1363 -0.6622  0.8557
12996TIP3    H160403   3.393   3.253  16.495  0.0802 -1.1816  0.4553
12996TIP3    H260404   3.360   3.386  16.429 -1.8228 -0.5108  2.6475
12997TIP3   OH260405   0.452   6.116  16.195 -0.5645 -0.1982 -0.4825
12997TIP3    H160406   0.480   6.206  16.211 -0.2201 -0.4751  0.6016
12997TIP3    H260407   0.358   6.116  16.216 -1.3163  0.5775 -3.4699
12998TIP3   OH260408   3.612   0.543   3.369  1.0770 -0.0056  0.2095
12998TIP3    H160409   3.691   0.573   3.325  1.0175 -1.0873 -0.6815
12998TIP3    H260410   3.542   0.553   3.305  0.5919  0.3644  0.7797
12999TIP3   OH260411   5.033   1.862   2.791 -0.2772  0.7722  0.5669
12999TIP3    H160412   5.022   1.884   2.883 -0.6107  2.3056  0.2034
12999TIP3    H260413   5.104   1.919   2.761  1.2183 -1.1477  0.3189
13000TIP3   OH260414   1.839   5.292  10.363 -0.0582 -0.0566  0.3573
13000TIP3    H160415   1.748   5.273  10.341  0.0858  0.9248 -1.2328
13000TIP3    H260416   1.886   5.210  10.347 -0.2562  0.1509 -1.4007
13001TIP3   OH260417   3.998   3.915  16.025  0.4826 -0.5215  0.0643
13001TIP3    H160418   3.943   3.837  16.023 -0.2907  0.0175 -0.3093
13001TIP3    H260419   4.080   3.886  16.065 -0.9705 -0.7814  3.1553
13002TIP3   OH260420   2.021   5.867   1.057  0.5963 -0.4120 -0.0218
13002TIP3    H160421   2.092   5.903   1.110  0.9786 -1.6297  0.3271
13002TIP3    H260422   2.042   5.774   1.049 -1.9321 -1.2418  1.7143
13003TIP3   OH260423   2.758   4.332   1.697  0.1087 -0.1668 -0.1525
13003TIP3    H160424   2.788   4.296   1.781  1.9883  1.4410 -0.0712
13003TIP3    H260425   2.837   4.332   1.642 -0.3025  1.8476 -0.8090
13004TIP3   OH260426   6.527   4.649   0.452  0.5515 -0.0788  0.1302
13004TIP3    H160427   6.605   4.593   0.452  0.3672 -0.3389  0.5768
13004TIP3    H260428   6.561   4.737   0.436  0.7723 -0.4042 -1.3280
13005TIP3   OH260429   2.056   2.102  15.966 -0.0139  0.3446 -0.0056
13005TIP3    H160430   2.026   2.045  16.036 -0.9763  2.3747  1.3485
13005TIP3    H260431   1.977   2.121  15.915  0.1459  0.9707 -0.0337
13006TIP3   OH260432   4.287   1.569  12.683  0.1805  0.1643 -0.2876
13006TIP3    H160433   4.283   1.516  12.762  2.5069  1.3266  0.6954
13006TIP3    H260434   4.232   1.645  12.702 -0.9482 -0.5151 -0.6628
13007TIP3   OH260435   0.808   2.598  17.091 -0.3066 -0.4881  0.5427
13007TIP3    H160436   0.879   2.542  17.122  0.0848 -0.7492 -0.7637
13007TIP3    H260437   0.728   2.548  17.111 -0.2431  0.2318  2.8984
13008TIP3   OH260438   2.213   1.103  14.749 -0.1567  0.1573 -0.3107
13008TIP3    H160439   2.119   1.088  14.761 -0.2241 -0.3707 -1.3710
13008TIP3    H260440   2.243   1.134  14.834 -1.4825  1.3305 -0.2225
13009TIP3   OH260441   4.635   3.577   5.485 -0.9263  0.0383  0.3285
13009TIP3    H160442   4.647   3.501   5.542  0.0765  1.2382  1.8014
13009TIP3    H260443   4.720   3.621   5.486 -1.7973  1.7997  0.4694
13010TIP3   OH260444   3.752   4.361   0.692 -0.9029  0.6677 -0.2763
13010TIP3    H160445   3.674   4.380   0.743 -1.0723 -0.4089 -0.1077
13010TIP3    H260446   3.728   4.286   0.638 -0.3494  1.0492 -1.0709
13011TIP3   OH260447   3.320   5.780  11.979  0.4167 -0.0620  0.3618
13011TIP3    H160448   3.319   5.815  11.889 -0.3530 -0.3799  0.2348
13011TIP3    H260449   3.402   5.812  12.016  0.9768 -0.3175 -0.6071
13012TIP3   OH260450   1.579   5.301   1.395  0.4299  0.2763  0.5561
13012TIP3    H160451   1.634   5.324   1.320 -0.2685 -1.5735 -0.5979
13012TIP3    H260452   1.512   5.369   1.397 -0.1258 -0.1603 -1.1757
13013TIP3   OH260453   2.003   3.459   4.527 -0.1416  0.0585  0.5478
13013TIP3    H160454   1.963   3.461   4.614  0.2591  2.1956  0.7542
13013TIP3    H260455   2.098   3.464   4.545 -0.0627  0.6026  0.0154
13014TIP3   OH260456   5.460   6.181  12.474  0.2145  0.1263 -0.2687
13014TIP3    H160457   5.498   6.097  12.450  1.3144  0.3459  0.6194
13014TIP3    H260458   5.535   6.235  12.500 -0.1696  2.0865 -2.7251
13015TIP3   OH260459   3.533   0.850   4.609 -0.1381 -0.4577 -0.3780
13015TIP3    H160460   3.565   0.781   4.668 -1.6213 -0.1557  0.8503
13015TIP3    H260461   3.573   0.930   4.643  0.6685 -0.5353 -1.1027
13016TIP3   OH260462   6.385   2.722   3.670 -0.0990  0.3049 -0.5742
13016TIP3    H160463   6.475   2.740   3.697  0.1559 -0.2941 -1.0150
13016TIP3    H260464   6.361   2.643   3.717 -0.1249  0.0337 -1.0344
13017TIP3   OH260465   3.878   2.575  11.090  0.9828 -0.0727 -0.7985
13017TIP3    H160466   3.913   2.633  11.022  0.4206 -0.7182 -1.6656
13017TIP3    H260467   3.794   2.545  11.054  0.2473  0.2789  0.5811
13018TIP3   OH260468   1.335   2.044   1.979 -0.1013 -0.0410 -0.3401
13018TIP3    H160469   1.312   2.047   1.886  0.8215 -1.7404 -0.6580
13018TIP3    H260470   1.325   1.952   2.004  0.4662  0.2423  1.0257
13019TIP3   OH260471   5.845   2.971  15.013  0.2586  0.4748 -0.0709
13019TIP3    H160472   5.928   3.018  15.003  1.1929 -1.2314 -0.8300
13019TIP3    H260473   5.844   2.910  14.940 -1.4832  0.1463  0.1912
13020TIP3   OH260474   1.232   5.253  17.175 -0.0390 -0.3517 -0.0444
13020TIP3    H160475   1.208   5.329  17.122  0.0031 -1.5881 -1.9170
13020TIP3    H260476   1.310   5.281  17.223  0.9253  0.3231 -1.8872
13021TIP3   OH260477   0.134   3.234   2.204 -0.4893  0.1211  0.0886
13021TIP3    H160478   0.159   3.319   2.239 -1.4846  0.7491 -0.6790
13021TIP3    H260479   0.065   3.253   2.141 -0.1735 -1.1772 -0.6972
13022TIP3   OH260480   5.778   0.889   1.793  0.0018  0.3635  0.4840
13022TIP3    H160481   5.782   0.949   1.868  0.1463 -0.8806  1.5109
13022TIP3    H260482   5.703   0.920   1.741 -0.3134  1.0548  1.3251
13023TIP3   OH260483   5.492   6.561  15.940  0.3401  0.4083  0.0486
13023TIP3    H160484   5.412   6.579  15.889  0.9250 -0.8464 -1.4062
13023TIP3    H260485   5.466   6.576  16.031 -0.6828  2.9918 -0.5938
13024TIP3   OH260486   2.959   2.666  14.299 -0.7089  0.3949 -0.1466
13024TIP3    H160487   3.027   2.612  14.259 -0.3051 -0.9766  2.1994
13024TIP3    H260488   2.927   2.722  14.228  1.5708 -0.2146 -1.7548
13025TIP3   OH260489   4.839   0.159   6.475  0.0416  0.4093  0.1612
13025TIP3    H160490   4.912   0.099   6.488 -0.2119  0.1200  0.2399
13025TIP3    H260491   4.763   0.115   6.513 -0.3104  0.4201 -0.5098
13026TIP3   OH260492   0.526   2.156   4.247 -0.0601  0.2065  0.4184
13026TIP3    H160493   0.602   2.098   4.252 -0.1555  0.1359  1.2864
13026TIP3    H260494   0.473   2.121   4.176 -0.0029 -0.6440  0.7839
13027TIP3   OH260495   1.732   0.639  13.352  0.9967 -0.0273 -0.1696
13027TIP3    H160496   1.776   0.579  13.412  0.1324 -1.0958 -0.5623
13027TIP3    H260497   1.677   0.693  13.408  0.7773 -0.5002  0.0803
13028TIP3   OH260498   3.509   0.136   0.082  0.5458 -0.2891 -0.1867
13028TIP3    H160499   3.415   0.126   0.067  0.5194  0.0828 -0.2821
13028TIP3    H260500   3.526   0.228   0.063  1.0162 -0.4665 -0.6184
13029TIP3   OH260501   0.240   3.150   3.836  0.0092  0.5324  0.6042
13029TIP3    H160502   0.184   3.225   3.855  1.9376  1.9507  0.9834
13029TIP3    H260503   0.285   3.131   3.918 -0.7043 -1.3211  0.6218
13030TIP3   OH260504   1.795   1.236   5.299  0.1715 -0.1071 -0.1359
13030TIP3    H160505   1.741   1.205   5.226  0.1877  1.0960 -0.6960
13030TIP3    H260506   1.798   1.331   5.287  0.3746  0.0934  1.3079
13031TIP3   OH260507   2.205   4.503   5.619 -0.2994  0.0363 -0.2635
13031TIP3    H160508   2.117   4.499   5.582 -0.1240 -1.3059 -0.5911
13031TIP3    H260509   2.200   4.572   5.686 -1.9036 -0.7964  0.5266
13032TIP3   OH260510   1.015   0.815  16.090  0.4343  0.5988 -0.2279
13032TIP3    H160511   1.033   0.800  16.183 -0.1663  2.5408  0.2360
13032TIP3    H260512   0.975   0.734  16.060 -0.4430  0.3552  1.4980
13033TIP3   OH260513   6.377   3.105  13.987  0.2571  0.3190 -0.3560
13033TIP3    H160514   6.293   3.152  13.993 -0.2416 -0.3770 -1.5428
13033TIP3    H260515   6.376   3.046  14.062 -0.3411  0.2889 -0.3811
13034TIP3   OH260516   0.291   4.251  11.818  0.8956 -0.3084  0.1335
13034TIP3    H160517   0.264   4.320  11.878 -1.4076  1.1269 -2.3355
13034TIP3    H260518   0.291   4.172  11.871 -3.2349  0.4734  1.6842
13035TIP3   OH260519   2.500   0.654  12.906 -0.1974  0.0930 -0.0436
13035TIP3    H160520   2.523   0.680  12.817  0.5367  1.4142  0.5082
13035TIP3    H260521   2.508   0.559  12.906 -0.5245  0.0443 -1.4703
13036TIP3   OH260522   5.030   4.878   2.008 -0.0904 -0.2799 -0.6487
13036TIP3    H160523   4.957   4.939   2.017 -0.1846 -0.5526  0.5808
13036TIP3    H260524   4.989   4.794   1.990 -0.1806 -0.6457  1.0690
13037TIP3   OH260525   4.937   4.217   0.775  0.3727  0.1049  0.3419
13037TIP3    H160526   4.887   4.137   0.755 -0.3693  0.0130  2.3460
13037TIP3    H260527   4.973   4.244   0.691  0.4092 -2.1861 -0.4638
13038TIP3   OH260528   3.512   0.084   6.437  0.0567  0.2775  0.2979
13038TIP3    H160529   3.602   0.113   6.453 -0.1003  1.8104 -1.2148
13038TIP3    H260530   3.465   0.165   6.419 -0.8238 -0.7434 -2.4836
13039TIP3   OH260531   3.759   0.129   0.713 -0.1945 -0.0073 -0.5083
13039TIP3    H160532   3.837   0.163   0.758 -0.2993 -0.4428  0.0249
13039TIP3    H260533   3.703   0.205   0.700 -0.1898  0.1209  0.1799
13040TIP3   OH260534   5.257   5.076   0.194 -0.4162  0.5320  0.6694
13040TIP3    H160535   5.273   5.134   0.119  0.2275  0.2540  0.5866
13040TIP3    H260536   5.257   5.135   0.270 -0.9418  0.7971  0.4728
13041TIP3   OH260537   3.806   6.663   5.749  0.6537  0.0006 -0.5140
13041TIP3    H160538   3.749   6.607   5.697  0.9916 -0.4291 -0.4301
13041TIP3    H260539   3.850   6.719   5.685  2.5491 -1.8478 -0.9399
13042TIP3   OH260540   0.407   1.754  13.371  0.1703  0.1317  0.0889
13042TIP3    H160541   0.481   1.760  13.431  0.4494 -1.4347 -0.0491
13042TIP3    H260542   0.332   1.787  13.421  0.4650 -0.8368  1.2101
13043TIP3   OH260543   0.675   1.603   2.850  0.1542  0.3270 -0.0085
13043TIP3    H160544   0.645   1.601   2.759 -0.8140  1.9721  0.2285
13043TIP3    H260545   0.769   1.590   2.845  0.3268  1.8047 -1.4019
13044TIP3   OH260546   5.965   0.032   5.235 -0.0953  0.0082 -0.1018
13044TIP3    H160547   6.056   0.017   5.211  0.7876  1.7824  1.8310
13044TIP3    H260548   5.969   0.078   5.319 -2.7527  0.6647 -0.2246
13045TIP3   OH260549   3.593   5.000  16.615  0.5419 -0.1654  0.1270
13045TIP3    H160550   3.643   4.991  16.534  0.4081 -0.4772  0.0768
13045TIP3    H260551   3.504   4.972  16.591  0.9292 -2.1537  0.8571
13046TIP3   OH260552   2.103   6.022   4.830  0.3482 -0.5197 -0.3969
13046TIP3    H160553   2.051   5.958   4.781 -1.7484 -0.5439  1.7034
13046TIP3    H260554   2.146   5.971   4.898 -1.1613  0.2002  1.1553
13047TIP3   OH260555   5.816   4.678   4.770 -0.0535 -0.0610  0.0537
13047TIP3    H160556   5.756   4.728   4.714  0.1493  0.3059  0.1624
13047TIP3    H260557   5.758   4.625   4.826 -0.4307  2.5630  2.3501
13048TIP3   OH260558   5.118   6.317  13.205  0.2550 -0.2478 -0.0444
13048TIP3    H160559   5.177   6.300  13.131  0.2644 -0.6608  0.0519
13048TIP3    H260560   5.119   6.412  13.216  1.8433 -0.3250  0.7277
13049TIP3   OH260561   0.006   1.765  10.743 -0.1252 -0.0050  0.1097
13049TIP3    H160562  -0.071   1.808  10.705  0.2021 -0.5179 -1.1659
13049TIP3    H260563  -0.021   1.743  10.832 -1.7457 -0.8683 -0.5522
13050TIP3   OH260564   2.026   0.634  13.132 -0.2156  0.7376  0.5313
13050TIP3    H160565   2.099   0.591  13.088 -1.6266 -2.6928  1.1770
13050TIP3    H260566   2.032   0.605  13.223 -2.7191 -0.3171  0.4533
13051TIP3   OH260567   5.837   6.068  11.279 -0.1347 -0.4303 -0.2407
13051TIP3    H160568   5.856   6.089  11.187  1.9469  1.6117  0.5462
13051TIP3    H260569   5.895   6.126  11.328 -1.2265 -1.4513  2.3857
13052TIP3   OH260570   3.575   4.844   2.206 -0.6357  0.1399  0.0589
13052TIP3    H160571   3.557   4.818   2.115 -0.1741 -0.0239  0.0144
13052TIP3    H260572   3.511   4.913   2.223 -1.5529 -0.6669  0.0139
13053TIP3   OH260573   6.080   6.506   1.270 -0.0168  0.4196 -0.3025
13053TIP3    H160574   6.162   6.532   1.227  1.0882 -1.3206  0.6107
13053TIP3    H260575   6.092   6.533   1.361  1.1994 -2.9685  0.7025
13054TIP3   OH260576   6.245   3.875   3.000  0.6971  0.1235 -0.2766
13054TIP3    H160577   6.157   3.867   3.035  0.6731 -2.2460 -0.7325
13054TIP3    H260578   6.283   3.788   3.008  3.0542  1.0792 -0.0351
13055TIP3   OH260579   2.131   6.121  14.728 -0.0521  0.2395 -0.2318
13055TIP3    H160580   2.162   6.067  14.801  1.4951 -0.3932 -1.3187
13055TIP3    H260581   2.210   6.157  14.689 -0.3440 -2.6900 -4.1008
13056TIP3   OH260582   6.370   4.946   4.975 -0.0232 -0.6845  0.0941
13056TIP3    H160583   6.364   4.971   5.067 -0.6051 -2.4607  0.5833
13056TIP3    H260584   6.431   4.873   4.974 -2.7112 -3.1121 -0.3116
13057TIP3   OH260585   2.899   2.529   3.218  0.1114 -0.3676  0.4304
13057TIP3    H160586   2.828   2.571   3.168  0.7485 -0.1384 -0.3012
13057TIP3    H260587   2.901   2.577   3.301 -0.5491 -0.3397  0.4358
13058TIP3   OH260588   5.174   1.815  16.953 -0.1820 -0.2812 -0.3955
13058TIP3    H160589   5.086   1.778  16.955 -0.2314 -0.2026 -0.8943
13058TIP3    H260590   5.229   1.744  16.920 -0.1301 -0.1904 -0.5054
13059TIP3   OH260591   5.369   4.445   1.825  0.6951  0.0504 -0.0577
13059TIP3    H160592   5.320   4.386   1.883  1.0130  1.2300  1.4802
13059TIP3    H260593   5.461   4.429   1.846  0.7711  1.4495  0.7969
13060TIP3   OH260594   4.957   0.065  16.392  0.2355  0.4424  0.2379
13060TIP3    H160595   4.876   0.087  16.344  1.2414  1.0998 -1.2391
13060TIP3    H260596   4.961  -0.031  16.387 -0.6799  0.3592  0.7498
13061TIP3   OH260597   2.411   4.159  13.681 -0.0316  0.2062 -0.2941
13061TIP3    H160598   2.479   4.202  13.733 -1.2833  0.6264  1.0604
13061TIP3    H260599   2.328   4.192  13.717 -1.0041 -1.9255 -0.4223
13062TIP3   OH260600   6.554   1.240   3.020  0.6910 -0.9030 -0.0645
13062TIP3    H160601   6.518   1.310   3.075  1.3186 -2.3464  2.3044
13062TIP3    H260602   6.488   1.228   2.951 -0.2702  0.7711  0.4871
13063TIP3   OH260603   3.769   6.494   1.561  0.0658 -0.0637  0.6591
13063TIP3    H160604   3.734   6.535   1.482  0.0279  0.3412  0.8844
13063TIP3    H260605   3.709   6.422   1.579  0.5140 -0.6432 -0.1215
13064TIP3   OH260606   6.187   5.900   2.837  0.0539  0.1170 -0.5484
13064TIP3    H160607   6.191   5.873   2.745  1.2893  0.0879 -0.4949
13064TIP3    H260608   6.271   5.873   2.874 -0.3662  0.2782  0.5533
13065TIP3   OH260609   1.215   6.602  13.628  0.2917 -0.1926  0.0540
13065TIP3    H160610   1.226   6.693  13.658 -1.4450  0.1132 -0.0893
13065TIP3    H260611   1.246   6.602  13.538 -0.1722  0.4089 -0.1167
13066TIP3   OH260612   0.083   3.387   3.382  0.8174 -0.8272  0.7138
13066TIP3    H160613   0.135   3.433   3.316  1.1224 -1.1805  0.7013
13066TIP3    H260614   0.134   3.394   3.462  1.1626 -1.6502  0.5759
13067TIP3   OH260615   5.422   2.432   3.474 -0.0577 -0.8168 -0.3776
13067TIP3    H160616   5.433   2.518   3.516  0.3843 -0.5725 -0.9808
13067TIP3    H260617   5.367   2.450   3.397  0.1449 -1.0512 -0.5767
13068TIP3   OH260618   2.520   1.610  11.691 -0.6743 -0.0235 -0.6356
13068TIP3    H160619   2.468   1.626  11.612 -0.4974  0.0499 -0.7367
13068TIP3    H260620   2.459   1.625  11.763 -0.3338  1.8669 -0.6881
13069TIP3   OH260621   4.550   6.379   2.949  0.3986 -0.5415  0.1768
13069TIP3    H160622   4.581   6.291   2.970  1.8866 -0.2691 -0.6951
13069TIP3    H260623   4.608   6.437   2.998  0.1628 -0.0291 -0.1382
13070TIP3   OH260624   5.733   6.060   1.038 -0.3289 -0.2133  0.2866
13070TIP3    H160625   5.714   6.145   0.997  0.6245 -0.4028 -0.5740
13070TIP3    H260626   5.689   5.996   0.982 -0.3154 -0.3625  0.4456
13071TIP3   OH260627   4.736   3.914   4.942  0.1949  0.1852  0.4959
13071TIP3    H160628   4.684   3.991   4.967  1.5335  0.8489  1.3496
13071TIP3    H260629   4.788   3.944   4.868 -0.0464 -0.2298  0.1568
13072TIP3   OH260630   6.511   3.876   1.543 -0.2690  0.0706 -0.3709
13072TIP3    H160631   6.495   3.794   1.496 -0.5935  0.9203 -1.7812
13072TIP3    H260632   6.466   3.943   1.492  1.9011  1.4914 -0.5558
13073TIP3   OH260633   4.625   2.275  12.981  0.0020 -0.4445  0.0378
13073TIP3    H160634   4.540   2.254  12.942  0.4278 -2.8059  0.2426
13073TIP3    H260635   4.685   2.282  12.907 -0.2319  0.5605 -0.0633
13074TIP3   OH260636   3.464   6.281  11.862 -0.1209  0.1351 -0.2864
13074TIP3    H160637   3.507   6.289  11.777 -0.8912 -1.3254 -0.8421
13074TIP3    H260638   3.520   6.222  11.912  0.1417  0.7046  0.0990
13075TIP3   OH260639   3.905   2.291  13.502  0.6850 -0.4248  0.2764
13075TIP3    H160640   3.929   2.201  13.522  2.4122 -0.0202  0.1640
13075TIP3    H260641   3.937   2.305  13.413 -1.1296 -0.2051 -0.3849
13076TIP3   OH260642   1.336   4.103  16.229 -0.0902 -0.3900  0.8604
13076TIP3    H160643   1.260   4.082  16.283 -0.1430  0.7831  1.2775
13076TIP3    H260644   1.387   4.164  16.283  0.6648 -0.4260  0.2055
13077TIP3   OH260645   2.506   5.547   4.052  1.0386  0.0582 -0.2702
13077TIP3    H160646   2.507   5.640   4.029  1.7933  0.1886  0.2496
13077TIP3    H260647   2.510   5.546   4.147  2.2764 -0.5079 -0.3004
13078TIP3   OH260648   4.668   6.393  14.325 -0.3350  1.0252  0.4062
13078TIP3    H160649   4.686   6.409  14.232  2.6242 -0.6022  0.6011
13078TIP3    H260650   4.584   6.348  14.325  0.9951 -1.7365 -1.8642
13079TIP3   OH260651   3.687   6.395  13.258 -0.1923 -0.3777  0.2463
13079TIP3    H160652   3.683   6.370  13.350 -0.8257 -0.1916  0.2750
13079TIP3    H260653   3.755   6.339  13.221  0.0960 -0.4234  0.8364
13080TIP3   OH260654   0.080   3.129   5.190 -0.2462 -0.7785  0.3933
13080TIP3    H160655   0.074   3.102   5.282  0.8614  2.6755  1.6618
13080TIP3    H260656   0.162   3.179   5.185 -0.9134  0.2297 -2.1538
13081TIP3   OH260657   1.074   3.133   5.832  0.4253 -0.3622  0.3161
13081TIP3    H160658   1.162   3.128   5.794 -0.2716  0.0266 -1.4258
13081TIP3    H260659   1.081   3.200   5.901  1.7542 -1.2011  1.0497
13082TIP3   OH260660   2.232   0.451   5.741 -0.0818  0.0276  0.8077
13082TIP3    H160661   2.259   0.529   5.790  1.4659 -2.0184  3.4401
13082TIP3    H260662   2.312   0.420   5.698 -0.1343 -1.3277  1.6381
13083TIP3   OH260663   6.453   2.954   4.058  0.0867 -0.3022  0.0459
13083TIP3    H160664   6.481   3.037   4.020 -1.9418  0.1228 -0.6626
13083TIP3    H260665   6.524   2.893   4.037  1.8548  1.3103  1.0023
13084TIP3   OH260666   3.002   1.621  14.464 -0.3371  0.6509  0.0494
13084TIP3    H160667   3.033   1.607  14.375  1.7629  1.1478  0.6457
13084TIP3    H260668   2.943   1.548  14.481 -0.2000  0.1564 -1.4887
13085TIP3   OH260669   2.820   3.086  12.729 -0.4408  0.7457  0.1754
13085TIP3    H160670   2.762   3.010  12.729  0.9129 -0.3490 -0.9153
13085TIP3    H260671   2.895   3.058  12.782 -1.2857  2.5249  2.5158
13086TIP3   OH260672   1.251   3.171  15.358 -0.6236 -0.0065  0.3864
13086TIP3    H160673   1.277   3.251  15.311 -1.4539  1.5074  2.3819
13086TIP3    H260674   1.260   3.102  15.293  1.4192  1.4803 -1.0620
13087TIP3   OH260675   0.523   1.088   2.077 -0.2490  0.0161  0.1174
13087TIP3    H160676   0.482   1.170   2.050  0.0725 -0.1593 -0.9491
13087TIP3    H260677   0.482   1.067   2.161 -1.5101  0.4285 -0.3702
13088TIP3   OH260678   6.106   0.864   4.091  0.6710  0.4853 -0.1243
13088TIP3    H160679   6.174   0.820   4.141 -0.2000 -0.1984  0.5053
13088TIP3    H260680   6.030   0.866   4.150 -0.3852 -0.3215 -1.3937
13089TIP3   OH260681   1.437   4.093   0.996 -0.0166 -0.2753  0.0210
13089TIP3    H160682   1.385   4.172   1.010  3.0288  1.7799  0.5269
13089TIP3    H260683   1.444   4.086   0.901 -1.2182 -0.6502 -0.0624
13090TIP3   OH260684   2.778   0.332  11.067 -0.2139  0.0672 -0.1290
13090TIP3    H160685   2.722   0.333  11.145 -0.7683  4.0279 -0.3649
13090TIP3    H260686   2.867   0.341  11.101 -0.3433  0.4803  0.1078
13091TIP3   OH260687   6.011   4.883   3.424  0.6698 -1.0143  0.4949
13091TIP3    H160688   6.064   4.956   3.456  0.0481 -1.7420  3.4209
13091TIP3    H260689   5.928   4.891   3.470 -1.2939 -0.8513 -2.7710
13092TIP3   OH260690   5.404   1.429  14.398  0.0156  0.5850  0.3226
13092TIP3    H160691   5.389   1.519  14.371 -1.8880  0.7697  1.8237
13092TIP3    H260692   5.328   1.381  14.366 -0.2866  0.0444  1.8022
13093TIP3   OH260693   4.373   1.984   3.275  0.2789  0.4032  0.1279
13093TIP3    H160694   4.454   2.009   3.232  0.4433  3.7536  1.9775
13093TIP3    H260695   4.399   1.965   3.365 -0.7465 -0.6023  0.2320
13094TIP3   OH260696   0.259   6.457  13.014  0.1428 -0.1075  0.4846
13094TIP3    H160697   0.191   6.403  12.974  0.6188  0.2189 -0.8224
13094TIP3    H260698   0.214   6.505  13.083 -0.7545 -0.5422  0.2219
13095TIP3   OH260699   2.010   6.314   0.324  0.0273  0.0819  0.1387
13095TIP3    H160700   2.073   6.385   0.317  1.6839 -1.1334  1.7550
13095TIP3    H260701   2.003   6.279   0.235  0.8696  0.8662 -0.2565
13096TIP3   OH260702   6.537   4.502   1.531 -0.4380  0.2481 -0.3496
13096TIP3    H160703   6.615   4.557   1.524 -0.7952  0.8651  0.4721
13096TIP3    H260704   6.473   4.544   1.473 -0.2073 -0.2163 -0.9646
13097TIP3   OH260705   5.737   6.612  10.462  0.7321  0.0825  0.4340
13097TIP3    H160706   5.819   6.654  10.488  0.3157 -0.0156  2.0122
13097TIP3    H260707   5.757   6.568  10.380  1.4313  2.5822 -0.8556
13098TIP3   OH260708   1.767   6.387   2.893  0.1101  0.3706  0.1211
13098TIP3    H160709   1.791   6.467   2.941 -0.8147  1.1048 -0.5971
13098TIP3    H260710   1.687   6.357   2.935 -1.3622  1.6577 -1.5779
13099TIP3   OH260711   1.870   4.772  14.379  0.1185 -0.2022  0.5899
13099TIP3    H160712   1.877   4.782  14.284 -0.7025  0.1056  0.5539
13099TIP3    H260713   1.778   4.752  14.394  0.4491 -1.3168  1.2427
13100TIP3   OH260714   0.755   6.069   2.277  0.0232 -0.1338  0.0747
13100TIP3    H160715   0.789   6.157   2.294 -1.3495  0.8009 -1.6202
13100TIP3    H260716   0.699   6.080   2.200 -0.1533 -2.5231 -0.2080
13101TIP3   OH260717   6.001   3.784   2.958  0.9091  0.3612 -0.5761
13101TIP3    H160718   5.972   3.700   2.992 -0.3661  0.8704 -0.3399
13101TIP3    H260719   6.066   3.763   2.891  0.7654 -0.7851 -0.3625
13102TIP3   OH260720   3.678   4.648  10.823  0.7397  0.3254  0.0096
13102TIP3    H160721   3.728   4.588  10.878 -0.2938  1.6220  2.5780
13102TIP3    H260722   3.593   4.605  10.811 -0.1696  1.3004  2.2412
13103TIP3   OH260723   4.748   4.514  14.735 -0.1605  0.2358  0.3570
13103TIP3    H160724   4.819   4.450  14.729  0.4194  1.0085 -2.1262
13103TIP3    H260725   4.687   4.476  14.799  1.7310 -1.1792  1.4020
13104TIP3   OH260726   4.537   5.753  11.297  0.0243 -0.2885 -0.1308
13104TIP3    H160727   4.455   5.794  11.324  0.6806  0.2354  1.1812
13104TIP3    H260728   4.601   5.786  11.360  1.4133 -0.0121 -1.6349
13105TIP3   OH260729   6.625   4.883  11.679  0.0898 -0.1101  0.7227
13105TIP3    H160730   6.714   4.917  11.676 -0.6501  2.0043  0.3095
13105TIP3    H260731   6.599   4.894  11.771 -0.1127  0.3587  0.6119
13106TIP3   OH260732   2.845   0.958   4.046  0.5219  0.0159  1.0662
13106TIP3    H160733   2.772   1.015   4.024  0.5225  0.0155  1.0632
13106TIP3    H260734   2.922   1.001   4.007  0.1957 -1.3222 -1.2327
13107TIP3   OH260735   1.784   4.214   0.476 -0.4690  0.6312 -0.1749
13107TIP3    H160736   1.812   4.247   0.561 -0.1264 -0.1027 -0.0008
13107TIP3    H260737   1.862   4.216   0.422 -0.2705 -0.5900  0.0557
13108TIP3   OH260738   1.079   2.605  11.975  0.6696 -0.1792 -0.7828
13108TIP3    H160739   1.093   2.543  12.046 -1.4411  1.1949  0.9923
13108TIP3    H260740   1.053   2.552  11.900 -1.5272 -1.4740  0.8021
13109TIP3   OH260741   2.526   3.300   1.644  0.6221  0.1031 -0.2633
13109TIP3    H160742   2.492   3.380   1.686 -0.9534  0.0972 -1.4368
13109TIP3    H260743   2.519   3.318   1.551 -2.3480 -2.3361 -0.6875
13110TIP3   OH260744   5.686   6.703  14.807  0.4126  0.2920  0.0721
13110TIP3    H160745   5.721   6.763  14.874  0.7515  1.2608 -0.9414
13110TIP3    H260746   5.593   6.726  14.802  0.4908  0.5756 -0.1360
13111TIP3   OH260747   0.646   4.062  11.992  1.2711  0.1003 -1.0816
13111TIP3    H160748   0.636   4.100  12.080  0.7093 -0.2081 -1.0068
13111TIP3    H260749   0.706   4.121  11.947 -0.4063  1.7178 -1.3231
13112TIP3   OH260750   0.542   5.053  11.645 -0.0174 -0.0818 -0.0154
13112TIP3    H160751   0.462   5.013  11.678 -2.1792  1.6613 -2.6894
13112TIP3    H260752   0.554   5.131  11.699  0.0919 -0.5431  0.6280
13113TIP3   OH260753   4.283   2.810   0.547  0.3009 -0.1364  0.4039
13113TIP3    H160754   4.278   2.794   0.453 -1.0806  1.0344  0.2465
13113TIP3    H260755   4.197   2.844   0.571  0.7402 -0.0532  2.0303
13114TIP3   OH260756   6.080   0.411   1.958  0.1962  0.5086 -0.4708
13114TIP3    H160757   6.098   0.420   2.052 -2.1525  1.4468 -0.0503
13114TIP3    H260758   6.084   0.501   1.925  0.3052  0.2607 -1.1412
13115TIP3   OH260759   1.659   6.296   4.914  0.1658  0.2279 -0.2317
13115TIP3    H160760   1.686   6.204   4.908  1.0616  0.5470 -1.7107
13115TIP3    H260761   1.668   6.329   4.825 -1.7501  1.3329 -0.0586
13116TIP3   OH260762   0.048   2.222   2.077 -0.2057  0.2220 -0.6962
13116TIP3    H160763   0.059   2.236   1.983 -0.7207 -1.6651 -1.0773
13116TIP3    H260764   0.037   2.310   2.113  2.8807  1.3050 -1.9703
13117TIP3   OH260765   0.386   5.702  11.134  0.1018 -0.2981 -0.8649
13117TIP3    H160766   0.340   5.762  11.193 -0.2574 -1.6822  0.3205
13117TIP3    H260767   0.465   5.750  11.108  0.0679  0.5142  0.4320
13118TIP3   OH260768   3.637   2.617   4.735 -0.1691  0.0435 -0.2408
13118TIP3    H160769   3.731   2.636   4.736 -0.2095  0.3413 -1.0603
13118TIP3    H260770   3.632   2.522   4.721  0.0068  0.0193 -0.1480
13119TIP3   OH260771   1.353   1.145   6.309 -0.2867 -0.2763  0.2321
13119TIP3    H160772   1.367   1.239   6.322  1.3828 -0.3694 -0.6355
13119TIP3    H260773   1.441   1.109   6.297 -0.8887 -1.9871  0.6785
13120TIP3   OH260774   4.624   5.033  12.475 -0.1713 -0.1393  0.4660
13120TIP3    H160775   4.562   4.960  12.484  1.1120 -1.8357 -2.7917
13120TIP3    H260776   4.575   5.100  12.427 -0.5150 -0.0197  0.9791
13121TIP3   OH260777   4.645   4.201  14.929 -0.1399  0.4370 -0.4979
13121TIP3    H160778   4.580   4.261  14.894 -2.1134 -1.2103  0.1258
13121TIP3    H260779   4.620   4.190  15.021 -0.1570 -1.6324 -0.7020
13122TIP3   OH260780   4.419   2.440   0.515 -0.5041 -0.1923 -0.4594
13122TIP3    H160781   4.461   2.479   0.592  0.0491 -1.2323 -0.2207
13122TIP3    H260782   4.326   2.455   0.528 -0.4798 -1.0064  0.7941
13123TIP3   OH260783   0.908   5.772   6.339  0.4442 -0.3532  0.2518
13123TIP3    H160784   0.855   5.796   6.415  1.6490  2.6918  0.2765
13123TIP3    H260785   0.850   5.785   6.264 -0.4286 -2.3597  0.5288
13124TIP3   OH260786   5.858   5.853   6.656 -0.0423  0.2367  0.0318
13124TIP3    H160787   5.821   5.788   6.597  1.5268  0.2195 -0.9891
13124TIP3    H260788   5.872   5.806   6.739  0.2070 -0.4736 -0.4102
13125TIP3   OH260789   3.082   4.517  11.280  0.1837 -0.9031  0.3238
13125TIP3    H160790   3.154   4.505  11.342  0.3910  0.8451  0.4620
13125TIP3    H260791   3.015   4.456  11.309  0.6637 -0.8231  1.6685
13126TIP3   OH260792   4.548   2.976   5.146 -0.0030 -0.4201  0.1132
13126TIP3    H160793   4.623   3.013   5.191 -0.3962  1.6861 -0.8557
13126TIP3    H260794   4.573   2.885   5.128  0.7693 -0.8946  3.0675
13127TIP3   OH260795   1.095   0.352  13.406  0.0638  0.0817 -0.3064
13127TIP3    H160796   1.041   0.312  13.474 -0.4845 -1.5136 -1.6191
13127TIP3    H260797   1.162   0.401  13.454 -0.9113 -0.1588  1.3574
13128TIP3   OH260798   3.384   3.521  14.913  0.2728  0.1530  0.4617
13128TIP3    H160799   3.342   3.438  14.892  0.7134 -0.2044  0.9769
13128TIP3    H260800   3.384   3.524  15.009  0.6498  0.5498  0.4504
13129TIP3   OH260801   5.838   1.326   3.770  0.1711  0.3272  0.3554
13129TIP3    H160802   5.930   1.319   3.797 -0.0754  1.3137  1.5331
13129TIP3    H260803   5.802   1.239   3.787  1.2216 -0.5426 -1.5685
13130TIP3   OH260804   4.918   5.413  14.361 -0.4607 -0.0764  0.1248
13130TIP3    H160805   4.911   5.488  14.302  0.3345 -0.8139 -0.9461
13130TIP3    H260806   4.875   5.342  14.314  0.7691 -0.8414  0.1179
13131TIP3   OH260807   2.634   3.044  16.803 -0.4223 -0.0629 -0.4918
13131TIP3    H160808   2.597   2.957  16.786 -0.7251  0.2160 -1.2956
13131TIP3    H260809   2.682   3.066  16.723 -2.6244  1.6720 -1.4403
13132TIP3   OH260810   2.637   0.662  11.310 -0.1015  0.0659  0.6008
13132TIP3    H160811   2.646   0.709  11.393  2.6772  1.4796 -0.3542
13132TIP3    H260812   2.692   0.584  11.320 -0.7611 -0.4200  0.4975
13133TIP3   OH260813   2.270   4.944  15.184 -0.6760  0.0436  0.2881
13133TIP3    H160814   2.194   4.886  15.175 -1.1097  0.7418 -0.7115
13133TIP3    H260815   2.321   4.906  15.256 -1.9194 -0.4939  0.9157
13134TIP3   OH260816   6.249   5.253  14.477  0.0841 -0.2031  0.0990
13134TIP3    H160817   6.314   5.186  14.498 -1.8929 -2.0656  0.6075
13134TIP3    H260818   6.216   5.228  14.390 -0.9376 -0.1439  0.4562
13135TIP3   OH260819   3.479   3.149  15.351  0.0875 -0.5192  0.0934
13135TIP3    H160820   3.519   3.092  15.417  0.3538 -0.3557  0.0737
13135TIP3    H260821   3.482   3.236  15.391  1.4032 -0.2032 -0.6389
13136TIP3   OH260822   5.431   6.025  12.848  0.6141 -0.4292  0.2464
13136TIP3    H160823   5.438   6.117  12.821  0.6982 -0.6435 -0.4901
13136TIP3    H260824   5.382   5.983  12.777  1.4799 -1.1714  0.0623
13137TIP3   OH260825   3.663   4.089   0.637 -0.3964  0.5973  0.3216
13137TIP3    H160826   3.590   4.083   0.575  0.5119 -2.2424 -0.6057
13137TIP3    H260827   3.738   4.056   0.588  1.0883  1.4784  1.9210
13138TIP3   OH260828   1.639   5.478   2.045 -0.1134 -0.3135 -0.1279
13138TIP3    H160829   1.704   5.510   2.108 -1.9724  0.6030  1.4409
13138TIP3    H260830   1.679   5.494   1.960  2.6283 -1.8278  0.7268
13139TIP3   OH260831   1.824   5.516  13.800  0.5421 -0.3369 -0.2583
13139TIP3    H160832   1.840   5.422  13.787  1.6570  0.1127 -2.7011
13139TIP3    H260833   1.907   5.558  13.777  0.3582  1.2359  1.6921
13140TIP3   OH260834   0.611   2.082   3.835 -0.0894 -0.4349 -0.0365
13140TIP3    H160835   0.546   2.055   3.769  0.2080  2.1856 -1.5297
13140TIP3    H260836   0.564   2.078   3.918 -1.4652 -0.7886 -0.8036
13141TIP3   OH260837   4.529   2.089   2.433  0.3198  0.5462  0.0332
13141TIP3    H160838   4.526   1.993   2.430 -0.3515  0.5724 -0.2574
13141TIP3    H260839   4.621   2.110   2.417  0.3010 -0.0120 -0.8826
13142TIP3   OH260840   3.173   2.991  14.901  0.0020  0.0273  0.5047
13142TIP3    H160841   3.174   3.032  14.987  1.3763  2.0272 -0.3778
13142TIP3    H260842   3.222   3.051  14.845  1.0178 -2.2246 -1.2200
13143TIP3   OH260843   0.436   3.622  11.572 -0.3213 -0.2859 -0.0129
13143TIP3    H160844   0.411   3.648  11.661  0.7838 -1.0746  0.5372
13143TIP3    H260845   0.523   3.584  11.581 -0.4429 -0.9267 -1.3507
13144TIP3   OH260846   6.238   4.668  13.493  0.3646 -0.5094  0.1786
13144TIP3    H160847   6.176   4.654  13.422  0.4497  1.8321 -0.4514
13144TIP3    H260848   6.303   4.728  13.456 -0.4340  2.0920  2.6284
13145TIP3   OH260849   2.648   1.302   5.278 -0.3658  0.1433  0.6894
13145TIP3    H160850   2.595   1.277   5.354  0.7622  0.0873  1.4869
13145TIP3    H260851   2.734   1.264   5.295 -0.2847 -0.5250 -1.0005
13146TIP3   OH260852   3.054   1.527  14.207  0.1371 -0.0757 -0.2652
13146TIP3    H160853   3.028   1.501  14.118 -1.8965  1.1980 -0.0959
13146TIP3    H260854   3.150   1.523  14.205  0.1143 -1.4291 -2.0701
13147TIP3   OH260855   2.770   4.109  16.402  0.5039  0.5771  0.2888
13147TIP3    H160856   2.730   4.129  16.317  0.0625  2.0234  0.8059
13147TIP3    H260857   2.706   4.055  16.447  0.6700 -0.0626 -0.2340
13148TIP3   OH260858   4.609   1.324  14.801  0.3968  0.1767 -0.1751
13148TIP3    H160859   4.555   1.248  14.781  1.7194 -1.2396  1.3494
13148TIP3    H260860   4.624   1.319  14.896 -0.1496  2.8172  0.1384
13149TIP3   OH260861   6.516   2.012   0.593  0.4481  0.3836 -0.1619
13149TIP3    H160862   6.470   1.966   0.662 -0.0673 -0.6551 -1.1622
13149TIP3    H260863   6.592   1.956   0.573 -0.0227  0.0802 -1.1869
13150TIP3   OH260864   4.754   2.688   3.305  0.0350  0.4260  0.2640
13150TIP3    H160865   4.666   2.652   3.293  0.9032 -1.4056 -1.1220
13150TIP3    H260866   4.806   2.613   3.334  1.3833  1.1746 -0.1658
13151TIP3   OH260867   2.446   4.508   3.802  0.4560 -0.5807  0.5540
13151TIP3    H160868   2.434   4.475   3.714  1.3409 -0.1570  0.2630
13151TIP3    H260869   2.443   4.604   3.793 -1.2597 -0.5366  1.2551
13152TIP3   OH260870   5.978   0.127   1.685 -0.3417  0.1332 -0.4941
13152TIP3    H160871   5.930   0.149   1.605  1.1589 -1.2584 -1.8471
13152TIP3    H260872   5.953   0.036   1.703 -1.7190  0.8187  1.4809
13153TIP3   OH260873   6.173   4.190  16.123  0.0775  0.2847  0.1129
13153TIP3    H160874   6.134   4.142  16.196  1.7604  0.1289  0.9591
13153TIP3    H260875   6.173   4.281  16.152  0.1352  0.3138  0.0217
13154TIP3   OH260876   2.686   1.937   0.701 -0.0686  0.1940  0.4332
13154TIP3    H160877   2.699   1.996   0.626  0.4935  0.4685  0.7340
13154TIP3    H260878   2.617   1.877   0.674  0.7905 -0.3240 -0.6747
13155TIP3   OH260879   5.699   6.709   2.567 -0.4912  0.0160 -0.0601
13155TIP3    H160880   5.780   6.756   2.548 -0.8002  0.1056 -1.2407
13155TIP3    H260881   5.646   6.772   2.617  0.3337 -0.2116  1.1445
13156TIP3   OH260882   5.979   3.439   6.477 -0.2672 -0.2690  0.0382
13156TIP3    H160883   6.043   3.381   6.437 -0.2164  1.3586 -2.4588
13156TIP3    H260884   5.942   3.388   6.549  1.1461 -2.6203 -0.7890
13157TIP3   OH260885   1.243   0.300  13.771 -0.0806  0.1431  0.1472
13157TIP3    H160886   1.323   0.321  13.724  0.1429  0.5986  0.7174
13157TIP3    H260887   1.216   0.383  13.811 -0.5076 -0.1379  0.4533
13158TIP3   OH260888   5.920   5.600   1.353 -0.0959 -0.0919  0.0920
13158TIP3    H160889   5.927   5.691   1.326  1.4409 -0.2886 -0.2206
13158TIP3    H260890   5.885   5.554   1.277  1.3792 -0.1436 -0.5763
13159TIP3   OH260891   3.475   5.428  12.621 -0.1260  0.3030  0.0474
13159TIP3    H160892   3.503   5.349  12.574  0.1593  0.5234 -0.1482
13159TIP3    H260893   3.494   5.409  12.712  1.4755  0.7858 -0.1566
13160TIP3   OH260894   3.510   2.789   2.860  0.1455 -0.2219  0.0852
13160TIP3    H160895   3.577   2.730   2.896  0.1818 -0.6864 -0.7338
13160TIP3    H260896   3.434   2.733   2.846  0.4673 -0.2923 -1.5467
13161TIP3   OH260897   6.737   4.423  14.160 -0.2328 -0.4600 -0.0102
13161TIP3    H160898   6.676   4.399  14.229  0.9851 -1.4552  0.7833
13161TIP3    H260899   6.722   4.359  14.091 -1.0942  0.2180 -0.4679
13162TIP3   OH260900   6.197   3.996  13.169  0.1199 -0.4194  0.2804
13162TIP3    H160901   6.257   3.927  13.198 -0.1215 -0.5054  0.5689
13162TIP3    H260902   6.110   3.965  13.193  0.1586  1.0196  2.5610
13163TIP3   OH260903   2.027   5.186   0.501 -0.1650  0.3054  0.7727
13163TIP3    H160904   2.066   5.170   0.415 -1.3528  2.3213 -0.2130
13163TIP3    H260905   2.045   5.106   0.550  0.3477 -1.0223 -1.4093
13164TIP3   OH260906   1.085   1.037  15.396 -0.2092  0.0233 -0.4006
13164TIP3    H160907   1.133   1.071  15.321  0.5768  1.2287  0.6071
13164TIP3    H260908   1.132   0.958  15.421  0.0372  0.0889 -0.6507
13165TIP3   OH260909   4.473   6.045  11.522  0.8746 -0.1754 -0.3623
13165TIP3    H160910   4.561   6.010  11.539  0.8973 -1.0209 -2.0175
13165TIP3    H260911   4.416   5.997  11.581  1.4844  0.2645  0.6140
13166TIP3   OH260912   2.001   0.468  11.263  0.2986 -0.2377 -0.5480
13166TIP3    H160913   1.958   0.547  11.296  0.2007  0.0215 -1.2963
13166TIP3    H260914   1.936   0.424  11.210  0.5560 -0.4987 -0.6531
13167TIP3   OH260915   4.407   5.240  15.314  0.2888 -0.2943  0.1610
13167TIP3    H160916   4.404   5.190  15.232 -0.7010 -2.0049  1.1815
13167TIP3    H260917   4.345   5.312  15.301 -0.4224 -0.9772 -0.3362
13168TIP3   OH260918   1.094   0.450   0.335  0.1874 -0.0284 -0.5374
13168TIP3    H160919   1.023   0.403   0.292  0.0682  0.2140 -0.6054
13168TIP3    H260920   1.173   0.420   0.290  0.0983 -0.0563 -0.6764
13169TIP3   OH260921   6.465   6.797   2.159  0.2623  0.1162 -0.2390
13169TIP3    H160922   6.481   6.720   2.103  0.9950  0.2425 -0.2109
13169TIP3    H260923   6.514   6.779   2.239 -0.0817  0.3282  0.0176
13170TIP3   OH260924   0.361   0.555  11.610 -0.1613  0.0548  0.3295
13170TIP3    H160925   0.329   0.597  11.530  0.2155  0.6089  0.4625
13170TIP3    H260926   0.294   0.575  11.676 -1.1784 -1.5874 -0.1596
13171TIP3   OH260927   2.586   3.057   0.034  0.2580 -0.5141 -0.0695
13171TIP3    H160928   2.559   2.966   0.051 -0.5272 -0.5277 -1.3206
13171TIP3    H260929   2.588   3.097   0.121 -2.4239 -0.9037  0.2474
13172TIP3   OH260930   0.511   3.118   2.809 -0.0480  0.0846  0.0283
13172TIP3    H160931   0.420   3.090   2.822 -0.1255  0.8692  1.4770
13172TIP3    H260932   0.557   3.084   2.886  0.6421  0.6685 -0.1184
13173TIP3   OH260933   0.501   2.346   1.733 -0.1676 -0.2964  0.5414
13173TIP3    H160934   0.575   2.404   1.716 -1.1863  1.2259  1.1156
13173TIP3    H260935   0.508   2.278   1.666  0.4308  1.0962 -0.8781
13174TIP3   OH260936   0.263   5.367   5.638  0.4191  0.0880 -0.5732
13174TIP3    H160937   0.266   5.426   5.562  1.6358  1.4324  0.4645
13174TIP3    H260938   0.201   5.410   5.698  0.8113 -0.0266 -0.0836
13175TIP3   OH260939   2.788   4.965   2.746  0.3392 -0.4491  0.0789
13175TIP3    H160940   2.714   4.906   2.758  0.4232 -0.4329  0.7583
13175TIP3    H260941   2.811   4.958   2.654 -1.7905  1.0586 -0.6592
13176TIP3   OH260942   2.068   0.919  13.189  0.4447 -0.4284 -0.0599
13176TIP3    H160943   2.160   0.928  13.214  1.1201 -0.9105 -2.2138
13176TIP3    H260944   2.057   0.826  13.170  0.9020  0.1934 -4.4225
13177TIP3   OH260945   3.479   0.558   6.090  0.1810 -0.2842 -0.1683
13177TIP3    H160946   3.505   0.466   6.095 -1.6836 -0.8124  1.1879
13177TIP3    H260947   3.414   0.568   6.160 -1.5547  1.4050 -1.8791
13178TIP3   OH260948   0.529   1.895  10.696 -0.5091 -0.2272  0.3247
13178TIP3    H160949   0.574   1.827  10.647  1.1434  2.0739 -1.6309
13178TIP3    H260950   0.550   1.976  10.649 -4.7330  1.3617  0.7084
13179TIP3   OH260951   0.741   2.059  16.933  0.0100  0.2539  0.2913
13179TIP3    H160952   0.802   2.021  16.996 -0.6354  1.9618  2.0737
13179TIP3    H260953   0.794   2.079  16.856  0.9266 -1.4936  0.4212
13180TIP3   OH260954   0.033   4.262  14.418 -0.6602 -0.2417  0.8357
13180TIP3    H160955   0.031   4.334  14.481 -0.7047 -0.6306  1.2765
13180TIP3    H260956  -0.054   4.224  14.421 -3.1560  3.7910 -4.2230
13181TIP3   OH260957   3.463   4.993   0.064  0.8574 -0.0649 -0.3045
13181TIP3    H160958   3.410   5.035   0.132  1.0349  0.6018 -0.5726
13181TIP3    H260959   3.526   4.940   0.113  1.2064  0.6733  0.0700
13182TIP3   OH260960   0.445   2.463  13.637  0.2190 -0.0026 -0.2110
13182TIP3    H160961   0.369   2.489  13.689  0.4001 -0.2579  0.1865
13182TIP3    H260962   0.487   2.394  13.689  0.0667 -0.6947 -0.9727
13183TIP3   OH260963   3.056   0.032   3.436 -0.1411 -0.5265 -0.9627
13183TIP3    H160964   3.122   0.026   3.367 -1.0850 -2.4179 -1.7717
13183TIP3    H260965   2.996   0.099   3.407  0.4047 -0.1000 -1.1203
13184TIP3   OH260966   2.585   1.397  13.966 -0.4164  0.3149  0.0296
13184TIP3    H160967   2.648   1.349  13.913  1.2619  0.6435  1.6267
13184TIP3    H260968   2.565   1.476  13.916  1.0786  0.5940 -0.1646
13185TIP3   OH260969   0.195   4.436   4.345  0.0934 -0.5738  0.3775
13185TIP3    H160970   0.266   4.453   4.283 -1.2206 -2.0518 -1.7001
13185TIP3    H260971   0.201   4.343   4.363 -1.3121 -0.7361  0.1065
13186TIP3   OH260972   2.940   3.686   2.766  0.2370 -0.2337  0.4083
13186TIP3    H160973   3.021   3.724   2.799  1.2897 -2.4790  0.6430
13186TIP3    H260974   2.914   3.623   2.833 -0.1942 -1.4761 -0.8781
13187TIP3   OH260975   3.890   2.274   0.554  0.0540 -0.0573 -0.1024
13187TIP3    H160976   3.951   2.342   0.583  1.4261 -0.3295 -2.1835
13187TIP3    H260977   3.946   2.199   0.531 -1.1004 -0.5537 -1.4308
13188TIP3   OH260978   2.537   0.449   4.179 -0.6368  0.5082  0.1398
13188TIP3    H160979   2.606   0.382   4.169 -1.3466 -0.1886 -0.2262
13188TIP3    H260980   2.486   0.442   4.098 -0.7785  1.4440  0.1405
13189TIP3   OH260981   1.077   3.737  11.823 -0.0430  0.4789 -0.2337
13189TIP3    H160982   1.167   3.724  11.851  0.6073  0.2159 -2.2528
13189TIP3    H260983   1.047   3.814  11.871  0.0235 -1.3750  3.0944
13190TIP3   OH260984   1.975   2.212  16.889 -0.1650 -0.3557 -0.0571
13190TIP3    H160985   1.946   2.265  16.963 -0.0576 -1.9647  1.1820
13190TIP3    H260986   1.981   2.274  16.816  1.8917  1.7831  1.7525
13191TIP3   OH260987   0.531   5.947  14.199 -0.7500 -0.6753 -0.3888
13191TIP3    H160988   0.465   5.878  14.196 -0.1798 -1.2005 -1.1541
13191TIP3    H260989   0.488   6.023  14.161 -1.3355 -0.6276  0.3304
13192TIP3   OH260990   2.968   0.788   0.190  0.1022 -0.1342  0.4737
13192TIP3    H160991   3.012   0.704   0.208 -1.8921 -1.3537 -0.0324
13192TIP3    H260992   2.975   0.799   0.096 -3.1177 -1.8939 -0.0948
13193TIP3   OH260993   6.800   3.479  14.074  0.0708  1.2083  0.2455
13193TIP3    H160994   6.808   3.432  13.991 -0.8525  3.3723 -1.1390
13193TIP3    H260995   6.705   3.490  14.086  0.2389  1.8284  1.0681
13194TIP3   OH260996   2.349   2.854   3.325  0.6394 -0.3849  0.1698
13194TIP3    H160997   2.318   2.771   3.289 -1.5071  0.6469 -0.4897
13194TIP3    H260998   2.360   2.837   3.419 -1.2826 -1.0213  0.3187
13195TIP3   OH260999   0.331   5.090  11.995  0.2921  0.5167 -0.2565
13195TIP3    H161000   0.419   5.123  12.012  0.3343  0.2692  0.0146
13195TIP3    H261001   0.316   5.026  12.065  0.6568 -0.9013 -1.4285
13196TIP3   OH261002   0.301   5.137   3.225  0.0518 -0.5134  0.0335
13196TIP3    H161003   0.374   5.149   3.165  1.4109  2.0533  1.9810
13196TIP3    H261004   0.339   5.148   3.312 -2.0137 -3.0100  1.3801
13197TIP3   OH261005   2.513   0.130  12.295  0.4185  0.3436 -0.1956
13197TIP3    H161006   2.506   0.225  12.311 -0.9781 -0.0286  1.7221
13197TIP3    H261007   2.573   0.098  12.361 -2.4438 -0.6584  2.1510
13198TIP3   OH261008   3.161   1.805  14.572  0.0968 -0.4019 -0.3061
13198TIP3    H161009   3.122   1.727  14.534  0.9262 -0.4965 -0.9853
13198TIP3    H261010   3.123   1.810  14.660 -0.3906 -1.2441 -0.4584
13199TIP3   OH261011   6.160   4.769  12.168 -0.1128  0.0418  0.0900
13199TIP3    H161012   6.115   4.817  12.237  1.2716  2.2334 -0.4473
13199TIP3    H261013   6.149   4.823  12.090 -0.5262 -1.7378 -1.1367
13200TIP3   OH261014   3.521   3.261  12.377  0.4324  0.1347 -0.4159
13200TIP3    H161015   3.499   3.229  12.289  0.6749 -0.5463 -0.2344
13200TIP3    H261016   3.436   3.271  12.420  0.3313  0.1236 -0.6103
13201TIP3   OH261017   3.332   6.121  14.778  0.0482  0.0012 -0.4368
13201TIP3    H161018   3.376   6.189  14.829  0.2649 -0.9935  0.7485
13201TIP3    H261019   3.291   6.168  14.706  2.3379  1.0849 -1.1348
13202TIP3   OH261020   2.731   3.189  16.339  0.2063  0.6223  0.4479
13202TIP3    H161021   2.650   3.179  16.390  1.2672  0.3572  2.1451
13202TIP3    H261022   2.732   3.281  16.313  0.1116  1.0146  1.7674
13203TIP3   OH261023   5.026   0.921  10.686  0.0772  0.0675  0.2447
13203TIP3    H161024   5.112   0.957  10.709 -0.4418  1.1355  0.5571
13203TIP3    H261025   4.999   0.873  10.765  0.6892 -0.9104 -0.1120
13204TIP3   OH261026   0.465   4.563   0.335  1.1738  0.1999  0.5163
13204TIP3    H161027   0.388   4.611   0.365  0.9559  0.4068 -0.3742
13204TIP3    H261028   0.469   4.487   0.395  0.3458  0.2402  0.6428
13205TIP3   OH261029   1.783   1.719  15.447 -0.2710  0.6468  0.4590
13205TIP3    H161030   1.804   1.769  15.369  0.6489  0.9246  0.8647
13205TIP3    H261031   1.851   1.652  15.452 -0.5752  0.3549  0.7765
13206TIP3   OH261032   0.602   0.458  13.608  0.4917  0.0469 -0.6517
13206TIP3    H161033   0.617   0.487  13.698 -0.4794 -0.5194 -0.2865
13206TIP3    H261034   0.601   0.362  13.614 -1.0393  0.0216 -0.9963
13207TIP3   OH261035   3.431   4.038  13.332 -0.1544 -0.5545 -0.4152
13207TIP3    H161036   3.395   4.084  13.256 -0.6631  2.8244  1.6386
13207TIP3    H261037   3.358   3.987  13.367  0.1925 -2.4657 -2.2895
13208TIP3   OH261038   5.855   3.767  15.194  0.3436 -0.6131  0.9430
13208TIP3    H161039   5.783   3.704  15.198 -0.0933 -0.3374 -1.2437
13208TIP3    H261040   5.923   3.731  15.251 -1.4158 -0.9683  2.9477
13209TIP3   OH261041   5.724   5.490  15.674  0.1993 -0.6533  0.8130
13209TIP3    H161042   5.716   5.526  15.585 -1.0090  0.6468  1.4125
13209TIP3    H261043   5.815   5.509  15.699  0.0872  0.4438  0.4477
13210TIP3   OH261044   1.987   1.658   2.956 -0.2580 -0.2626  0.2539
13210TIP3    H161045   1.960   1.591   3.019 -0.3951 -0.1604  0.3041
13210TIP3    H261046   1.933   1.642   2.879  0.0930 -0.5507  0.0658
13211TIP3   OH261047   1.464   6.805  11.931  0.4707  0.1594  0.2151
13211TIP3    H161048   1.476   6.879  11.872 -1.4228  1.0616  0.8739
13211TIP3    H261049   1.391   6.756  11.893  1.5529 -1.2913 -0.0911
13212TIP3   OH261050   5.102   0.976  15.413  0.3686 -0.5588  0.2787
13212TIP3    H161051   5.183   1.020  15.438 -0.8964  1.6198  0.8702
13212TIP3    H261052   5.041   0.996  15.485 -1.0597 -1.0305 -0.7575
13213TIP3   OH261053   3.262   0.727  14.299 -0.2671  0.4826  0.0701
13213TIP3    H161054   3.335   0.667  14.315 -0.3193  0.3303 -0.2577
13213TIP3    H261055   3.201   0.677  14.245  0.9609  1.7207 -2.6322
13214TIP3   OH261056   4.728   5.064   1.537  0.4697  0.3771  0.3036
13214TIP3    H161057   4.642   5.029   1.559  1.3733 -1.2024  1.6422
13214TIP3    H261058   4.733   5.148   1.583  0.0090 -0.0014  1.0598
13215TIP3   OH261059   0.031   2.973   4.644 -0.5873 -0.0999  0.1110
13215TIP3    H161060   0.060   3.010   4.727  1.5675  0.6364 -0.8846
13215TIP3    H261061  -0.035   3.034   4.613 -2.1332 -0.9009  1.6844
13216TIP3   OH261062   5.161   1.163  13.161  0.5552 -0.4751  0.4878
13216TIP3    H161063   5.132   1.242  13.116  1.0859 -0.0311  0.8947
13216TIP3    H261064   5.247   1.186  13.195 -0.0233 -0.6107  2.1383
13217TIP3   OH261065   6.391   6.249   4.631 -0.0709  0.5532 -0.3622
13217TIP3    H161066   6.428   6.161   4.644  2.4343  1.5595 -0.0943
13217TIP3    H261067   6.360   6.248   4.540  0.6007 -0.3935 -0.6062
13218TIP3   OH261068   1.453   1.489  11.937 -0.0315  0.2406 -0.1317
13218TIP3    H161069   1.455   1.534  12.022  0.1123  0.0901 -0.0556
13218TIP3    H261070   1.376   1.431  11.943 -0.3014  0.5785 -0.2835
13219TIP3   OH261071   3.305   3.269   3.120 -0.0756 -0.1581 -0.6013
13219TIP3    H161072   3.307   3.326   3.043 -1.4141 -0.0634 -0.5820
13219TIP3    H261073   3.237   3.204   3.100 -1.3960  0.6661  1.0282
13220TIP3   OH261074   0.947   3.405   3.046  0.2806  0.1419 -0.5166
13220TIP3    H161075   0.933   3.333   2.984 -0.3679  0.0861 -0.3127
13220TIP3    H261076   0.948   3.362   3.131 -3.4416  0.6593 -0.0372
13221TIP3   OH261077   5.360   4.582   5.336 -0.0828  0.3445 -0.0586
13221TIP3    H161078   5.445   4.547   5.364 -0.9011 -0.4760  1.5614
13221TIP3    H261079   5.325   4.625   5.413 -1.3015  0.3523 -0.5916
13222TIP3   OH261080   1.390   0.298  16.779  0.3386 -0.5126 -0.0298
13222TIP3    H161081   1.470   0.313  16.828  0.8250 -0.4629 -0.8243
13222TIP3    H261082   1.389   0.203  16.763  2.2507 -0.1263 -3.2930
13223TIP3   OH261083   1.763   2.957  14.868  0.3140 -0.4193 -0.0249
13223TIP3    H161084   1.815   3.027  14.829 -1.3001  0.8205 -0.0807
13223TIP3    H261085   1.777   2.882  14.811  1.5287  0.0597 -0.3776
13224TIP3   OH261086   6.417   0.003   4.206 -0.0613 -0.1260 -0.3767
13224TIP3    H161087   6.492  -0.048   4.175 -1.2534 -1.9510 -0.3436
13224TIP3    H261088   6.442   0.094   4.187 -0.1589 -0.8798 -5.8808
13225TIP3   OH261089   4.676   5.267   0.699  0.0834  0.4597  0.0758
13225TIP3    H161090   4.605   5.283   0.637  0.5942 -0.4054 -0.7554
13225TIP3    H261091   4.633   5.264   0.785 -0.8080  0.4342 -0.3604
13226TIP3   OH261092   2.333   2.545   2.344  0.4298  0.0423 -0.0049
13226TIP3    H161093   2.326   2.640   2.334  2.2922  0.1558 -0.6540
13226TIP3    H261094   2.308   2.528   2.435  0.5150  1.2130  0.2535
13227TIP3   OH261095   1.547   5.304  15.161  0.0508  0.2134 -0.0539
13227TIP3    H161096   1.505   5.358  15.093  1.8964  2.2011  0.2622
13227TIP3    H261097   1.626   5.270  15.118  0.0943 -0.3147  0.4461
13228TIP3   OH261098   1.168   2.405   1.018 -0.3404  0.4210 -0.5620
13228TIP3    H161099   1.099   2.432   0.957  0.1397  1.9615 -0.4710
13228TIP3    H261100   1.184   2.483   1.071 -0.2957 -0.6907  1.1305
13229TIP3   OH261101   6.723   4.670   2.016 -0.5203 -0.1793 -0.3909
13229TIP3    H161102   6.656   4.617   1.974  0.3300 -1.0230 -0.7334
13229TIP3    H261103   6.720   4.754   1.968 -1.1521 -0.2967 -0.5629
13230TIP3   OH261104   4.236   1.274   2.783 -0.2364  0.2624  0.2074
13230TIP3    H161105   4.329   1.273   2.759 -0.4765  1.1091 -0.8283
13230TIP3    H261106   4.194   1.218   2.718 -0.3188 -1.1629  1.4216
13231TIP3   OH261107   3.487   1.479   3.699 -0.6861  0.2097  0.0992
13231TIP3    H161108   3.572   1.490   3.740 -1.0978 -0.7393  1.2524
13231TIP3    H261109   3.434   1.433   3.764 -1.8190  0.0066 -0.9235
13232TIP3   OH261110   3.356   2.753   0.073 -0.2681 -0.1435 -0.0749
13232TIP3    H161111   3.359   2.827   0.134 -0.1492 -0.7383  0.6687
13232TIP3    H261112   3.431   2.766   0.015 -0.5622  0.5989 -0.3017
13233TIP3   OH261113   0.949   5.960  15.408 -0.2278  0.6803 -0.4595
13233TIP3    H161114   0.980   6.037  15.455  1.3102 -0.6322  0.8068
13233TIP3    H261115   0.870   5.989  15.363 -0.6277  2.5510  1.3076
13234TIP3   OH261116   5.316   2.620  12.943 -0.0585 -0.5666  0.0606
13234TIP3    H161117   5.315   2.710  12.976 -0.9217  0.3800 -2.3456
13234TIP3    H261118   5.232   2.584  12.970 -1.7967  0.9763 -2.8707
13235TIP3   OH261119   4.433   1.428   5.052 -0.7061  0.0419 -0.6525
13235TIP3    H161120   4.514   1.432   5.102 -1.7873 -0.1595  1.1916
13235TIP3    H261121   4.398   1.517   5.054  0.3239  0.5871 -3.0493
13236TIP3   OH261122   2.334   6.351  14.952 -0.0690 -0.3337  0.6476
13236TIP3    H161123   2.333   6.276  15.012 -0.7271 -0.9969 -0.1494
13236TIP3    H261124   2.243   6.380  14.949 -0.3949 -1.3613 -1.2480
13237TIP3   OH261125   3.012   3.189   2.113  0.6029 -0.1678  0.1838
13237TIP3    H161126   3.056   3.105   2.099 -1.7186 -1.5308  0.5784
13237TIP3    H261127   2.990   3.191   2.206  1.5050  1.3702  0.4022
13238TIP3   OH261128   4.539   0.788   3.886  0.1820  0.5536 -0.3304
13238TIP3    H161129   4.577   0.857   3.940 -1.1858 -0.5105  2.1800
13238TIP3    H261130   4.575   0.707   3.922  1.3081 -0.1591 -2.8387
13239TIP3   OH261131   5.890   4.932  10.820  0.0125  0.0116 -0.1668
13239TIP3    H161132   5.939   4.939  10.902 -0.5123 -2.1825  0.3778
13239TIP3    H261133   5.823   5.000  10.827  1.6260  1.6632 -0.0161
13240TIP3   OH261134   3.806   6.685   2.361 -0.2710  0.0054 -0.0327
13240TIP3    H161135   3.844   6.703   2.447  0.6489  0.4451 -0.5139
13240TIP3    H261136   3.721   6.645   2.380  0.7593 -1.8147  1.1217
13241TIP3   OH261137   2.169   1.682  17.059  0.1762 -0.3296  0.0631
13241TIP3    H161138   2.172   1.713  16.968  0.3827  0.5235  0.3443
13241TIP3    H261139   2.237   1.615  17.064  0.6303  0.1023 -0.2478
13242TIP3   OH261140   6.767   6.372  11.257  0.1095  0.8183 -0.1466
13242TIP3    H161141   6.687   6.397  11.211  1.1129  1.3019 -1.7157
13242TIP3    H261142   6.834   6.432  11.223  1.1404  0.4484  1.1450
13243TIP3   OH261143   6.208   4.528   4.902  0.0391  0.0032 -0.4084
13243TIP3    H161144   6.142   4.474   4.859 -0.1125 -0.8181  0.8159
13243TIP3    H261145   6.291   4.490   4.873 -0.0463 -2.0065  1.6645
13244TIP3   OH261146   2.234   1.914   3.444 -0.1772  0.1346 -0.1395
13244TIP3    H161147   2.153   1.865   3.429  0.1965  0.1845 -3.0634
13244TIP3    H261148   2.301   1.861   3.400  1.1382  0.8095  0.9913
13245TIP3   OH261149   2.120   2.336  11.569  0.5145  0.1660 -0.0025
13245TIP3    H161150   2.040   2.319  11.619  1.1210 -1.9890  0.3371
13245TIP3    H261151   2.094   2.400  11.503 -1.1850  0.3951  0.8288
13246TIP3   OH261152   1.377   5.134  13.662 -0.1090 -0.0068  0.2124
13246TIP3    H161153   1.397   5.207  13.721  0.3035  0.8667 -0.9569
13246TIP3    H261154   1.462   5.096  13.642 -0.4202 -1.6697  1.8150
13247TIP3   OH261155   4.626   6.644   6.223 -0.0329 -0.1902  0.0023
13247TIP3    H161156   4.608   6.715   6.161 -1.5121 -1.9090 -1.6802
13247TIP3    H261157   4.644   6.688   6.306  2.0036  2.2377 -1.5752
13248TIP3   OH261158   5.087   0.257  15.318 -0.2452  0.4256  0.2174
13248TIP3    H161159   5.037   0.285  15.241 -0.2738 -0.0950  0.0420
13248TIP3    H261160   5.119   0.338  15.356 -0.2090  0.6902 -0.3611
13249TIP3   OH261161   3.418   6.679   3.940  0.2385 -0.4411 -0.1185
13249TIP3    H161162   3.427   6.747   4.007  1.9305  0.3835 -1.1115
13249TIP3    H261163   3.430   6.597   3.988 -1.6326 -0.0990  1.0670
13250TIP3   OH261164   4.827   0.134  14.778  0.0237  0.0759  0.0430
13250TIP3    H161165   4.842   0.197  14.848 -0.3069 -1.3788  1.5082
13250TIP3    H261166   4.893   0.066  14.792  0.1543 -0.0997 -1.2672
13251TIP3   OH261167   5.757   3.983  15.055 -0.2488 -0.3171 -0.4549
13251TIP3    H161168   5.682   3.996  15.114  0.5977  0.1027  0.5767
13251TIP3    H261169   5.802   3.907  15.091  0.6991  0.3965 -0.0701
13252TIP3   OH261170   5.997   0.403   5.736 -0.6653  0.3995 -0.0141
13252TIP3    H161171   6.082   0.425   5.699 -0.7039  0.4131 -0.0935
13252TIP3    H261172   5.943   0.480   5.719  0.1707  1.7542  2.7767
13253TIP3   OH261173   6.630   5.897   2.438  0.2273 -0.0024  0.5413
13253TIP3    H161174   6.596   5.807   2.433 -0.7597  0.3431  0.7495
13253TIP3    H261175   6.698   5.894   2.504 -1.1194 -0.2130  1.9660
13254TIP3   OH261176   3.223   5.084   5.511  0.3127 -0.1467 -0.7006
13254TIP3    H161177   3.136   5.091   5.550  0.2327 -1.7474 -0.5172
13254TIP3    H261178   3.269   5.163   5.540 -1.1676  0.9166 -1.0993
13255TIP3   OH261179   6.035   0.720   4.458 -0.1749 -0.2481 -0.3993
13255TIP3    H161180   6.086   0.714   4.538 -0.3201 -0.5521 -0.3266
13255TIP3    H261181   6.056   0.806   4.422  1.0477 -0.6937 -0.8152
13256TIP3   OH261182   5.311   3.685   0.178 -0.1667  0.2343  0.1393
13256TIP3    H161183   5.395   3.638   0.175 -1.2549 -1.8005 -1.6738
13256TIP3    H261184   5.313   3.741   0.101 -0.2445  0.6115  0.4117
13257TIP3   OH261185   0.677   5.242  16.233 -0.4526  0.0827  0.0501
13257TIP3    H161186   0.717   5.156  16.241 -0.3347  0.1746  0.4980
13257TIP3    H261187   0.750   5.301  16.213 -0.3678  0.2386  0.7906
13258TIP3   OH261188   5.050   5.349   6.275  0.4707 -0.1682 -0.5557
13258TIP3    H161189   4.968   5.322   6.317  1.6276 -0.4335  1.6872
13258TIP3    H261190   5.117   5.333   6.342  2.1463  1.6165 -1.7099
13259TIP3   OH261191   3.631   1.272  16.695  0.3654  0.2385 -0.2891
13259TIP3    H161192   3.635   1.324  16.775  0.2108  0.5285 -0.4673
13259TIP3    H261193   3.596   1.187  16.723 -0.5938  0.6525 -0.2051
13260TIP3   OH261194   0.179   3.714  12.320  0.5979  0.0160 -0.1002
13260TIP3    H161195   0.098   3.675  12.287  0.3700 -0.1441  0.6203
13260TIP3    H261196   0.174   3.702  12.415  1.2882  0.3517 -0.0155
13261TIP3   OH261197   2.471   1.292  11.904 -0.2256  0.1513 -0.1773
13261TIP3    H161198   2.446   1.294  11.997  0.1134 -0.3377 -0.0732
13261TIP3    H261199   2.414   1.227  11.865 -1.0068  1.0132 -0.5119
13262TIP3   OH261200   1.221   5.481  13.986  0.5803  0.0904 -0.2238
13262TIP3    H161201   1.204   5.573  13.968  1.3036  0.2449 -0.1221
13262TIP3    H261202   1.251   5.445  13.902 -1.7148 -0.5652 -0.8515
13263TIP3   OH261203   3.713   4.039   2.804 -0.2324 -0.0860  0.1802
13263TIP3    H161204   3.733   4.025   2.711 -0.2240 -0.8502  0.2920
13263TIP3    H261205   3.723   4.133   2.816 -2.4399  0.4066 -1.1262
13264TIP3   OH261206   5.254   4.297  14.902  0.7985 -0.0876 -0.3989
13264TIP3    H161207   5.343   4.302  14.937  0.6462 -0.5682  0.0903
13264TIP3    H261208   5.206   4.248  14.969 -0.0464  0.9386 -0.2351
13265TIP3   OH261209   3.645   0.607  13.072  0.6787  0.2172  0.4275
13265TIP3    H161210   3.572   0.549  13.094  1.2726 -0.5839  0.3448
13265TIP3    H261211   3.717   0.577  13.127  1.2198  0.3755 -0.1745
13266TIP3   OH261212   5.865   1.349   3.176  0.2938  0.0245  0.3352
13266TIP3    H161213   5.879   1.440   3.203  1.0288 -0.4420  1.6102
13266TIP3    H261214   5.899   1.297   3.249 -0.9077 -1.2791  0.0062
13267TIP3   OH261215   5.195   1.136  12.744 -0.3068  0.3743  0.2776
13267TIP3    H161216   5.163   1.215  12.786 -0.9963  0.2855 -0.0735
13267TIP3    H261217   5.264   1.104  12.803 -1.0672  0.3993  1.2139
13268TIP3   OH261218   4.751   3.849  16.804  0.0728 -0.4862  0.5595
13268TIP3    H161219   4.721   3.862  16.894 -0.9658  0.5212  0.0786
13268TIP3    H261220   4.846   3.835  16.813  0.1111  0.3613  1.7362
13269TIP3   OH261221   4.394   0.324   1.354 -0.0810 -0.0057  0.5294
13269TIP3    H161222   4.461   0.357   1.294 -1.2820  0.7846 -0.4314
13269TIP3    H261223   4.393   0.387   1.426 -0.6408  0.6665 -0.0649
13270TIP3   OH261224   3.913   0.542  15.046 -0.1246 -0.8699 -0.0785
13270TIP3    H161225   3.907   0.602  15.120  0.5550 -1.3226  0.3572
13270TIP3    H261226   3.990   0.570  14.998 -0.4186 -0.7358 -0.4777
13271TIP3   OH261227   0.016   3.963   6.042 -0.5138 -0.4469 -0.5697
13271TIP3    H161228   0.025   3.946   5.948 -0.1751  2.7412 -1.2281
13271TIP3    H261229  -0.072   3.999   6.051  0.5501  2.3370 -0.3176
13272TIP3   OH261230   0.156   0.638  11.407 -0.1398  0.4697  0.5874
13272TIP3    H161231   0.125   0.668  11.321 -2.2412 -2.3217  0.2006
13272TIP3    H261232   0.162   0.543  11.397 -0.3645  0.0835  3.5099
13273TIP3   OH261233   5.234   1.929  12.399  0.3066 -0.7726  0.0504
13273TIP3    H161234   5.204   1.974  12.479  1.3317  0.1080 -0.0430
13273TIP3    H261235   5.195   1.842  12.405 -0.6352 -0.3154  0.9036
13274TIP3   OH261236   1.660   5.394   0.781  0.5314 -0.4887  0.3759
13274TIP3    H161237   1.624   5.310   0.754 -2.3508  0.1570  1.7841
13274TIP3    H261238   1.716   5.373   0.856 -0.2687 -1.1779  0.8002
13275TIP3   OH261239   5.180   0.890   0.502 -0.0264 -0.1761  0.0948
13275TIP3    H161240   5.171   0.908   0.595 -0.8214  0.5512 -0.1075
13275TIP3    H261241   5.267   0.922   0.480  0.7078 -1.5893  0.8509
13276TIP3   OH261242   4.834   5.318   5.458  0.6054  0.1744 -0.2475
13276TIP3    H161243   4.813   5.391   5.400  0.1486 -0.4570 -0.8910
13276TIP3    H261244   4.913   5.280   5.422  0.1050 -0.4586 -0.7049
13277TIP3   OH261245   5.887   3.514  16.234  0.7365  0.5435  0.1518
13277TIP3    H161246   5.801   3.489  16.269  0.8107  0.2755  0.1502
13277TIP3    H261247   5.899   3.604  16.262  0.2198  0.7585 -0.3061
13278TIP3   OH261248   1.255   5.263  13.412  0.0667 -0.4534  0.1800
13278TIP3    H161249   1.349   5.278  13.420  0.1152 -0.3225 -0.6073
13278TIP3    H261250   1.244   5.169  13.427  0.2702 -0.3947  0.7065
13279TIP3   OH261251   1.729   3.582  12.426 -0.2874  0.0114 -0.1809
13279TIP3    H161252   1.817   3.547  12.410 -0.7206 -2.8698  2.7483
13279TIP3    H261253   1.674   3.541  12.358  0.0378 -1.2397  0.2895
13280TIP3   OH261254   2.770   1.357  12.238 -0.0295 -0.1667  0.4554
13280TIP3    H161255   2.696   1.306  12.272 -0.9301  1.2633  0.6920
13280TIP3    H261256   2.804   1.303  12.166  0.0498 -1.8299  1.6818
13281TIP3   OH261257   0.701   3.197   1.708  0.3177  0.5390 -0.0974
13281TIP3    H161258   0.694   3.291   1.693  1.6314  0.7406  0.4705
13281TIP3    H261259   0.764   3.167   1.642 -0.0408  0.0637 -0.2298
13282TIP3   OH261260   2.486   2.355  12.208 -0.0609 -0.1933 -0.2090
13282TIP3    H161261   2.476   2.282  12.269 -1.7767 -3.0760 -3.5377
13282TIP3    H261262   2.580   2.368  12.200  0.2238 -0.1975  2.3529
13283TIP3   OH261263   4.680   2.616  15.751  0.0991  0.2455  1.0133
13283TIP3    H161264   4.712   2.691  15.800 -2.4295  0.9160  1.7744
13283TIP3    H261265   4.656   2.552  15.818  1.0336 -0.7681  0.4163
13284TIP3   OH261266   0.969   2.371  10.344  0.1019  0.0680  0.1116
13284TIP3    H161267   0.900   2.429  10.376  0.7789  0.7002  0.4801
13284TIP3    H261268   0.941   2.283  10.369 -1.2433  0.1543 -1.0030
13285TIP3   OH261269   3.835   5.395  11.524 -0.0209 -0.1988 -0.1789
13285TIP3    H161270   3.910   5.454  11.519  0.2114 -0.4391  0.3818
13285TIP3    H261271   3.871   5.310  11.500 -0.0416 -0.3707  0.3797
13286TIP3   OH261272   6.055   0.106   4.084  0.0411 -0.4336  0.2972
13286TIP3    H161273   6.052   0.034   4.147 -1.2121  0.5963  1.4650
13286TIP3    H261274   6.114   0.074   4.015  0.5687 -2.0366  1.4165
13287TIP3   OH261275   4.859   2.066  15.130  0.6552  0.0141  0.0686
13287TIP3    H161276   4.766   2.084  15.141  0.9063  0.0505  2.9034
13287TIP3    H261277   4.902   2.127  15.190  2.5165 -0.1210 -1.0485
13288TIP3   OH261278   1.782   4.310   2.443 -0.4360 -0.6043 -0.9651
13288TIP3    H161279   1.725   4.346   2.374 -1.1585 -1.4207 -0.8146
13288TIP3    H261280   1.734   4.234   2.476 -0.0806 -0.2576  0.4095
13289TIP3   OH261281   1.034   0.765   6.476  0.5774  0.2924  0.5265
13289TIP3    H161282   1.073   0.678   6.467  1.5652  0.7985 -0.3137
13289TIP3    H261283   0.940   0.749   6.484  0.8464 -0.9099  1.6026
13290TIP3   OH261284   1.172   6.012  16.893  0.5036 -0.1263  0.1830
13290TIP3    H161285   1.250   5.957  16.900  0.6586  0.2505  1.6716
13290TIP3    H261286   1.119   5.988  16.969  0.2280  1.2544  0.4512
13291TIP3   OH261287   6.802   2.816   2.976 -0.4389 -0.1778  0.1165
13291TIP3    H161288   6.781   2.723   2.973  0.4284 -0.4235  0.9772
13291TIP3    H261289   6.734   2.854   3.033 -2.5959  0.2977 -2.5729
13292TIP3   OH261290   5.911   6.152   2.049 -0.1810  0.1447 -0.0526
13292TIP3    H161291   5.832   6.184   2.006 -0.0981  0.3994 -0.0140
13292TIP3    H261292   5.949   6.090   1.986 -0.6529 -0.3283  0.1176
13293TIP3   OH261293   6.214   6.664   1.478 -0.6363 -0.0195 -0.3757
13293TIP3    H161294   6.138   6.721   1.491 -0.3841  0.2753 -0.1932
13293TIP3    H261295   6.245   6.686   1.390 -1.5747 -1.1107 -1.0089
13294TIP3   OH261296   5.059   5.516  10.805 -0.0608 -0.0248 -0.3357
13294TIP3    H161297   5.146   5.485  10.832 -0.2425  1.3478  2.0542
13294TIP3    H261298   5.049   5.482  10.716  2.9538 -0.1375 -0.7424
13295TIP3   OH261299   6.076   2.633  14.260  0.0891 -0.2001  0.5862
13295TIP3    H161300   6.111   2.592  14.181  0.2755  0.9994  0.0285
13295TIP3    H261301   5.982   2.615  14.257  0.1825 -0.6669  0.4102
13296TIP3   OH261302   2.414   1.499   2.270  0.0234  0.7415 -0.0853
13296TIP3    H161303   2.468   1.473   2.344 -0.2282 -1.4684 -0.6023
13296TIP3    H261304   2.471   1.555   2.217  0.3514  1.9793  1.4819
13297TIP3   OH261305   3.372   6.801  15.492  0.1136  0.4191 -0.0332
13297TIP3    H161306   3.410   6.861  15.556 -0.9131 -0.5104  1.5184
13297TIP3    H261307   3.281   6.790  15.520 -0.0370 -0.9384 -0.9575
13298TIP3   OH261308   0.297   0.409  13.464 -0.3111 -0.2930 -0.8526
13298TIP3    H161309   0.336   0.365  13.388 -1.2173 -0.7976 -1.0383
13298TIP3    H261310   0.219   0.451  13.429 -0.2926  0.1635 -0.3518
13299TIP3   OH261311   3.282   0.817  12.878  0.4518 -0.5566  0.0869
13299TIP3    H161312   3.340   0.815  12.954  1.2488  1.1117 -0.4354
13299TIP3    H261313   3.196   0.838  12.915  1.0086  1.2427  0.4995
13300TIP3   OH261314   2.370   4.562  15.277  0.5321 -1.0192  0.1174
13300TIP3    H161315   2.416   4.595  15.199 -1.4260  1.1644 -0.2274
13300TIP3    H261316   2.288   4.526  15.243 -0.2969 -0.1426  1.1274
13301TIP3   OH261317   3.825   5.765  15.666 -0.0001 -0.3250 -0.0379
13301TIP3    H161318   3.739   5.737  15.636 -0.4157 -1.1482  1.7571
13301TIP3    H261319   3.878   5.773  15.586 -1.6656 -0.0257 -1.1423
13302TIP3   OH261320   1.912   0.702  14.459  0.3312  0.1399 -0.0203
13302TIP3    H161321   1.998   0.673  14.430  2.1005  3.3311  1.5998
13302TIP3    H261322   1.885   0.767  14.394 -1.5452 -1.6723 -1.1888
13303TIP3   OH261323   0.364   3.601   5.778  0.0342  0.5877  0.2747
13303TIP3    H161324   0.428   3.531   5.789  0.2730  0.3853 -1.9467
13303TIP3    H261325   0.343   3.629   5.867  1.3038 -1.0539  1.1403
13304TIP3   OH261326   1.336   6.035  12.755 -0.2232  0.0503  0.0521
13304TIP3    H161327   1.332   6.094  12.829 -2.0568  0.2807 -0.1702
13304TIP3    H261328   1.245   6.028  12.725  0.2613 -1.1563 -1.2802
13305TIP3   OH261329   0.505   0.453  16.445  0.3985  0.1412  0.4638
13305TIP3    H161330   0.518   0.541  16.408  0.1382  0.0434  0.1407
13305TIP3    H261331   0.442   0.412  16.387 -1.6432  0.7032  2.1658
13306TIP3   OH261332   2.325   0.924   4.293 -0.2918 -0.3666  0.1707
13306TIP3    H161333   2.416   0.943   4.268 -0.9503  0.5826 -1.6451
13306TIP3    H261334   2.303   0.846   4.243  0.1943 -2.0379  2.3835
13307TIP3   OH261335   1.764   4.481   5.542  0.3116  0.3048 -0.1059
13307TIP3    H161336   1.692   4.492   5.603  0.1213  0.6249 -0.3832
13307TIP3    H261337   1.828   4.548   5.567  0.9064 -0.5361  0.6865
13308TIP3   OH261338   0.181   1.054   1.459 -0.4641  0.6212 -0.0195
13308TIP3    H161339   0.261   1.049   1.406 -0.0183 -0.3801  0.7049
13308TIP3    H261340   0.158   0.963   1.476 -1.5310  0.9049  0.1453
13309TIP3   OH261341   4.289   4.303   3.718  0.2390  0.1182 -0.1900
13309TIP3    H161342   4.218   4.261   3.767 -0.7416  1.1744 -0.6310
13309TIP3    H261343   4.340   4.349   3.785  1.8330 -2.3505  0.4112
13310TIP3   OH261344   3.436   1.121   3.135 -0.1360  0.6944 -0.2817
13310TIP3    H161345   3.420   1.027   3.127 -0.2725  0.6791  0.1708
13310TIP3    H261346   3.349   1.161   3.133 -0.4601  0.5153  3.5489
13311TIP3   OH261347   3.036   1.946  13.309 -0.2705  0.1627 -0.4076
13311TIP3    H161348   3.094   1.984  13.243  0.4017 -2.0618 -1.2022
13311TIP3    H261349   2.948   1.974  13.284  0.2607  2.2147 -0.1497
13312TIP3   OH261350   4.743   1.022  16.354  0.4971 -0.8477  0.4267
13312TIP3    H161351   4.713   0.933  16.372  1.9894 -1.9016 -1.8968
13312TIP3    H261352   4.746   1.064  16.440 -2.6882 -2.1799  1.3368
13313TIP3   OH261353   4.127   0.376  16.993 -0.3267 -0.2222  0.8385
13313TIP3    H161354   4.123   0.470  16.975  1.1719 -0.2382  0.2779
13313TIP3    H261355   4.166   0.370  17.080 -0.2370 -0.3335  0.7901
13314TIP3   OH261356   1.638   3.005  17.009 -0.5841 -0.4174  0.2089
13314TIP3    H161357   1.676   2.986  16.924  0.8309 -1.7659  1.0901
13314TIP3    H261358   1.577   3.077  16.993 -0.6034 -0.8646 -1.9809
13315TIP3   OH261359   6.364   6.625  14.787  0.4716  0.6147 -0.9447
13315TIP3    H161360   6.348   6.697  14.725  2.2894  0.6728 -1.4215
13315TIP3    H261361   6.378   6.548  14.732 -1.3457 -0.1085 -0.4381
13316TIP3   OH261362   1.415   1.004  11.961  0.1898  0.1385 -0.5042
13316TIP3    H161363   1.340   0.962  11.920  2.0313 -0.0858 -4.0060
13316TIP3    H261364   1.470   0.931  11.991  0.9143  0.1056 -1.8149
13317TIP3   OH261365   0.815   5.685   4.878 -0.5353  0.2636 -0.2880
13317TIP3    H161366   0.741   5.735   4.912 -0.5372 -0.2865  0.5498
13317TIP3    H261367   0.887   5.748   4.876 -0.8397  0.6166 -0.4277
13318TIP3   OH261368   0.608   0.173   2.946 -0.1049 -0.7767  0.3363
13318TIP3    H161369   0.562   0.098   2.983 -0.0930 -0.7705  0.3641
13318TIP3    H261370   0.548   0.208   2.880 -0.9689  0.3830  1.6799
13319TIP3   OH261371   4.004   2.017  12.275 -0.3688  0.4436  0.0053
13319TIP3    H161372   4.031   1.950  12.339 -1.6693 -0.9313 -0.8016
13319TIP3    H261373   4.049   1.992  12.194  0.2389  1.3981  0.0418
13320TIP3   OH261374   1.881   5.561  15.836 -0.2215  0.2471 -0.4713
13320TIP3    H161375   1.830   5.616  15.895  1.2012  1.5910 -0.4331
13320TIP3    H261376   1.854   5.471  15.857  0.5975  0.6058  2.5985
13321TIP3   OH261377   0.497   0.144  16.334  0.3518 -0.4038  0.4462
13321TIP3    H161378   0.506   0.050  16.324  0.4036 -0.2781 -0.9302
13321TIP3    H261379   0.405   0.158  16.358 -0.2545 -0.7025 -1.5046
13322TIP3   OH261380   3.474   5.696   5.978  0.4658  0.4628 -0.7622
13322TIP3    H161381   3.433   5.682   6.063  1.9919  1.1114  0.1207
13322TIP3    H261382   3.437   5.629   5.921 -0.5631  0.0080  0.4151
13323TIP3   OH261383   6.758   3.377   5.177  0.0234 -0.3132  0.5119
13323TIP3    H161384   6.815   3.436   5.226 -2.2951  1.0681  1.7475
13323TIP3    H261385   6.794   3.290   5.193  2.4798  0.5491  0.1372
13324TIP3   OH261386   5.458   4.110  10.772 -0.6520 -0.0259  0.2772
13324TIP3    H161387   5.410   4.042  10.726  0.6320 -1.8917  1.5555
13324TIP3    H261388   5.403   4.132  10.847 -1.8487  1.6436 -1.0050
13325TIP3   OH261389   6.373   3.429  16.895 -0.1919  0.1351 -0.3310
13325TIP3    H161390   6.293   3.417  16.946  0.5694 -2.2414  0.4303
13325TIP3    H261391   6.441   3.443  16.961  0.6347 -1.9050 -0.6922
13326TIP3   OH261392   5.055   0.178   4.622  0.2309 -0.4627  0.1810
13326TIP3    H161393   5.081   0.151   4.534 -1.1752 -0.1351 -0.3617
13326TIP3    H261394   4.970   0.137   4.636  0.3495 -0.3519  1.3163
13327TIP3   OH261395   4.883   1.036  13.169  0.0046 -0.2593 -0.0091
13327TIP3    H161396   4.880   0.991  13.254  1.2635  0.4663  0.4556
13327TIP3    H261397   4.976   1.038  13.147 -0.2044  0.5632 -0.8569
13328TIP3   OH261398   1.295   4.982   3.625 -0.2807 -0.2013  0.1612
13328TIP3    H161399   1.352   5.034   3.682 -0.8855  0.1757  0.4362
13328TIP3    H261400   1.318   5.010   3.537 -0.5691  0.5231  0.3051
13329TIP3   OH261401   3.336   0.373  14.591 -0.0701  0.5981 -0.0356
13329TIP3    H161402   3.330   0.279  14.603 -0.8300  0.2796 -2.4125
13329TIP3    H261403   3.284   0.410  14.663 -0.2610 -0.8092  0.5737
13330TIP3   OH261404   0.884   1.858   3.666  0.3078  0.2746  0.1884
13330TIP3    H161405   0.872   1.878   3.759  1.0590  2.2548 -0.0966
13330TIP3    H261406   0.796   1.868   3.629  0.4710  2.2923  0.2395
13331TIP3   OH261407   5.743   6.324   3.838  0.2687  0.0283 -0.9911
13331TIP3    H161408   5.775   6.261   3.903 -0.5938  1.5303  1.0139
13331TIP3    H261409   5.818   6.381   3.821  0.4256 -0.2237 -1.1696
13332TIP3   OH261410   5.817   5.341   4.454  0.1383 -0.0902  0.7129
13332TIP3    H161411   5.893   5.379   4.499 -0.0922  0.6893  0.4514
13332TIP3    H261412   5.851   5.260   4.415  0.8951  0.3447  0.4381
13333TIP3   OH261413   5.077   1.298  12.500 -0.4604 -0.3765  0.2061
13333TIP3    H161414   5.132   1.220  12.491 -0.8694 -0.5992 -0.5384
13333TIP3    H261415   5.087   1.325  12.591  2.0820  0.5112 -0.2577
13334TIP3   OH261416   4.259   1.678   6.166 -0.2457 -0.4027  0.7132
13334TIP3    H161417   4.349   1.709   6.159  0.1139 -1.0193  2.1413
13334TIP3    H261418   4.260   1.619   6.241 -1.1535 -2.9444 -1.1440
13335TIP3   OH261419   4.809   5.534  10.916  0.1376 -0.2906 -0.1064
13335TIP3    H161420   4.893   5.524  10.870  0.4175  0.1871  0.2785
13335TIP3    H261421   4.777   5.445  10.928 -0.0981 -0.4096 -1.5045
13336TIP3   OH261422   0.639   3.443   1.633 -0.3839  0.3856  0.1505
13336TIP3    H161423   0.575   3.494   1.683 -0.3511 -0.9806  1.6692
13336TIP3    H261424   0.610   3.451   1.542 -1.8016  1.0637  0.6262
13337TIP3   OH261425   5.151   3.447   4.572  0.1460 -1.0093 -0.0800
13337TIP3    H161426   5.205   3.442   4.651  0.4878  3.3751  0.2130
13337TIP3    H261427   5.075   3.392   4.591 -0.2000  0.5045  3.7465
13338TIP3   OH261428   5.031   5.964  16.397  0.1135 -0.4022  0.4016
13338TIP3    H161429   5.006   5.872  16.400  1.0677 -0.7276 -0.6844
13338TIP3    H261430   4.980   6.001  16.325 -0.7635  0.1032  1.2560
13339TIP3   OH261431   3.950   3.968   0.696 -0.0123  0.3066  0.5214
13339TIP3    H161432   3.969   4.047   0.645  1.5803 -0.7694 -0.6612
13339TIP3    H261433   3.938   4.000   0.786  0.3021  1.9194  0.0340
13340TIP3   OH261434   1.458   2.069   3.469  0.4763 -0.0372  0.4665
13340TIP3    H161435   1.412   2.141   3.426  1.3364  0.6159  0.6057
13340TIP3    H261436   1.472   2.098   3.558  2.0935  0.2494  0.1486
13341TIP3   OH261437   4.040   6.208  16.784 -0.1479 -0.4264  0.9017
13341TIP3    H161438   3.964   6.246  16.830 -0.2909 -0.3808  0.6272
13341TIP3    H261439   4.115   6.232  16.838 -0.1690  0.7360  0.4347
13342TIP3   OH261440   2.426   0.955  13.480 -0.5693  0.3419  0.2283
13342TIP3    H161441   2.462   0.946  13.568  0.0382  0.4285 -0.0105
13342TIP3    H261442   2.332   0.966  13.494 -0.5170  0.0251  0.8486
13343TIP3   OH261443   4.048   2.461   2.066  0.5906 -0.0980  0.2284
13343TIP3    H161444   4.130   2.452   2.115 -0.0545 -0.1034  1.3538
13343TIP3    H261445   4.030   2.374   2.032 -0.0954 -0.6739  1.9278
13344TIP3   OH261446   0.784   5.254   1.354 -0.3381  0.3888 -0.3307
13344TIP3    H161447   0.851   5.276   1.419  1.5777 -1.4924 -1.5518
13344TIP3    H261448   0.791   5.160   1.343 -1.7395  0.4413 -2.1044
13345TIP3   OH261449   6.370   0.323  11.845  0.4632 -0.4426  0.2348
13345TIP3    H161450   6.347   0.253  11.906 -0.1577 -1.1016 -0.7295
13345TIP3    H261451   6.465   0.332  11.854  0.2977  0.0037  1.8381
13346TIP3   OH261452   2.989   6.274  12.250 -0.4970 -0.2133  0.3921
13346TIP3    H161453   2.954   6.201  12.301 -0.6540 -0.4892 -0.1013
13346TIP3    H261454   3.081   6.251  12.236 -0.0965  0.5135  1.6931
13347TIP3   OH261455   5.152   3.487  11.443 -0.4528 -0.0837 -0.1006
13347TIP3    H161456   5.199   3.404  11.447 -1.0276 -0.3833  0.4471
13347TIP3    H261457   5.085   3.474  11.377 -0.3022  0.0793 -0.2905
13348TIP3   OH261458   4.386   4.793   2.704  0.0390  0.1622  0.4788
13348TIP3    H161459   4.308   4.809   2.757 -0.2347  0.5971 -0.0501
13348TIP3    H261460   4.455   4.843   2.747 -0.3145  0.9942  0.0993
13349TIP3   OH261461   6.559   2.179   2.285 -0.2088  0.0800  0.3844
13349TIP3    H161462   6.575   2.196   2.378 -0.2422 -0.9344  0.5808
13349TIP3    H261463   6.641   2.141   2.253 -0.3912 -0.1035  0.1325
13350TIP3   OH261464   1.088   1.800   4.585  0.2263  0.5043  0.3684
13350TIP3    H161465   1.091   1.708   4.610  0.1537 -0.0112 -1.3682
13350TIP3    H261466   1.179   1.821   4.562  0.6219  1.4506  2.5716
13351TIP3   OH261467   4.492   6.507   3.331  0.3309  0.2957  0.3078
13351TIP3    H161468   4.574   6.486   3.377  0.5591  0.2121 -0.1278
13351TIP3    H261469   4.437   6.547   3.398  0.3387 -0.5921  0.8641
13352TIP3   OH261470   4.316   4.431  16.191 -0.0181 -0.0339 -0.4537
13352TIP3    H161471   4.362   4.427  16.275 -0.4923  1.4879 -0.0856
13352TIP3    H261472   4.386   4.446  16.127  0.1394  1.1599 -0.0288
13353TIP3   OH261473   5.594   0.838   2.349  0.5148  0.0931  0.1732
13353TIP3    H161474   5.516   0.872   2.307  0.7116  1.1194  0.5806
13353TIP3    H261475   5.657   0.825   2.278 -0.1502 -1.1602 -0.2086
13354TIP3   OH261476   2.749   5.767  12.552 -0.3192  0.0631  0.7093
13354TIP3    H161477   2.829   5.793  12.599  2.1528 -0.9802 -2.5658
13354TIP3    H261478   2.769   5.680  12.517 -2.2701  0.4193 -1.5416
13355TIP3   OH261479   2.777   1.744  13.006  0.1032 -0.1867  0.1680
13355TIP3    H161480   2.747   1.828  13.043 -1.2553 -0.8550  0.6725
13355TIP3    H261481   2.866   1.733  13.040  0.0028  0.6790  0.7469
13356TIP3   OH261482   5.747   6.164   4.479 -0.2150  0.0534 -0.2402
13356TIP3    H161483   5.776   6.228   4.414  0.5510 -0.3960 -0.3618
13356TIP3    H261484   5.802   6.182   4.556  0.8688 -1.2132 -0.6844
13357TIP3   OH261485   1.196   5.773   2.260 -0.0040  0.1759 -0.1485
13357TIP3    H161486   1.104   5.790   2.282 -0.1144  0.6635 -0.9488
13357TIP3    H261487   1.198   5.682   2.234 -0.3721  0.3105 -0.6657
13358TIP3   OH261488   6.608   2.767   2.350  0.4728  0.1297 -0.4835
13358TIP3    H161489   6.681   2.792   2.293  0.6703  0.9281  0.0956
13358TIP3    H261490   6.549   2.718   2.293  1.3445 -0.3308 -1.0192
13359TIP3   OH261491   5.869   3.304  12.039 -0.4307 -0.1913  1.0150
13359TIP3    H161492   5.832   3.250  11.970  0.8544  0.1052  0.0598
13359TIP3    H261493   5.961   3.315  12.014 -0.6925  2.6755  1.0043
13360TIP3   OH261494   6.089   6.533  11.412 -0.3541  0.0162  0.6607
13360TIP3    H161495   6.130   6.618  11.428  1.6171 -1.0411  1.5955
13360TIP3    H261496   6.018   6.551  11.350  1.9121  1.9351 -1.6066
13361TIP3   OH261497   3.423   3.257  16.934 -0.4593 -0.1082  0.2115
13361TIP3    H161498   3.403   3.189  16.998 -0.3140  0.8560  1.3206
13361TIP3    H261499   3.514   3.281  16.953 -0.6957  0.8003  0.2444
13362TIP3   OH261500   5.785   3.683   5.138  0.0466  0.4143 -0.9235
13362TIP3    H161501   5.734   3.764   5.129  0.6587  0.7417 -1.4707
13362TIP3    H261502   5.825   3.670   5.053  1.0115  0.2514 -0.4563
13363TIP3   OH261503   2.596   6.639   2.364 -0.3037 -0.5958  0.1576
13363TIP3    H161504   2.687   6.617   2.340 -0.5128 -0.3495 -0.9281
13363TIP3    H261505   2.604   6.708   2.429  0.2876 -0.3393 -0.1823
13364TIP3   OH261506   3.240   0.247   1.753  0.1550 -0.0077 -0.3377
13364TIP3    H161507   3.318   0.192   1.750 -1.7973 -3.0055 -0.5187
13364TIP3    H261508   3.271   0.334   1.729  3.6295 -0.7360  0.9639
13365TIP3   OH261509   6.121   2.027   3.837 -0.7352  0.4058 -0.1033
13365TIP3    H161510   6.194   2.020   3.775 -1.0139  0.5516 -0.4489
13365TIP3    H261511   6.133   1.951   3.895 -0.8950 -0.1653 -0.7931
13366TIP3   OH261512   5.657   0.908  11.797  0.2472  0.2184 -0.2726
13366TIP3    H161513   5.585   0.858  11.835  0.5083  1.0879  1.4291
13366TIP3    H261514   5.615   0.975  11.744 -0.1813  0.3805  0.2706
13367TIP3   OH261515   5.901   1.376   0.762  0.8663 -0.3414 -0.2606
13367TIP3    H161516   5.872   1.309   0.700  0.3415 -1.7888  1.4856
13367TIP3    H261517   5.964   1.428   0.712 -1.1022 -0.0697 -2.6846
13368TIP3   OH261518   5.464   2.328  11.582 -0.6927  0.0937  0.2109
13368TIP3    H161519   5.390   2.352  11.527 -1.4033  0.8675  1.4486
13368TIP3    H261520   5.426   2.282  11.656  0.3514 -1.9105 -0.4217
13369TIP3   OH261521   6.327   4.375  15.683 -0.6446  0.7564  0.1449
13369TIP3    H161522   6.345   4.288  15.648  0.7651 -0.1037  2.7315
13369TIP3    H261523   6.232   4.386  15.673 -0.8368 -1.0292 -0.2964
13370TIP3   OH261524   2.376   3.170  16.170 -0.1081 -0.1272  0.2573
13370TIP3    H161525   2.310   3.110  16.135 -0.2211 -0.7255  1.4386
13370TIP3    H261526   2.418   3.121  16.241  1.7597  0.1640 -0.5841
13371TIP3   OH261527   2.228   6.753   3.027  0.0786  0.3200  0.2420
13371TIP3    H161528   2.323   6.754   3.016 -0.1564 -0.5875 -2.7173
13371TIP3    H261529   2.208   6.665   3.058  0.1090 -0.0590 -0.7787
13372TIP3   OH261530   0.212   2.194   2.795 -0.1492 -0.8337 -0.2992
13372TIP3    H161531   0.218   2.132   2.722 -3.1233  0.5995 -1.9620
13372TIP3    H261532   0.132   2.170   2.841 -0.6620  0.9125 -0.1940
13373TIP3   OH261533   1.641   0.829   1.216  0.3220  0.0182 -0.4546
13373TIP3    H161534   1.626   0.836   1.311 -1.0453 -0.1572 -0.6274
13373TIP3    H261535   1.686   0.910   1.192 -0.6299  0.7428  0.1289
13374TIP3   OH261536   1.480   0.949   4.736  0.0126  0.1238 -0.2313
13374TIP3    H161537   1.418   0.975   4.668 -0.9108  0.4692  0.7195
13374TIP3    H261538   1.454   0.999   4.813  0.8250 -0.5134  0.4775
13375TIP3   OH261539   4.979   2.374   4.235  0.3838  0.3659 -0.3705
13375TIP3    H161540   4.983   2.280   4.250 -1.1897  0.2776 -0.3742
13375TIP3    H261541   4.922   2.407   4.304 -0.4766  1.0686 -1.3986
13376TIP3   OH261542   5.590   5.999   0.568 -0.3876 -0.6306  0.2227
13376TIP3    H161543   5.505   5.962   0.545 -0.9860  1.1863 -0.6287
13376TIP3    H261544   5.635   6.010   0.484 -0.2107  0.4962  0.4484
13377TIP3   OH261545   6.657   1.769   2.801 -0.0918  0.0818  0.5388
13377TIP3    H161546   6.649   1.679   2.770 -1.4967 -0.3018  1.8859
13377TIP3    H261547   6.627   1.822   2.728  0.7029 -0.5231 -0.2539
13378TIP3   OH261548   0.726   4.149  15.606 -0.0913  0.1250  0.3427
13378TIP3    H161549   0.780   4.164  15.529  1.3172 -1.6618  0.9174
13378TIP3    H261550   0.661   4.219  15.604  0.7085  0.8714 -1.7385
13379TIP3   OH261551   2.518   0.364   1.395 -0.0964 -0.5281  0.0423
13379TIP3    H161552   2.544   0.273   1.384  2.6934  0.1101  0.5941
13379TIP3    H261553   2.499   0.373   1.489  0.4897 -0.3772  0.1533
13380TIP3   OH261554   2.893   0.265   3.787 -0.3143 -0.0225 -0.1531
13380TIP3    H161555   2.811   0.312   3.803 -0.3064  0.0111 -0.2156
13380TIP3    H261556   2.956   0.306   3.847 -0.4818 -0.4188  0.3000
13381TIP3   OH261557   2.845   6.221   1.974 -0.1180 -0.1779 -0.2926
13381TIP3    H161558   2.917   6.284   1.965  1.4090 -1.7141  0.6187
13381TIP3    H261559   2.887   6.141   2.005 -2.2396 -1.1429  0.2619
13382TIP3   OH261560   3.660   5.238  16.407  0.4943  0.0341 -0.3302
13382TIP3    H161561   3.625   5.168  16.352  0.4046  0.5477 -0.9442
13382TIP3    H261562   3.583   5.288  16.435  0.6119  0.2848 -0.4524
13383TIP3   OH261563   6.080   0.349   3.958  0.4663 -0.5484 -0.1128
13383TIP3    H161564   6.021   0.410   4.003 -0.1038 -1.1069 -0.0953
13383TIP3    H261565   6.084   0.273   4.015  3.4701  0.5374  1.3497
13384TIP3   OH261566   3.353   6.033  12.304  0.9876 -0.4705 -0.6472
13384TIP3    H161567   3.327   6.115  12.346  0.5716 -0.1299 -1.5430
13384TIP3    H261568   3.427   6.057  12.248  1.7902 -0.9962  0.1719
13385TIP3   OH261569   4.612   1.520  12.352  0.4092 -0.4535  0.5462
13385TIP3    H161570   4.559   1.508  12.273 -0.6719  1.2418  0.9698
13385TIP3    H261571   4.570   1.464  12.417 -1.6441  1.6752  1.1871
13386TIP3   OH261572   6.694   1.742  14.378  0.8036 -0.4995  0.0599
13386TIP3    H161573   6.634   1.682  14.334  1.3628 -1.6928  0.8786
13386TIP3    H261574   6.776   1.733  14.329  0.4475  0.8893 -0.8611
13387TIP3   OH261575   6.800   1.746   3.574 -0.1830 -0.5214  0.1892
13387TIP3    H161576   6.774   1.838   3.581  1.3850  0.0451 -1.0452
13387TIP3    H261577   6.894   1.749   3.561  0.0059 -2.3662  0.9172
13388TIP3   OH261578   0.919   3.573  15.712 -0.0801  0.0368  0.2683
13388TIP3    H161579   0.847   3.601  15.655 -0.4850  1.4364  1.4028
13388TIP3    H261580   0.997   3.612  15.672 -0.2085  0.0754  0.0516
13389TIP3   OH261581   4.980   2.353  11.998 -0.4257 -0.1953  1.0132
13389TIP3    H161582   4.890   2.366  12.028 -1.3624  1.3489 -2.0383
13389TIP3    H261583   4.987   2.259  11.982 -1.8069 -0.2377  0.5551
13390TIP3   OH261584   3.879   1.115  11.809  1.1024 -0.1975  0.0046
13390TIP3    H161585   3.890   1.147  11.898  1.5437 -1.7254  0.5357
13390TIP3    H261586   3.968   1.113  11.773  0.9983 -0.1633 -0.2580
13391TIP3   OH261587   5.517   2.570   4.386 -0.3365 -0.2072 -0.4215
13391TIP3    H161588   5.550   2.654   4.353 -0.2882 -0.4484 -1.0038
13391TIP3    H261589   5.582   2.506   4.357  0.8564 -0.2026  1.9669
13392TIP3   OH261590   4.210   4.755   1.653 -0.1483 -0.1998 -0.0688
13392TIP3    H161591   4.193   4.848   1.665  3.5738  0.8524 -1.5480
13392TIP3    H261592   4.237   4.724   1.740 -2.5510 -0.3113  0.7078
13393TIP3   OH261593   3.178   3.412  13.222 -0.7756  0.6803 -0.1551
13393TIP3    H161594   3.238   3.340  13.245  0.0860  1.3772 -0.1674
13393TIP3    H261595   3.224   3.460  13.153 -0.5903  2.1952  0.9808
13394TIP3   OH261596   5.573   2.548  11.368 -0.0463 -0.6067  0.2233
13394TIP3    H161597   5.540   2.506  11.288 -0.4239  0.1574 -0.0273
13394TIP3    H261598   5.494   2.572  11.416  0.1775 -0.7273  0.6477
13395TIP3   OH261599   2.279   6.064  17.130  0.0248 -0.6130 -0.1109
13395TIP3    H161600   2.334   5.987  17.114  0.3294 -0.1660 -1.3620
13395TIP3    H261601   2.189   6.029  17.133  0.1893 -1.0640 -0.3161
13396TIP3   OH261602   3.002   1.193   0.119 -0.5776  0.1702 -0.1776
13396TIP3    H161603   3.068   1.128   0.096  0.1336  0.5346  0.7389
13396TIP3    H261604   3.009   1.202   0.214 -1.7500  0.4378 -0.1027
13397TIP3   OH261605   6.347   3.322   3.765  0.0246  0.2689 -0.4338
13397TIP3    H161606   6.305   3.403   3.735  0.5203  0.2178 -1.2825
13397TIP3    H261607   6.292   3.252   3.729 -0.5743  0.2091  0.5455
13398TIP3   OH261608   3.646   3.076   1.397 -0.0880  0.1146  0.1068
13398TIP3    H161609   3.618   3.067   1.306  3.7478 -1.3965 -1.1180
13398TIP3    H261610   3.603   3.003   1.442 -0.8040 -0.0642 -0.8305
13399TIP3   OH261611   6.594   5.497   0.762 -0.0028  0.7135  0.0005
13399TIP3    H161612   6.654   5.425   0.740 -0.0665  0.5927  0.2312
13399TIP3    H261613   6.604   5.558   0.689 -0.4410  0.1641 -0.5298
13400TIP3   OH261614   2.139   0.668   2.353 -0.3369  0.0614  0.0720
13400TIP3    H161615   2.191   0.602   2.307 -2.0414 -2.9767  2.0648
13400TIP3    H261616   2.052   0.661   2.313  0.1108  3.7232 -1.9678
13401TIP3   OH261617   2.458   4.511  13.873 -0.2869  0.2518  0.5874
13401TIP3    H161618   2.420   4.519  13.786 -1.8204 -0.2081  1.1813
13401TIP3    H261619   2.389   4.471  13.926 -0.6714  3.4680  2.8328
13402TIP3   OH261620   2.060   2.855  10.882  0.0189  0.0061 -0.4392
13402TIP3    H161621   2.050   2.944  10.849  1.3797 -0.1742 -1.4220
13402TIP3    H261622   2.055   2.800  10.804 -0.6714 -0.7820  0.1439
13403TIP3   OH261623   5.483   6.516  11.649  0.1802 -0.3150  0.1628
13403TIP3    H161624   5.524   6.430  11.659  0.9319 -0.1064 -0.8838
13403TIP3    H261625   5.424   6.524  11.724  2.3817 -0.4611  2.0223
13404TIP3   OH261626   2.842   0.253   0.831  0.3163 -0.1041  0.0625
13404TIP3    H161627   2.830   0.338   0.790 -1.4126 -0.0105  0.6722
13404TIP3    H261628   2.807   0.263   0.919 -0.8254 -1.6801 -0.1556
13405TIP3   OH261629   4.189   4.519   1.468  0.2214 -0.7258  0.3485
13405TIP3    H161630   4.159   4.574   1.396  1.4514  1.0297  1.1113
13405TIP3    H261631   4.208   4.580   1.539  2.9639 -1.9648  0.7935
13406TIP3   OH261632   6.425   0.116  14.108 -0.1642 -0.6501 -0.0466
13406TIP3    H161633   6.332   0.106  14.128 -0.4834  0.0816 -1.0996
13406TIP3    H261634   6.459   0.171  14.178 -0.4313 -1.2085  0.5352
13407TIP3   OH261635   4.556   4.431  16.638  0.2092  0.5900 -0.3486
13407TIP3    H161636   4.577   4.485  16.714  0.2910  0.6776 -0.4334
13407TIP3    H261637   4.544   4.493  16.567  0.3868  0.4918 -0.4665
13408TIP3   OH261638   0.316   4.939  11.756  0.5505  0.3998 -0.2618
13408TIP3    H161639   0.283   4.860  11.798  0.2265  0.3023 -0.6922
13408TIP3    H261640   0.313   5.006  11.824  0.0370  0.2424 -0.1277
13409TIP3   OH261641   2.093   1.014   5.767 -0.1384  0.3555 -0.2085
13409TIP3    H161642   2.063   1.093   5.721  0.1662  0.0514 -0.9426
13409TIP3    H261643   2.012   0.969   5.791 -0.3165  0.9055  0.2598
13410TIP3   OH261644   6.578   1.987  14.656  0.1078 -0.1951 -0.5354
13410TIP3    H161645   6.574   2.083  14.656  1.5117 -0.1181 -0.3841
13410TIP3    H261646   6.488   1.960  14.637 -0.0558  1.1573 -1.8568
13411TIP3   OH261647   1.008   5.755   1.225  0.0440 -0.0271  0.6086
13411TIP3    H161648   1.095   5.718   1.214  0.3322  1.0299 -0.9732
13411TIP3    H261649   0.996   5.813   1.149 -2.6518 -1.3106 -0.0807
13412TIP3   OH261650   1.064   6.759   1.306 -0.7997  0.4254 -0.0571
13412TIP3    H161651   1.150   6.745   1.346 -1.2186 -1.2119  0.3362
13412TIP3    H261652   1.012   6.797   1.376 -0.8233 -0.0681  0.2008
13413TIP3   OH261653   0.028   1.747   3.180 -0.0523 -0.5006  0.1412
13413TIP3    H161654   0.083   1.671   3.163 -0.1177 -0.5997  0.3754
13413TIP3    H261655  -0.052   1.711   3.218 -1.1162 -0.5728 -1.9998
13414TIP3   OH261656   4.673   4.135   0.331 -0.3054  0.4669  0.2302
13414TIP3    H161657   4.754   4.184   0.324 -0.2165  0.5426  1.5073
13414TIP3    H261658   4.694   4.048   0.297  0.3601  0.4437  0.6744
13415TIP3   OH261659   4.918   0.329  11.574 -0.4879  0.4463  0.0666
13415TIP3    H161660   4.847   0.343  11.511 -1.0813  1.9040  1.0000
13415TIP3    H261661   4.938   0.236  11.567 -3.1923 -0.2540  0.4755
13416TIP3   OH261662   4.900   2.343  11.559  0.4756 -0.2023 -0.2736
13416TIP3    H161663   4.977   2.364  11.612  1.0932  0.0628 -1.2460
13416TIP3    H261664   4.933   2.342  11.469 -0.8498  0.8519 -0.7979
13417TIP3   OH261665   6.319   4.013   2.760  0.4213  0.0787 -0.2426
13417TIP3    H161666   6.389   3.962   2.719 -0.3479 -1.7528  0.5831
13417TIP3    H261667   6.301   3.966   2.841 -1.2772  0.9060 -0.1110
13418TIP3   OH261668   5.952   4.403   3.675 -0.1127 -0.1306  0.1028
13418TIP3    H161669   5.986   4.490   3.655 -0.4309 -0.3220 -1.4272
13418TIP3    H261670   5.967   4.392   3.769  0.7398  1.2124  0.1524
13419TIP3   OH261671   2.319   0.558  13.103  0.0323  0.1898 -0.0395
13419TIP3    H161672   2.382   0.561  13.175  0.3064  1.4709 -0.3127
13419TIP3    H261673   2.365   0.598  13.029 -0.8109  0.3872 -0.4654
13420TIP3   OH261674   1.759   4.457  11.735 -0.4327 -0.0821  0.2526
13420TIP3    H161675   1.690   4.440  11.671 -0.6547  0.1457  0.4292
13420TIP3    H261676   1.833   4.487  11.683 -0.7010  0.3613  0.1271
13421TIP3   OH261677   5.681   6.452  16.238 -0.5702  0.2241  0.3303
13421TIP3    H161678   5.734   6.439  16.317  1.3068 -0.6890 -1.0025
13421TIP3    H261679   5.649   6.542  16.246  2.3697  1.3646  0.6142
13422TIP3   OH261680   1.354   6.027   3.443  0.0093  0.3606 -0.2678
13422TIP3    H161681   1.343   6.087   3.370  4.0225 -1.3900 -2.6206
13422TIP3    H261682   1.421   6.068   3.498  0.3579 -0.4367 -0.0828
13423TIP3   OH261683   0.379   6.460   3.917 -0.3711 -0.2848  0.1560
13423TIP3    H161684   0.418   6.432   3.834  3.4555  1.1271  1.2569
13423TIP3    H261685   0.427   6.410   3.984  0.2041  2.1616  1.6875
13424TIP3   OH261686   6.576   0.031   5.018  0.6934  0.2372  0.2421
13424TIP3    H161687   6.510   0.096   4.996  1.8079  0.9854 -1.0386
13424TIP3    H261688   6.561  -0.041   4.957 -1.0572 -1.1522  2.1854
13425TIP3   OH261689   5.623   0.532   3.879  0.3500  0.1569 -0.1301
13425TIP3    H161690   5.651   0.491   3.961 -0.2938 -1.0657 -0.5025
13425TIP3    H261691   5.529   0.546   3.889  0.6451  2.1367  0.2164
13426TIP3   OH261692   1.147   0.781  12.803 -0.2999 -0.1409 -0.2088
13426TIP3    H161693   1.188   0.831  12.733  1.3262 -2.3068 -0.9094
13426TIP3    H261694   1.101   0.710  12.759  1.4674 -2.0558  0.8235
13427TIP3   OH261695   5.395   1.019   0.344 -0.0296 -0.1881 -0.4721
13427TIP3    H161696   5.482   1.047   0.371  0.1092  0.0350 -1.1259
13427TIP3    H261697   5.407   0.992   0.253 -0.3840 -1.3362 -0.1984
13428TIP3   OH261698   2.046   5.485   0.803  0.7175 -0.0159  0.0876
13428TIP3    H161699   2.095   5.551   0.852  0.8603  0.1718 -0.3054
13428TIP3    H261700   1.989   5.444   0.868 -0.2482  1.3169  0.1088
13429TIP3   OH261701   5.889   5.876  15.179 -0.1289  0.6962  0.0594
13429TIP3    H161702   5.936   5.862  15.261 -0.4059  2.1489  0.5078
13429TIP3    H261703   5.867   5.789  15.148 -2.3204  0.0963  2.8945
13430TIP3   OH261704   1.419   2.393   2.520 -0.7607 -0.1779 -0.0310
13430TIP3    H161705   1.459   2.377   2.435 -0.0351  3.0408 -0.4177
13430TIP3    H261706   1.341   2.445   2.501 -0.4303  0.8414  1.2261
13431TIP3   OH261707   1.988   5.160   0.093  0.1544  0.2261  0.1375
13431TIP3    H161708   2.018   5.101   0.162  0.1707  0.0057 -0.0557
13431TIP3    H261709   2.060   5.161   0.030 -1.1371 -2.1691 -1.5190
13432TIP3   OH261710   1.484   2.309   1.600 -0.4594 -0.4894  0.4167
13432TIP3    H161711   1.566   2.260   1.588 -0.5181 -0.9977  1.8288
13432TIP3    H261712   1.488   2.379   1.535 -0.6526 -2.6810 -2.0981
13433TIP3   OH261713   1.277   5.947  15.097  0.4798  0.2242 -0.2748
13433TIP3    H161714   1.345   5.952  15.030 -0.3285  0.2438 -1.1092
13433TIP3    H261715   1.311   6.000  15.169  0.1834  2.4639 -1.7091
13434TIP3   OH261716   2.572   0.482  15.458  0.2332 -0.5236  0.2058
13434TIP3    H161717   2.625   0.503  15.535  1.5963 -2.0880 -0.2686
13434TIP3    H261718   2.578   0.387  15.449 -0.4886 -0.4475 -1.4162
13435TIP3   OH261719   4.556   2.119   0.573 -0.4735 -0.5430 -0.1201
13435TIP3    H161720   4.633   2.168   0.544 -1.4378  0.9896 -0.1814
13435TIP3    H261721   4.482   2.171   0.544 -1.5758 -2.2552 -0.5234
13436TIP3   OH261722   6.604   4.269   5.490  0.1136 -0.2036  0.5889
13436TIP3    H161723   6.697   4.268   5.512  0.4125 -0.5656 -0.6616
13436TIP3    H261724   6.569   4.345   5.537  1.2623  0.5840  0.2009
13437TIP3   OH261725   1.132   5.707  12.545  0.8199 -0.4971 -0.1437
13437TIP3    H161726   1.102   5.737  12.459  1.2094 -2.0418 -0.8507
13437TIP3    H261727   1.225   5.689  12.533  1.7409  2.4404  1.5265
13438TIP3   OH261728   4.181   1.930  12.069 -0.4222 -0.4866 -0.2150
13438TIP3    H161729   4.186   1.865  11.999 -2.4967 -1.2559  0.2660
13438TIP3    H261730   4.268   1.931  12.107  0.6686 -0.3274 -2.5138
13439TIP3   OH261731   6.644   0.498  14.090  0.1343  0.6720  0.5050
13439TIP3    H161732   6.720   0.439  14.091  0.3747  0.9567 -0.3426
13439TIP3    H261733   6.675   0.577  14.134  0.2026  0.6364  0.5215
13440TIP3   OH261734   1.521   6.542  16.843 -0.3706  0.0426 -0.5006
13440TIP3    H161735   1.477   6.490  16.776 -0.5775 -0.6094  0.1231
13440TIP3    H261736   1.607   6.500  16.852 -0.6109 -0.3143  0.1450
13441TIP3   OH261737   0.383   5.190  12.565  0.5125  0.0437 -1.1046
13441TIP3    H161738   0.354   5.098  12.560 -3.5797  1.1378 -1.5781
13441TIP3    H261739   0.410   5.211  12.476 -0.7213 -0.1858 -1.5645
13442TIP3   OH261740   4.633   4.641  12.220 -0.0427  0.3284  0.2401
13442TIP3    H161741   4.631   4.590  12.140  0.1155 -0.0573  0.4815
13442TIP3    H261742   4.654   4.730  12.191  1.1273 -0.0229 -0.0343
13443TIP3   OH261743   2.631   2.586  15.420  0.2554  0.8575  0.8338
13443TIP3    H161744   2.557   2.590  15.359 -1.6959 -0.7187  2.9267
13443TIP3    H261745   2.636   2.673  15.458 -1.9952  0.4732  2.1917
13444TIP3   OH261746   2.036   4.197   2.493  0.1067 -0.1612  0.0436
13444TIP3    H161747   2.011   4.159   2.577 -0.2043 -1.1000 -0.4589
13444TIP3    H261748   1.962   4.253   2.469 -0.6708 -1.3564 -0.4754
13445TIP3   OH261749   4.653   4.051   5.715  0.4868 -0.6619 -0.8353
13445TIP3    H161750   4.700   4.011   5.642  0.8778 -2.1126  0.1572
13445TIP3    H261751   4.599   3.979   5.750 -0.5413  0.3014 -0.3843
13446TIP3   OH261752   5.261   6.808   5.209 -0.1254 -0.0279 -0.3089
13446TIP3    H161753   5.200   6.856   5.152  0.8058  2.6387  0.7954
13446TIP3    H261754   5.232   6.828   5.298  0.9782 -0.6533  0.2105
13447TIP3   OH261755   3.356   0.434  14.191 -0.3133 -0.0727  0.3445
13447TIP3    H161756   3.363   0.350  14.237 -2.2931  0.0588  1.0060
13447TIP3    H261757   3.396   0.498  14.249 -0.4325 -0.3052  0.6883
13448TIP3   OH261758   2.763   4.170   2.611 -0.6523 -0.3778 -0.1005
13448TIP3    H161759   2.759   4.147   2.704  1.0355  0.6033  0.2668
13448TIP3    H261760   2.678   4.210   2.592 -0.8480 -0.1553  1.1477
13449TIP3   OH261761   3.651   3.063  16.877 -0.0687 -0.1966 -0.2202
13449TIP3    H161762   3.644   3.007  16.954  0.9214 -0.7074 -0.4779
13449TIP3    H261763   3.651   3.152  16.911  0.3591 -0.4191  0.3719
13450TIP3   OH261764   2.647   3.677  13.741  0.3919 -0.3425 -0.9448
13450TIP3    H161765   2.719   3.739  13.749 -0.4535  0.9169 -2.3456
13450TIP3    H261766   2.679   3.596  13.779  1.1873  1.2019  1.9352
13451TIP3   OH261767   4.772   1.061  15.054 -0.6544  0.3614  0.3291
13451TIP3    H161768   4.780   1.156  15.065 -1.9278  0.2885  2.3142
13451TIP3    H261769   4.680   1.042  15.071 -0.6390 -1.1425 -1.0435
13452TIP3   OH261770   6.532   3.051  11.478  0.5365  0.0150  0.2560
13452TIP3    H161771   6.485   3.116  11.530 -1.2499 -0.4913 -0.6353
13452TIP3    H261772   6.475   2.974  11.478  0.3363  0.0449 -2.5414
13453TIP3   OH261773   4.525   2.831  12.049  0.6843  0.2111  0.2562
13453TIP3    H161774   4.531   2.834  11.954 -2.2062  1.7927 -0.0158
13453TIP3    H261775   4.473   2.752  12.067  0.9073  0.1151  0.4780
13454TIP3   OH261776   5.367   6.784   0.011 -0.3624 -0.2873 -0.0925
13454TIP3    H161777   5.361   6.876  -0.014 -0.6763 -0.3492 -0.2530
13454TIP3    H261778   5.291   6.743  -0.031 -1.8643 -0.1126  2.2718
13455TIP3   OH261779   4.359   2.576   4.642 -0.4882 -0.0799 -0.1786
13455TIP3    H161780   4.402   2.643   4.590  3.6348 -1.8715  0.5829
13455TIP3    H261781   4.357   2.611   4.731  1.0775 -0.6257  0.0993
13456TIP3   OH261782   0.543   3.682  14.448  0.0017  0.0503 -0.2716
13456TIP3    H161783   0.501   3.735  14.516 -1.6914  1.7856 -2.4939
13456TIP3    H261784   0.469   3.645  14.399  1.1696 -1.1806 -1.1581
13457TIP3   OH261785   4.357   3.869  15.846 -0.5429  0.1921  0.1897
13457TIP3    H161786   4.329   3.958  15.867 -1.1194  0.1191 -0.2365
13457TIP3    H261787   4.308   3.814  15.907  2.0353  0.3001  2.5810
13458TIP3   OH261788   3.115   2.973  15.400  0.4526 -0.4422  0.4142
13458TIP3    H161789   3.026   2.977  15.435  1.1746 -1.7553  2.6228
13458TIP3    H261790   3.108   2.919  15.321 -0.7923  0.1563  0.0909
13459TIP3   OH261791   2.603   1.286  16.539  0.6445 -0.5654  0.5667
13459TIP3    H161792   2.615   1.256  16.449 -2.1337  0.3482 -0.2209
13459TIP3    H261793   2.648   1.370  16.543  0.0004 -0.1765 -0.2684
13460TIP3   OH261794   0.700   0.457   0.868 -0.4128 -0.6570  0.7960
13460TIP3    H161795   0.711   0.482   0.960  0.5821  0.9953  0.2792
13460TIP3    H261796   0.770   0.394   0.851  0.3304  0.1418  0.8188
13461TIP3   OH261797   3.258   2.364   6.119 -0.1192 -0.5807  0.4285
13461TIP3    H161798   3.258   2.292   6.057  0.0900 -0.9126  0.8150
13461TIP3    H261799   3.245   2.323   6.204  3.0556 -0.5201  1.0485
13462TIP3   OH261800   6.479   3.772   3.296 -0.0588  0.0992  0.4270
13462TIP3    H161801   6.559   3.736   3.259  0.4269  0.1462  1.3910
13462TIP3    H261802   6.508   3.849   3.346 -1.1598  2.4489 -2.3002
13463TIP3   OH261803   2.459   1.717   1.579 -0.4315 -0.0846 -0.0582
13463TIP3    H161804   2.547   1.753   1.568 -1.2103  2.1563  0.4857
13463TIP3    H261805   2.401   1.788   1.549 -2.0934 -0.7373  1.4702
13464TIP3   OH261806   0.911   6.695  12.799 -0.2684 -0.2992  0.1132
13464TIP3    H161807   0.947   6.783  12.801 -0.1857 -0.3321  1.7523
13464TIP3    H261808   0.839   6.699  12.736 -0.1911  0.9119  0.0931
13465TIP3   OH261809   0.290   5.421  11.671 -0.0119  0.1722  0.3404
13465TIP3    H161810   0.382   5.404  11.690 -0.2212 -0.6514  0.6786
13465TIP3    H261811   0.243   5.352  11.718 -0.6953 -0.5092 -1.2727
13466TIP3   OH261812   6.281   0.148   5.613 -0.1452  0.0151 -0.3210
13466TIP3    H161813   6.327   0.152   5.529 -0.2956  1.6019 -0.3583
13466TIP3    H261814   6.297   0.233   5.653 -1.0991 -0.2743  0.7213
13467TIP3   OH261815   1.621   6.775   1.640 -0.0602 -0.1950 -0.6076
13467TIP3    H161816   1.574   6.767   1.723 -1.6097 -0.8737 -1.5037
13467TIP3    H261817   1.572   6.841   1.591  0.5207 -0.1830 -1.1849
13468TIP3   OH261818   0.489   4.568  16.725 -0.0044  0.6402  0.0836
13468TIP3    H161819   0.522   4.478  16.725  0.6520  0.8150  2.0956
13468TIP3    H261820   0.397   4.560  16.701 -0.2003 -0.7038  1.1631
13469TIP3   OH261821   0.230   5.493   0.837  0.2694  0.1570 -1.1650
13469TIP3    H161822   0.311   5.502   0.887 -0.2755  1.0458 -0.4231
13469TIP3    H261823   0.193   5.581   0.835  0.5621  0.2967 -3.6691
13470TIP3   OH261824   3.951   4.055   0.057 -0.5973  0.5827  0.4034
13470TIP3    H161825   4.044   4.071   0.067 -0.0510 -1.0911 -1.3402
13470TIP3    H261826   3.919   4.126   0.001 -0.0033  0.2716 -0.3446
13471TIP3   OH261827   3.885   1.940   1.117  0.0443  0.1665 -0.0842
13471TIP3    H161828   3.806   1.986   1.148  0.3330 -0.5092  1.8275
13471TIP3    H261829   3.863   1.847   1.126  1.3436 -0.0392  1.4149
13472TIP3   OH261830   6.176   6.442  13.125  0.0472  0.0897  0.0213
13472TIP3    H161831   6.095   6.390  13.130  0.3821 -0.3436  1.7329
13472TIP3    H261832   6.147   6.533  13.131 -0.3285 -0.0639  0.5801
13473TIP3   OH261833   1.900   2.004   0.451  0.0015 -0.6804  0.4278
13473TIP3    H161834   1.831   1.986   0.387  0.2431  1.7824 -0.6169
13473TIP3    H261835   1.959   2.065   0.407  0.2002  1.1160  2.9511
13474TIP3   OH261836   5.275   4.966  13.025 -0.9129  0.2609 -0.1431
13474TIP3    H161837   5.223   5.008  12.956  0.1520 -0.9837 -1.8076
13474TIP3    H261838   5.235   4.880  13.035 -0.8736  0.3281  0.5926
13475TIP3   OH261839   3.716   3.764  13.601 -0.0865  0.6022 -0.2062
13475TIP3    H161840   3.646   3.827  13.589  0.0094  0.8106  0.2940
13475TIP3    H261841   3.796   3.815  13.591  0.0463  0.0468 -2.5569
13476TIP3   OH261842   0.187   0.893   0.908 -0.1025  0.3827 -0.4296
13476TIP3    H161843   0.093   0.906   0.924  0.0987  1.6467 -0.1844
13476TIP3    H261844   0.203   0.936   0.824  0.6988  2.2983  0.6602
13477TIP3   OH261845   1.710   3.285   3.436 -0.5352 -0.3088  0.4444
13477TIP3    H161846   1.787   3.300   3.491  0.2675 -1.6504 -0.2596
13477TIP3    H261847   1.743   3.289   3.346 -1.0688 -1.8081  0.1472
13478TIP3   OH261848   5.006   4.901   6.445 -0.3829  0.1199  0.3621
13478TIP3    H161849   5.002   4.844   6.368  1.7599 -0.1973  0.4133
13478TIP3    H261850   4.932   4.875   6.499  0.5643 -2.7243  0.4267
13479TIP3   OH261851   3.019   3.493   2.583  0.0133  0.1411 -0.4152
13479TIP3    H161852   2.971   3.564   2.625  0.3083  0.4247 -0.5568
13479TIP3    H261853   3.106   3.496   2.622  0.5742  0.9837 -1.6830
13480TIP3   OH261854   4.290   2.936  13.438 -0.0359 -0.2578 -0.0820
13480TIP3    H161855   4.307   2.877  13.364 -1.2247 -1.1267  0.3196
13480TIP3    H261856   4.206   2.908  13.473 -0.6994  1.7467  0.0786
13481TIP3   OH261857   4.358   0.152   7.044 -0.2493  0.0988 -0.5517
13481TIP3    H161858   4.390   0.081   7.100 -0.4564  0.5999  0.2036
13481TIP3    H261859   4.410   0.144   6.964  0.6315 -0.1011  0.0290
13482TIP3   OH261860   2.103   0.428  11.863 -0.3493  0.2000  0.4376
13482TIP3    H161861   2.031   0.490  11.877 -1.3755 -0.8432 -0.1014
13482TIP3    H261862   2.127   0.399  11.951 -0.1518  1.0067  0.6653
13483TIP3   OH261863   6.177   6.480   2.534  0.3678  0.3765 -0.0641
13483TIP3    H161864   6.161   6.409   2.596 -0.3700 -0.9057 -1.6455
13483TIP3    H261865   6.114   6.465   2.464  1.2919  1.6493 -1.2150
13484TIP3   OH261866   1.008   3.076  12.440  0.4931  0.3861 -0.1278
13484TIP3    H161867   1.045   3.151  12.391  0.4667 -0.6842 -1.8740
13484TIP3    H261868   1.079   3.012  12.442  0.4815  0.3816  1.2873
13485TIP3   OH261869   1.350   3.143  11.453 -0.1375  0.2047 -0.3170
13485TIP3    H161870   1.348   3.235  11.428  0.0541  0.4773  0.6516
13485TIP3    H261871   1.262   3.124  11.485  0.4246  0.6589  1.5797
13486TIP3   OH261872   5.017   4.451  15.359  0.0707 -0.5069 -0.0454
13486TIP3    H161873   4.958   4.521  15.389 -0.2151 -1.0535  0.7012
13486TIP3    H261874   4.959   4.377  15.340  0.2316 -0.1582 -2.0903
13487TIP3   OH261875   3.159   3.529  11.196 -0.3966  0.2978  0.5022
13487TIP3    H161876   3.243   3.575  11.198 -1.1425  1.8411 -1.0801
13487TIP3    H261877   3.102   3.580  11.254 -0.4487 -0.3896  1.0825
13488TIP3   OH261878   5.271   2.313  13.129 -0.1366 -0.0467  0.0755
13488TIP3    H161879   5.302   2.401  13.110 -0.2503  0.4667  2.0477
13488TIP3    H261880   5.183   2.325  13.163  0.4416 -0.7310  1.9147
13489TIP3   OH261881   5.935   3.084  13.972  0.9504 -0.3389 -0.1694
13489TIP3    H161882   5.993   3.053  13.903  0.3759 -0.6608 -0.5131
13489TIP3    H261883   5.958   3.030  14.048 -0.0394 -1.6468 -0.7601
13490TIP3   OH261884   0.410   4.337   3.496  0.6600  0.1014  0.2553
13490TIP3    H161885   0.496   4.303   3.519  0.4888 -0.9162 -0.5594
13490TIP3    H261886   0.349   4.269   3.523  0.2289  0.1945 -0.4609
13491TIP3   OH261887   2.166   4.305  13.694  0.0239  0.5736  0.4832
13491TIP3    H161888   2.103   4.303  13.622  0.6688 -0.3403 -0.0743
13491TIP3    H261889   2.117   4.271  13.769  0.0463 -0.8932 -0.1285
13492TIP3   OH261890   6.171   2.474   5.062  0.0361 -0.0097 -1.1571
13492TIP3    H161891   6.254   2.440   5.029  1.4349  1.5243  0.5624
13492TIP3    H261892   6.164   2.437   5.150 -0.2131  1.2355 -0.6343
13493TIP3   OH261893   2.652   1.760  13.275  0.4248  0.0831 -0.1751
13493TIP3    H161894   2.589   1.710  13.327  1.1196  0.0936  0.6840
13493TIP3    H261895   2.600   1.792  13.201 -1.3854  2.6065  1.9932
13494TIP3   OH261896   0.634   2.011   2.304  0.0168 -0.4666  0.3519
13494TIP3    H161897   0.719   2.023   2.347 -0.2642 -0.8590  1.0341
13494TIP3    H261898   0.573   2.063   2.356 -0.2882 -0.7717  0.3047
13495TIP3   OH261899   5.818   6.069  16.319  0.3001 -0.3306 -0.3052
13495TIP3    H161900   5.859   6.131  16.380  2.1040  0.9143 -2.6110
13495TIP3    H261901   5.859   5.985  16.340 -0.4048 -0.3189  1.2888
13496TIP3   OH261902   0.390   4.679   5.605 -0.0016  0.5981 -0.3470
13496TIP3    H161903   0.379   4.681   5.701  0.8434 -0.0631 -0.2179
13496TIP3    H261904   0.339   4.603   5.578 -0.3401  0.8578 -0.4356
13497TIP3   OH261905   0.058   0.772   3.258 -0.5012 -0.3487  0.2263
13497TIP3    H161906   0.071   0.816   3.342 -0.3186 -2.0103  1.1188
13497TIP3    H261907   0.073   0.840   3.192  1.1332  0.5878  1.4872
13498TIP3   OH261908   1.256   3.795   3.814  0.1434 -0.1171  0.6519
13498TIP3    H161909   1.344   3.815   3.845 -0.0662  1.3001  0.4015
13498TIP3    H261910   1.209   3.878   3.819 -0.7023 -0.4652 -0.7890
13499TIP3   OH261911   3.933   2.897   0.094  0.1064  0.2746  0.1061
13499TIP3    H161912   3.929   2.907  -0.002 -1.4419 -0.3232  0.0819
13499TIP3    H261913   4.000   2.830   0.108 -2.2527 -2.4974 -0.8572
13500TIP3   OH261914   4.574   5.973   4.500 -0.6286 -0.0972  0.6279
13500TIP3    H161915   4.505   5.916   4.467 -1.1378  1.1483 -0.5522
13500TIP3    H261916   4.650   5.954   4.444 -0.5969 -0.0884  0.6674
13501TIP3   OH261917   3.578   1.053  14.193 -0.4090  0.5517  0.3804
13501TIP3    H161918   3.629   1.134  14.181 -0.5087  0.8383  1.7294
13501TIP3    H261919   3.561   1.049  14.287 -0.9202 -0.7438  0.2538
13502TIP3   OH261920   1.128   4.642   2.529  0.6732  0.4940  0.2367
13502TIP3    H161921   1.221   4.621   2.521  0.4766 -0.0502 -0.8092
13502TIP3    H261922   1.084   4.558   2.517  0.0400  0.7710  0.6123
13503TIP3   OH261923   3.497   6.127   2.437 -0.0479 -0.1624 -0.6715
13503TIP3    H161924   3.460   6.165   2.517 -0.5500 -0.2617 -0.8548
13503TIP3    H261925   3.439   6.054   2.416 -0.0312 -0.0158 -1.2407
13504TIP3   OH261926   2.809   1.363   1.057 -0.0725  0.0298 -0.2094
13504TIP3    H161927   2.767   1.326   0.979  1.5520  2.0000 -2.1499
13504TIP3    H261928   2.736   1.385   1.115 -1.3186 -1.6457 -1.0588
13505TIP3   OH261929   2.034   2.650  11.187 -0.4782 -0.3089  0.0917
13505TIP3    H161930   1.991   2.586  11.244 -0.0410 -0.6842  0.0073
13505TIP3    H261931   2.050   2.602  11.105 -0.7936  0.1238 -0.2275
13506TIP3   OH261932   6.766   4.553  15.289 -0.5016 -0.5005 -0.7587
13506TIP3    H161933   6.752   4.499  15.367  2.8401  0.1424  0.4434
13506TIP3    H261934   6.737   4.640  15.314 -1.2825 -0.6950 -0.9629
13507TIP3   OH261935   1.487   1.359  12.448 -0.8082  0.0489  0.5811
13507TIP3    H161936   1.582   1.349  12.437 -0.6901 -0.1435  1.6903
13507TIP3    H261937   1.453   1.367  12.358  0.2612  0.2164  0.1796
13508TIP3   OH261938   2.431   6.050   5.640  0.4887  0.0277 -0.0449
13508TIP3    H161939   2.428   6.008   5.726  0.2202  2.1598  1.0539
13508TIP3    H261940   2.340   6.053   5.612  0.6370 -1.2308 -0.7369
13509TIP3   OH261941   4.276   0.588  13.097  0.0665  0.1154 -0.3325
13509TIP3    H161942   4.269   0.535  13.017 -0.4399  0.6000 -0.6104
13509TIP3    H261943   4.188   0.584  13.136  0.1462  0.3919 -0.1231
13510TIP3   OH261944   3.803   2.257   0.834  0.3656 -0.0268  0.2782
13510TIP3    H161945   3.886   2.227   0.871  0.2764 -1.4082 -0.5525
13510TIP3    H261946   3.804   2.225   0.743 -0.5151  1.0519 -0.1302
13511TIP3   OH261947   5.764   0.476  13.525 -0.0572  0.1311 -0.2303
13511TIP3    H161948   5.740   0.568  13.511 -1.7636  0.5101  3.7800
13511TIP3    H261949   5.822   0.478  13.601  0.7185 -2.0816 -0.6818
13512TIP3   OH261950   4.064   3.265  11.830 -0.3606  0.0860  0.0197
13512TIP3    H161951   4.135   3.232  11.775  0.7525  0.7541  1.0026
13512TIP3    H261952   4.097   3.256  11.920  0.1702  3.9228  0.4029
13513TIP3   OH261953   4.905   6.155   2.941 -0.2489 -0.8270  0.2444
13513TIP3    H161954   4.962   6.158   3.017 -0.5057 -0.1139  0.4252
13513TIP3    H261955   4.930   6.076   2.894  1.6368  0.0168 -0.2716
13514TIP3   OH261956   6.719   4.457   5.239  0.0462 -0.1453  0.0226
13514TIP3    H161957   6.671   4.391   5.289  0.9453 -0.5847  0.3306
13514TIP3    H261958   6.654   4.496   5.182 -0.4160 -1.6193 -0.4927
13515TIP3   OH261959   0.770   5.779   2.805  0.1483 -0.2766  0.4713
13515TIP3    H161960   0.686   5.794   2.850 -1.5085 -2.5857 -1.6061
13515TIP3    H261961   0.805   5.700   2.847  0.3117 -0.4360  0.0308
13516TIP3   OH261962   1.914   4.882  14.796  0.3261  0.1812  0.1486
13516TIP3    H161963   1.948   4.948  14.857 -0.5517 -0.8706  1.8583
13516TIP3    H261964   1.824   4.866  14.826  0.0435 -0.7616 -1.1208
13517TIP3   OH261965   0.542   2.914  11.826 -0.5310 -0.8585  0.0744
13517TIP3    H161966   0.619   2.863  11.800  0.8526 -1.0532  3.8777
13517TIP3    H261967   0.479   2.848  11.855 -0.8628 -0.5749 -0.0050
13518TIP3   OH261968   3.027   1.905  11.045 -0.2206  0.0297 -0.2180
13518TIP3    H161969   3.057   1.898  11.135 -1.3453 -0.6056  0.1259
13518TIP3    H261970   3.097   1.865  10.993  0.4259  0.3858  0.3573
13519TIP3   OH261971   4.589   1.880  15.631 -0.2452  0.5549 -0.6266
13519TIP3    H161972   4.520   1.926  15.584  0.9382  1.7572 -1.2376
13519TIP3    H261973   4.631   1.947  15.685 -1.7399 -0.8094  2.5205
13520TIP3   OH261974   5.426   5.866  15.493  0.2884 -0.5942  0.1702
13520TIP3    H161975   5.428   5.958  15.468  0.6490 -0.8191 -0.6267
13520TIP3    H261976   5.410   5.868  15.588 -2.4706  0.2272 -0.2367
13521TIP3   OH261977   5.180   5.090  13.719  0.5930 -0.0713 -0.3939
13521TIP3    H161978   5.124   5.159  13.683 -1.4422 -1.8553 -0.8618
13521TIP3    H261979   5.250   5.080  13.655  0.1346  0.6155 -1.0188
13522TIP3   OH261980   1.032   0.871   5.313  0.0355  0.0745 -0.0165
13522TIP3    H161981   1.028   0.800   5.377 -1.2325  0.9241  0.9045
13522TIP3    H261982   0.943   0.905   5.310  0.7985  2.2253  0.2730
13523TIP3   OH261983   6.636   0.496  16.965  0.0663 -0.2525 -0.0450
13523TIP3    H161984   6.628   0.401  16.972  0.5824 -0.3228 -0.3428
13523TIP3    H261985   6.590   0.530  17.042  0.2758 -0.7610  0.3112
13524TIP3   OH261986   1.604   5.462   2.921 -0.1394  0.7410  0.0551
13524TIP3    H161987   1.562   5.543   2.950  3.1164  2.4094  0.5538
13524TIP3    H261988   1.565   5.444   2.836  0.1565  3.8028 -0.8399
13525TIP3   OH261989   0.910   5.172   4.099  0.6704  0.1236 -0.3560
13525TIP3    H161990   0.972   5.100   4.088  1.1448  0.5988 -0.9262
13525TIP3    H261991   0.924   5.203   4.188  0.3885 -0.5579 -0.0754
13526TIP3   OH261992   5.582   1.172  14.719  0.1611  0.4355 -0.0956
13526TIP3    H161993   5.565   1.091  14.766 -0.6671  1.3313  1.2085
13526TIP3    H261994   5.677   1.182  14.723  0.2254 -0.2228  0.1331
13527TIP3   OH261995   6.500   5.622   0.137  0.3467  0.5567 -0.0102
13527TIP3    H161996   6.409   5.649   0.133  0.4646  0.7999 -1.1182
13527TIP3    H261997   6.497   5.531   0.169 -0.3375  0.2581 -0.9034
13528TIP3   OH261998   2.653   5.667   2.299  0.0004  0.3006 -0.3073
13528TIP3    H161999   2.682   5.747   2.256  1.6259 -0.4438 -0.6604
13528TIP3    H262000   2.729   5.609   2.298 -0.2693 -0.2722  2.3692
13529TIP3   OH262001   2.185   5.935  10.501 -0.1989  0.3173  0.3075
13529TIP3    H162002   2.225   5.876  10.566 -0.5820  0.2377  0.4783
13529TIP3    H262003   2.148   5.876  10.436  0.3783  0.4032 -0.1068
13530TIP3   OH262004   5.832   5.636  15.045 -0.1469 -0.0057 -0.4419
13530TIP3    H162005   5.809   5.563  15.101 -1.3042 -0.3226 -1.2850
13530TIP3    H262006   5.902   5.602  14.989 -0.5504 -0.4154 -0.7042
13531TIP3   OH262007   4.719   0.406   6.336  0.2504  0.6614 -0.3649
13531TIP3    H162008   4.756   0.320   6.357  0.5638  0.7247 -0.6459
13531TIP3    H262009   4.634   0.407   6.379  1.2575  1.1636  1.7538
13532TIP3   OH262010   6.639   2.096   4.513  0.0485  0.1052  0.2893
13532TIP3    H162011   6.649   2.155   4.439 -0.9232  1.3738  1.1169
13532TIP3    H262012   6.728   2.070   4.535  0.3193 -0.6461 -1.5722
13533TIP3   OH262013   2.196   2.478   2.978  0.6146 -0.4425  0.0110
13533TIP3    H162014   2.203   2.402   2.920  0.8334 -0.9663  0.7129
13533TIP3    H262015   2.106   2.474   3.012  0.4760 -0.1178 -0.3098
13534TIP3   OH262016   1.421   1.292   4.838  0.3471  0.1317  0.0244
13534TIP3    H162017   1.497   1.348   4.827  0.1711  0.3297 -0.1923
13534TIP3    H262018   1.414   1.279   4.932  0.9901 -0.3631  0.0118
13535TIP3   OH262019   0.963   4.578   4.545 -0.0836  0.3110  0.3909
13535TIP3    H162020   0.953   4.488   4.514 -0.4679  0.8153 -1.0606
13535TIP3    H262021   0.882   4.596   4.593  0.5343 -0.5046  1.7718
13536TIP3   OH262022   6.674   3.883  17.022  0.4590  0.1940 -0.1384
13536TIP3    H162023   6.672   3.839  17.106 -3.2411  1.1471  0.4473
13536TIP3    H262024   6.667   3.812  16.957  2.5326 -0.4833  0.3183
13537TIP3   OH262025   5.688   6.026   6.522 -0.0505 -0.1374 -0.0383
13537TIP3    H162026   5.765   5.997   6.571 -0.7350  0.1039  1.2311
13537TIP3    H262027   5.678   5.961   6.452  2.6314  1.0998 -1.7228
13538TIP3   OH262028   2.435   5.614  16.412  0.0813 -0.6247 -0.1932
13538TIP3    H162029   2.409   5.704  16.393  1.8549  0.7997  3.2446
13538TIP3    H262030   2.368   5.581  16.471  0.6479 -0.6691  0.4428
13539TIP3   OH262031   5.728   5.143  10.882 -0.7305  0.1835 -0.3183
13539TIP3    H162032   5.701   5.234  10.868 -0.7268  0.3218  0.4950
13539TIP3    H262033   5.668   5.111  10.949 -0.4372 -0.2762 -0.2728
13540TIP3   OH262034   3.051   3.149  16.971  0.2399  0.4185 -0.1540
13540TIP3    H162035   2.988   3.100  17.023 -0.5435 -0.0213 -1.4635
13540TIP3    H262036   3.077   3.222  17.027 -1.6313  0.7661  0.3312
13541TIP3   OH262037   2.214   2.065  14.404 -0.8926 -0.0158 -0.5746
13541TIP3    H162038   2.258   2.113  14.475  0.8285 -0.0754 -1.5348
13541TIP3    H262039   2.193   2.133  14.340 -2.6125  0.0650  0.0263
13542TIP3   OH262040   6.287   6.770   0.586  0.0457 -0.2369  0.1823
13542TIP3    H162041   6.365   6.763   0.641  0.6378 -2.6929 -0.8595
13542TIP3    H262042   6.214   6.757   0.646  0.6192 -1.4136  0.6511
13543TIP3   OH262043   3.591   2.699   0.813  0.7488  0.0735  0.2987
13543TIP3    H162044   3.595   2.612   0.774 -1.7915  0.0325 -0.0305
13543TIP3    H262045   3.546   2.686   0.896  0.3507  1.0624  0.2507
13544TIP3   OH262046   4.085   0.976   2.208  0.1053  0.0669 -0.0600
13544TIP3    H162047   4.155   0.914   2.228  0.3886  0.1253 -0.8318
13544TIP3    H262048   4.083   1.036   2.282 -0.7371 -1.3550  1.1241
13545TIP3   OH262049   3.641   3.984   1.755 -0.2780 -0.4471  0.1972
13545TIP3    H162050   3.594   3.987   1.839 -0.6549 -1.0925  0.0187
13545TIP3    H262051   3.716   3.928   1.772 -0.7635 -1.1942 -0.0887
13546TIP3   OH262052   0.170   0.664  12.825 -0.0641  0.2401  0.0296
13546TIP3    H162053   0.198   0.580  12.863 -0.7419 -1.5911 -3.1494
13546TIP3    H262054   0.245   0.691  12.771  0.1353  1.7440  1.0071
13547TIP3   OH262055   5.478   2.274  11.940  0.0987 -0.0753 -0.0382
13547TIP3    H162056   5.475   2.181  11.921 -0.2266  0.1904 -1.3809
13547TIP3    H262057   5.442   2.282  12.028 -0.9683 -1.1012 -0.3594
13548TIP3   OH262058   4.013   3.468   0.965  0.4805 -0.1726  0.0271
13548TIP3    H162059   3.970   3.453   0.880 -0.5917  0.6381  0.4053
13548TIP3    H262060   3.944   3.504   1.020  1.3421 -0.0689  1.0607
13549TIP3   OH262061   5.797   2.427  16.840 -0.2557  0.0566 -0.0727
13549TIP3    H162062   5.859   2.385  16.900  1.3283  1.3786 -0.7067
13549TIP3    H262063   5.761   2.355  16.788 -1.7642 -1.1680  2.4193
13550TIP3   OH262064   2.481   5.896  14.033 -0.0220  0.9752 -0.5352
13550TIP3    H162065   2.502   5.917  14.124 -0.0760 -0.9081 -0.0472
13550TIP3    H262066   2.457   5.803  14.035 -0.9818  1.1514 -2.3194
13551TIP3   OH262067   3.552   2.818   1.512  0.5450  0.2612 -0.9365
13551TIP3    H162068   3.500   2.793   1.436 -0.9148  0.5084 -0.0493
13551TIP3    H262069   3.548   2.743   1.571 -1.9037  1.5531  0.7102
13552TIP3   OH262070   5.574   6.129   1.303 -0.4443  0.1941  0.4341
13552TIP3    H162071   5.501   6.104   1.247 -0.9503  0.3557  1.0065
13552TIP3    H262072   5.648   6.139   1.243 -1.1681  1.2218 -0.3354
13553TIP3   OH262073   2.854   2.095   1.888  0.2008  0.0817  0.6416
13553TIP3    H162074   2.946   2.084   1.863  0.1449  1.5250 -0.3647
13553TIP3    H262075   2.836   2.022   1.946  1.2630 -1.7260 -1.1564
13554TIP3   OH262076   5.913   3.968   5.597 -0.0909  0.0317 -0.1166
13554TIP3    H162077   5.935   3.904   5.529  1.5160  0.3075  0.0949
13554TIP3    H262078   5.818   3.978   5.591 -0.0335 -0.1156 -2.1794
13555TIP3   OH262079   6.239   1.930   2.664 -0.0285 -0.0704  0.7874
13555TIP3    H162080   6.253   1.856   2.722  2.6077  0.0339  0.4219
13555TIP3    H262081   6.222   1.891   2.578 -1.0976 -0.2222  1.0586
13556TIP3   OH262082   4.648   4.668   3.879 -0.2253  0.1828  0.2107
13556TIP3    H162083   4.650   4.722   3.800  1.3728  3.1031  2.0579
13556TIP3    H262084   4.607   4.725   3.945  0.3527 -1.3605  1.9689
13557TIP3   OH262085   0.579   3.906   4.989  0.0482  0.1962 -0.1955
13557TIP3    H162086   0.667   3.940   4.970 -0.6557  2.1202 -0.3123
13557TIP3    H262087   0.543   3.884   4.903 -0.2569  1.2933 -0.3723
13558TIP3   OH262088   2.053   6.466   4.700 -0.1053 -0.0866  0.1708
13558TIP3    H162089   2.007   6.425   4.627 -1.2950  0.5176  0.5525
13558TIP3    H262090   2.048   6.560   4.682  0.9713  0.0049  0.2477
13559TIP3   OH262091   5.348   6.777   1.164 -0.1328 -0.2359 -0.5347
13559TIP3    H162092   5.284   6.768   1.235  0.4972  0.2081  0.0974
13559TIP3    H262093   5.306   6.736   1.088 -0.6301 -1.1114  0.2060
13560TIP3   OH262094   4.736   3.057  14.042  0.5506  0.2506  0.1504
13560TIP3    H162095   4.697   3.108  13.971  1.3066 -0.9938 -1.2129
13560TIP3    H262096   4.767   2.977  14.000 -1.6108 -1.9460  2.3418
13561TIP3   OH262097   2.417   6.621  16.668  0.2502  0.2886  0.1723
13561TIP3    H162098   2.409   6.552  16.603 -1.0269 -0.6232  1.2490
13561TIP3    H262099   2.330   6.661  16.672 -0.0697 -0.4988  2.1808
13562TIP3   OH262100   0.309   0.279  10.956  0.0480 -0.1355  0.2533
13562TIP3    H162101   0.218   0.273  10.926 -0.2001 -1.1323  1.1560
13562TIP3    H262102   0.318   0.369  10.988 -1.1612 -0.5310  1.8050
13563TIP3   OH262103   5.937   0.306  15.289 -0.3767  0.0348 -0.1189
13563TIP3    H162104   5.938   0.290  15.194  1.2954  0.9534 -0.3012
13563TIP3    H262105   5.994   0.382  15.301 -0.0525 -0.4463  1.6924
13564TIP3   OH262106   2.505   1.377   6.450  0.5735 -0.7259  0.1360
13564TIP3    H162107   2.423   1.393   6.403 -0.5813 -2.3878  1.4560
13564TIP3    H262108   2.510   1.282   6.457  2.5283 -0.6484  0.2982
13565TIP3   OH262109   1.046   0.512   6.374  0.1825  0.4126 -0.1892
13565TIP3    H162110   0.976   0.498   6.310  1.6263  1.1100 -2.0267
13565TIP3    H262111   1.095   0.429   6.373  2.6753  1.6915 -3.3210
13566TIP3   OH262112   3.690   4.644   4.289 -0.2431  0.1598 -0.0995
13566TIP3    H162113   3.677   4.683   4.375  0.6586 -0.0155  0.1269
13566TIP3    H262114   3.608   4.597   4.271 -0.1284 -0.5110  1.0351
13567TIP3   OH262115   0.548   2.580   2.377  0.1383 -0.0228  0.0288
13567TIP3    H162116   0.507   2.666   2.378 -0.8495 -0.4638  1.4363
13567TIP3    H262117   0.501   2.531   2.310 -0.1278  0.1608  0.0805
13568TIP3   OH262118   2.852   1.576  14.964 -0.3121 -0.8471  0.0017
13568TIP3    H162119   2.822   1.503  14.909 -0.4631 -1.2987  0.6741
13568TIP3    H262120   2.914   1.536  15.025 -0.1282 -0.3423  0.1450
13569TIP3   OH262121   1.631   1.497  10.773 -0.3254 -0.4181 -0.4431
13569TIP3    H162122   1.591   1.566  10.720 -1.0294 -0.4572  0.0242
13569TIP3    H262123   1.621   1.417  10.721 -1.4215 -0.5393 -0.0784
13570TIP3   OH262124   2.747   1.770   1.861  0.1125  0.2029  0.2744
13570TIP3    H162125   2.651   1.780   1.862  0.0268 -0.2515 -1.5349
13570TIP3    H262126   2.775   1.812   1.943 -1.7583 -1.2925  1.7894
13571TIP3   OH262127   3.135   3.064  13.315 -0.4745  0.1711 -0.3096
13571TIP3    H162128   3.073   2.993  13.297 -0.2608 -0.4125  1.1424
13571TIP3    H262129   3.080   3.142  13.322 -0.9722 -0.2087  0.1754
13572TIP3   OH262130   3.796   2.379  17.020 -0.4274  0.0603 -0.1484
13572TIP3    H162131   3.872   2.329  17.049  0.0046  0.7351 -0.0825
13572TIP3    H262132   3.721   2.323  17.038 -0.1800  0.4233  2.2439
13573TIP3   OH262133   1.088   6.693   0.210 -0.3500  0.0397 -0.3959
13573TIP3    H162134   1.004   6.692   0.255  0.0033 -1.1988  0.3005
13573TIP3    H262135   1.086   6.771   0.155 -2.4122 -0.6069 -1.3024
13574TIP3   OH262136   2.781   2.487   0.529  0.4504 -0.2326 -0.0947
13574TIP3    H162137   2.869   2.494   0.567 -0.7841  0.0871  3.0264
13574TIP3    H262138   2.742   2.573   0.543 -0.7032 -0.6867 -0.4301
13575TIP3   OH262139   1.958   2.921  14.084  0.5060  0.0203  0.2466
13575TIP3    H162140   2.034   2.977  14.103 -1.0268  2.8143 -1.2260
13575TIP3    H262141   1.996   2.840  14.052  2.8790  0.8189  0.8140
13576TIP3   OH262142   5.196   5.074   3.935 -0.2978  0.3255  0.0807
13576TIP3    H162143   5.252   5.018   3.881 -1.2426 -0.2200 -0.3823
13576TIP3    H262144   5.236   5.072   4.022  1.5250  1.6032 -0.6681
13577TIP3   OH262145   2.765   3.341  14.754  0.1569 -0.0903 -0.1541
13577TIP3    H162146   2.807   3.312  14.673 -0.1832 -1.5409  0.1431
13577TIP3    H262147   2.783   3.270  14.816 -1.3211  0.0172  0.4393
13578TIP3   OH262148   1.217   4.395  12.098 -0.2114 -0.3543  0.0517
13578TIP3    H162149   1.310   4.373  12.106 -0.0607  0.4836  0.7392
13578TIP3    H262150   1.216   4.490  12.086 -1.0649 -0.0078  2.3131
13579TIP3   OH262151   4.177   3.579   3.286  0.5596 -0.0986 -0.1681
13579TIP3    H162152   4.213   3.654   3.239 -1.1268  1.4420  0.8834
13579TIP3    H262153   4.094   3.610   3.322  0.4160 -2.0731  1.3973
13580TIP3   OH262154   2.049   2.619   2.706 -0.1176  0.4053  0.5644
13580TIP3    H162155   2.086   2.700   2.669  0.8741 -0.7792 -1.1819
13580TIP3    H262156   1.972   2.648   2.755 -0.4421  2.3145 -0.9471
13581TIP3   OH262157   2.088   6.236  16.550 -0.5083  0.2034  0.5165
13581TIP3    H162158   2.177   6.220  16.520 -0.6636  0.7903 -0.3111
13581TIP3    H262159   2.037   6.246  16.469 -1.2330  0.3190  0.9790
13582TIP3   OH262160   0.428   1.849   4.351 -0.1703 -0.1109  0.0274
13582TIP3    H162161   0.493   1.779   4.355 -0.3149 -0.2204  0.6119
13582TIP3    H262162   0.478   1.927   4.330 -0.1844 -0.6008 -1.9984
13583TIP3   OH262163   4.940   1.385  15.911 -0.2302 -0.4235  0.5945
13583TIP3    H162164   4.859   1.391  15.861  0.5756  0.8619 -0.6102
13583TIP3    H262165   4.954   1.473  15.945  1.3452 -0.2716 -0.3614
13584TIP3   OH262166   4.333   5.721  16.842  0.0464  0.1789  0.5324
13584TIP3    H162167   4.386   5.759  16.772  0.5445  0.3437  0.9958
13584TIP3    H262168   4.318   5.793  16.903 -4.1792  1.3305 -1.5085
13585TIP3   OH262169   5.876   4.435   0.243 -0.5451  0.5864 -0.0160
13585TIP3    H162170   5.961   4.458   0.205 -0.4262 -0.6775 -0.5330
13585TIP3    H262171   5.897   4.400   0.329 -0.6572  1.4759  0.3866
13586TIP3   OH262172   6.177   0.869  12.808 -0.0033 -0.0721 -0.3937
13586TIP3    H162173   6.257   0.903  12.766  0.3549 -1.4303 -0.8607
13586TIP3    H262174   6.198   0.865  12.901  0.2521  0.1637 -0.4403
13587TIP3   OH262175   1.046   4.177  12.207 -0.2355  0.5221 -0.2396
13587TIP3    H162176   1.105   4.247  12.177 -0.1328  1.1768  1.4121
13587TIP3    H262177   0.958   4.210  12.188 -0.1521  0.6720 -0.3723
13588TIP3   OH262178   1.725   1.640   2.296 -0.0007  0.5177 -0.1728
13588TIP3    H162179   1.794   1.604   2.239  0.4931  1.9351 -0.5009
13588TIP3    H262180   1.658   1.671   2.235  0.4005  1.7855  0.0228
13589TIP3   OH262181   3.118   4.916  13.155  0.4588  0.0431  0.0804
13589TIP3    H162182   3.081   4.881  13.074 -1.3918  0.1457  0.8351
13589TIP3    H262183   3.122   5.011  13.141 -1.0496  0.1988  0.5230
13590TIP3   OH262184   4.424   5.800   4.385 -0.0269  0.3098  0.0253
13590TIP3    H162185   4.462   5.780   4.299  1.3321  1.9749  0.1771
13590TIP3    H262186   4.424   5.717   4.431  0.5441 -0.3398 -1.1011
13591TIP3   OH262187   5.111   6.196   1.504 -0.2901 -0.3312 -0.4820
13591TIP3    H162188   5.077   6.210   1.593 -1.1368  1.7972 -1.0874
13591TIP3    H262189   5.206   6.209   1.513 -0.6495  3.0237 -0.3422
13592TIP3   OH262190   1.988   5.638   5.690  0.3847 -0.3249  0.3943
13592TIP3    H162191   1.975   5.554   5.734 -0.3446 -0.5909 -0.2974
13592TIP3    H262192   2.081   5.638   5.666 -0.0014 -1.8571 -1.3733
13593TIP3   OH262193   3.232   5.057  11.414 -0.3556  0.6093  0.0704
13593TIP3    H162194   3.187   5.068  11.497  1.9660  1.7596  1.2813
13593TIP3    H262195   3.242   5.146  11.380 -1.4995  0.1492 -1.6450
13594TIP3   OH262196   0.898   6.359   5.886 -0.2093 -0.3463  0.2959
13594TIP3    H162197   0.966   6.355   5.954 -2.2983 -0.8040  2.4734
13594TIP3    H262198   0.934   6.308   5.814  1.5217 -1.0819  1.5988
13595TIP3   OH262199   5.872   0.464  14.966  0.4951  0.0499  0.1693
13595TIP3    H162200   5.965   0.441  14.980  0.5119 -0.1313 -0.2403
13595TIP3    H262201   5.863   0.550  15.006  1.0363  0.4244 -0.4949
13596TIP3   OH262202   5.182   3.098   5.468  0.0422 -0.6368  0.0752
13596TIP3    H162203   5.273   3.118   5.489  0.0953 -0.6807 -0.1168
13596TIP3    H262204   5.154   3.037   5.536  1.2335 -3.5289 -1.8550
13597TIP3   OH262205   2.992   4.221  13.596  0.7257  0.0763 -0.4397
13597TIP3    H162206   3.033   4.266  13.521 -0.8122  1.5585 -0.4360
13597TIP3    H262207   2.926   4.165  13.556  0.1994  0.5414 -0.2237
13598TIP3   OH262208   2.293   4.292   0.046 -0.0145 -0.0291  0.0240
13598TIP3    H162209   2.257   4.343  -0.026 -0.7028 -1.0946 -0.4067
13598TIP3    H262210   2.371   4.341   0.073 -1.2398  1.8352  0.3687
13599TIP3   OH262211   1.573   1.158   2.216  0.0865 -0.2536 -0.6626
13599TIP3    H162212   1.545   1.249   2.200  1.2852  0.3749  0.5698
13599TIP3    H262213   1.611   1.129   2.134 -1.9695 -0.3291 -1.6645
13600TIP3   OH262214   0.365   6.537   6.306  1.1434 -0.3228  0.1531
13600TIP3    H162215   0.421   6.596   6.356 -0.5684 -0.9151  2.9552
13600TIP3    H262216   0.285   6.587   6.291  0.9898 -0.7645 -0.5656
13601TIP3   OH262217   4.270   6.325  12.079 -0.5078 -0.3006 -0.0489
13601TIP3    H162218   4.327   6.277  12.140  0.3519  0.1559 -0.4690
13601TIP3    H262219   4.184   6.324  12.121  0.0903  0.1082  1.2505
13602TIP3   OH262220   5.245   4.069  14.255  0.1366 -0.0921 -0.2098
13602TIP3    H162221   5.172   4.125  14.281  0.1936  1.1404 -2.5065
13602TIP3    H262222   5.248   4.002  14.324 -2.7551  0.1473  0.3140
13603TIP3   OH262223   0.613   5.914   1.848  0.0399  0.1391 -0.4206
13603TIP3    H162224   0.687   5.864   1.882 -0.2151 -0.3662 -0.5970
13603TIP3    H262225   0.621   6.000   1.889 -1.7118 -1.1688  3.1255
13604TIP3   OH262226   3.627   0.687  15.051  0.2690  0.8961  0.5186
13604TIP3    H162227   3.707   0.734  15.078 -0.3049  1.8697  0.5807
13604TIP3    H262228   3.557   0.731  15.099 -0.1960 -0.6630  1.3127
13605TIP3   OH262229   4.360   1.279   2.305 -0.4701  0.2171  0.0270
13605TIP3    H162230   4.390   1.194   2.336  0.0711  0.2642 -0.3612
13605TIP3    H262231   4.272   1.288   2.342  0.1882  0.3198  1.6842
13606TIP3   OH262232   3.950   5.952   2.987 -0.0462  0.2542 -0.0988
13606TIP3    H162233   3.871   5.898   2.987  0.1644 -0.0974 -1.5342
13606TIP3    H262234   4.016   5.897   2.946  1.2017  0.2442  1.7732
13607TIP3   OH262235   6.661   2.276  16.639  0.0140 -0.3135  0.3892
13607TIP3    H162236   6.682   2.289  16.546 -0.4663  0.3157  0.3612
13607TIP3    H262237   6.705   2.349  16.683  2.6268 -2.1100  1.0291
13608TIP3   OH262238   6.642   4.070  13.721 -0.1707  0.3028  0.1313
13608TIP3    H162239   6.668   4.125  13.647  2.4154 -0.3142  0.5019
13608TIP3    H262240   6.630   3.983  13.683  0.0159  0.2254  0.2509
13609TIP3   OH262241   6.572   5.768  14.818 -0.0485  0.0882 -0.0725
13609TIP3    H162242   6.573   5.706  14.890  0.7369 -0.4797 -0.5602
13609TIP3    H262243   6.616   5.723  14.746 -1.1275  0.5092 -1.0333
13610TIP3   OH262244   0.461   1.259   5.367  0.0167 -0.7275 -0.7101
13610TIP3    H162245   0.393   1.326   5.373  1.0464  0.4344 -1.4701
13610TIP3    H262246   0.478   1.234   5.458  0.4935  0.9843 -0.2847
13611TIP3   OH262247   0.340   1.571   1.259  0.2414  0.1417 -0.4372
13611TIP3    H162248   0.262   1.520   1.238 -0.1187  0.5291 -0.0779
13611TIP3    H262249   0.413   1.518   1.228 -0.1741 -0.1471 -0.9382
13612TIP3   OH262250   0.376   2.363  11.509  0.1160 -0.0297  0.9262
13612TIP3    H162251   0.422   2.282  11.531  0.5245  0.0722  0.4626
13612TIP3    H262252   0.350   2.400  11.593 -1.5977 -1.5155  1.0905
13613TIP3   OH262253   3.095   6.494  11.404 -0.6311 -0.8348 -0.5199
13613TIP3    H162254   3.135   6.460  11.485 -0.6247 -1.1814 -0.6681
13613TIP3    H262255   3.068   6.416  11.356 -2.5011 -0.5933  0.0679
13614TIP3   OH262256   3.484   2.107  12.805 -0.5806  0.2758 -0.1650
13614TIP3    H162257   3.540   2.083  12.732  0.5442  0.5511  0.5709
13614TIP3    H262258   3.481   2.203  12.802  1.4294  0.4820  1.4604
13615TIP3   OH262259   1.576   6.799  16.916  0.3601  0.5181  0.0409
13615TIP3    H162260   1.543   6.709  16.909 -2.3087  1.3707  0.4805
13615TIP3    H262261   1.597   6.809  17.009 -1.0302  0.8414  0.3426
13616TIP3   OH262262   1.433   1.564   0.001 -0.3001 -0.3931  0.0458
13616TIP3    H162263   1.512   1.614   0.022 -0.9260  0.1821  1.1474
13616TIP3    H262264   1.465   1.479  -0.029  0.7269 -0.7045  1.8744
13617TIP3   OH262265   6.208   6.326   2.757 -0.6023  0.2817 -0.4076
13617TIP3    H162266   6.263   6.266   2.707 -0.4203  0.0500  0.0701
13617TIP3    H262267   6.267   6.365   2.821 -1.0202 -0.0658  0.1958
13618TIP3   OH262268   4.941   5.292   5.993 -0.0450  0.1613  0.3002
13618TIP3    H162269   4.957   5.377   5.952  0.5516 -0.5212 -0.9153
13618TIP3    H262270   4.977   5.301   6.081 -0.0509  1.1913  0.2091
13619TIP3   OH262271   2.169   1.068  15.620 -0.3582  0.1019 -0.0056
13619TIP3    H162272   2.139   0.978  15.625  0.5000 -0.1369  1.8483
13619TIP3    H262273   2.159   1.102  15.709  2.8532  0.5930  0.3051
13620TIP3   OH262274   4.214   4.065  12.403 -0.0726 -0.1714  0.3176
13620TIP3    H162275   4.177   4.133  12.459 -0.6417 -0.6894  0.5822
13620TIP3    H262276   4.232   3.993  12.463 -1.0674 -0.8824 -0.2042
13621TIP3   OH262277   1.767   1.126   3.441 -0.3726  0.4304 -0.5959
13621TIP3    H162278   1.720   1.046   3.417 -1.2725  0.9097 -0.5035
13621TIP3    H262279   1.783   1.117   3.535  0.6363 -0.1864 -0.8172
13622TIP3   OH262280   0.413   3.467   4.693  0.8719  0.3037  0.4288
13622TIP3    H162281   0.405   3.523   4.616  2.6509  0.8059  0.5749
13622TIP3    H262282   0.350   3.397   4.678 -0.7224  1.7984 -0.2149
13623TIP3   OH262283   1.948   4.762  16.833 -0.4597  0.1726  0.0857
13623TIP3    H162284   1.996   4.834  16.793 -0.3357 -0.9830 -2.0023
13623TIP3    H262285   1.884   4.804  16.891  0.0671  1.9056 -0.5383
13624TIP3   OH262286   3.417   0.064  16.123 -0.1996  0.3318 -0.0032
13624TIP3    H162287   3.414  -0.021  16.168 -0.1900  1.0393  1.4054
13624TIP3    H262288   3.326   0.092  16.119 -0.0997  0.7654  0.5924
13625TIP3   OH262289   2.580   2.087  16.126 -0.1633  0.1213 -0.1116
13625TIP3    H162290   2.608   2.002  16.160  2.8374 -0.3019 -3.0517
13625TIP3    H262291   2.565   2.071  16.033 -1.4939  2.4466 -0.3639
13626TIP3   OH262292   4.504   6.391  14.905  0.3835  0.1416  0.3306
13626TIP3    H162293   4.453   6.428  14.833  1.0186 -0.9478 -0.7174
13626TIP3    H262294   4.520   6.465  14.963  0.6704  1.2850 -1.1326
13627TIP3   OH262295   1.551   0.897   5.403 -0.1938  0.3041  0.1474
13627TIP3    H162296   1.543   0.821   5.344  0.7401 -0.5005  1.0159
13627TIP3    H262297   1.461   0.931   5.411 -0.8633 -1.4626  0.6964
13628TIP3   OH262298   2.339   4.201  15.113  1.3233 -0.8718  0.0332
13628TIP3    H162299   2.380   4.179  15.197  0.9903  2.1704  1.1544
13628TIP3    H262300   2.398   4.265  15.074 -0.7206  1.3293  0.2739
13629TIP3   OH262301   0.608   6.153  13.819  0.0637  0.4199 -0.0193
13629TIP3    H162302   0.535   6.106  13.779 -0.2992  0.1168  0.9529
13629TIP3    H262303   0.568   6.202  13.891  0.1056  3.7709 -2.0994
13630TIP3   OH262304   4.362   3.337   2.328 -0.4387  0.9109 -0.2249
13630TIP3    H162305   4.313   3.314   2.248 -1.0060  1.0629  0.0715
13630TIP3    H262306   4.312   3.296   2.399  0.4251  0.2251  0.0023
13631TIP3   OH262307   3.084   2.475   4.704 -0.1962  0.0349 -0.3698
13631TIP3    H162308   3.144   2.424   4.649  0.9221 -0.3386  1.1128
13631TIP3    H262309   3.001   2.428   4.700  0.0798 -0.4100 -1.0990
13632TIP3   OH262310   5.417   4.280   2.716  0.3153 -0.1764  0.4511
13632TIP3    H162311   5.330   4.313   2.694  0.7404  0.1251 -0.9011
13632TIP3    H262312   5.406   4.236   2.800 -1.0970  0.0368  0.3981
13633TIP3   OH262313   1.682   5.304   0.258  0.3907 -0.1022 -0.1154
13633TIP3    H162314   1.651   5.341   0.341  1.6119 -0.4854  0.5329
13633TIP3    H262315   1.706   5.381   0.206 -1.6824  0.2042 -0.6720
13634TIP3   OH262316   3.397   6.492   3.703  0.1187 -0.0654 -0.1774
13634TIP3    H162317   3.444   6.523   3.626  0.0292 -0.5655 -0.4391
13634TIP3    H262318   3.359   6.570   3.742  0.8891  0.3068 -0.1539
13635TIP3   OH262319   1.310   3.896  15.624 -0.7208  0.1824 -0.1352
13635TIP3    H162320   1.373   3.848  15.571 -0.6243 -0.5353  0.6226
13635TIP3    H262321   1.363   3.941  15.690 -0.8882  0.6287 -0.3012
13636TIP3   OH262322   0.941   3.940   6.017 -0.6405 -0.1211 -0.4622
13636TIP3    H162323   0.964   4.030   6.040  0.7667 -1.0300  2.1191
13636TIP3    H262324   0.970   3.931   5.926 -1.4544  2.1862 -1.0144
13637TIP3   OH262325   0.246   4.334  16.688  0.5165 -0.0640  0.0094
13637TIP3    H162326   0.190   4.257  16.674  2.2324 -1.5828  1.1764
13637TIP3    H262327   0.335   4.300  16.688  1.2946  1.8046  1.3602
13638TIP3   OH262328   2.385   5.643   1.513 -0.3456  0.2383  0.3916
13638TIP3    H162329   2.364   5.554   1.485  0.5062 -0.3773  1.6167
13638TIP3    H262330   2.454   5.672   1.454  0.1404 -0.3437  0.6614
13639TIP3   OH262331   5.451   0.465   5.579  0.3387 -0.3467  0.9371
13639TIP3    H162332   5.542   0.460   5.607  0.8127 -0.3291 -0.5377
13639TIP3    H262333   5.453   0.515   5.498 -1.0289 -0.1020  1.0282
13640TIP3   OH262334   6.166   1.446   3.527 -0.2565 -0.0462  0.1245
13640TIP3    H162335   6.106   1.498   3.581 -1.6467  0.3729 -1.7307
13640TIP3    H262336   6.247   1.497   3.525 -0.6243  0.5741  0.7219
13641TIP3   OH262337   3.158   3.022   0.821  0.6178  0.4413 -1.0818
13641TIP3    H162338   3.067   3.032   0.795 -0.1150  0.2660  1.2530
13641TIP3    H262339   3.170   3.086   0.891  1.1728 -2.0372  1.2506
13642TIP3   OH262340   2.653   4.964   0.657 -0.4385  0.5703  0.2768
13642TIP3    H162341   2.580   5.017   0.690 -0.9559  0.5506 -0.7552
13642TIP3    H262342   2.730   4.999   0.701 -0.8125  1.9356 -0.0792
13643TIP3   OH262343   2.472   2.458   1.755  0.1888  0.0449 -0.2364
13643TIP3    H162344   2.561   2.423   1.757 -0.7995 -2.7278 -0.0758
13643TIP3    H262345   2.464   2.497   1.668  1.4569  0.0446 -0.3741
13644TIP3   OH262346   1.216   5.427  12.288  0.1321 -0.3312  0.2200
13644TIP3    H162347   1.146   5.456  12.230  1.7646  2.5262 -0.5087
13644TIP3    H262348   1.251   5.507  12.327  2.1573 -1.7427  1.5659
13645TIP3   OH262349   2.460   6.798  14.517 -0.1820  0.3124 -0.0701
13645TIP3    H162350   2.407   6.827  14.443 -0.9252 -0.9731 -0.0785
13645TIP3    H262351   2.431   6.708  14.533  1.7560 -0.3138  0.1609
13646TIP3   OH262352   5.415   0.810  11.884 -0.0147 -0.1344  0.0193
13646TIP3    H162353   5.364   0.741  11.842 -1.7337  0.2816  1.2922
13646TIP3    H262354   5.409   0.791  11.978  2.0793  0.0341  0.2289
13647TIP3   OH262355   4.950   1.534   2.159 -0.2322  0.4396 -0.6096
13647TIP3    H162356   5.040   1.542   2.127 -0.2113  0.7952 -0.4664
13647TIP3    H262357   4.959   1.499   2.248 -0.3386 -1.6288 -1.3643
13648TIP3   OH262358   6.189   4.620   3.046 -0.1317  0.1176 -0.1666
13648TIP3    H162359   6.138   4.694   3.080 -1.5651 -0.5104 -0.8902
13648TIP3    H262360   6.147   4.543   3.083  0.2114 -0.4198 -0.8739
13649TIP3   OH262361   1.612   4.928   4.983 -0.4172 -0.0155  0.0635
13649TIP3    H162362   1.684   4.943   5.045  1.1438 -2.3478 -1.0262
13649TIP3    H262363   1.545   4.991   5.009  2.4905  3.2902  0.2833
13650TIP3   OH262364   6.351   2.685  17.049  0.3815  0.0476 -0.1026
13650TIP3    H162365   6.415   2.616  17.031 -1.6919 -2.4706  1.4939
13650TIP3    H262366   6.387   2.734  17.122  1.9023  0.7726 -1.2837
13651TIP3   OH262367   5.920   0.790  12.783 -0.4768 -0.3949 -0.5317
13651TIP3    H162368   6.009   0.819  12.806 -0.7961  0.2498 -0.0477
13651TIP3    H262369   5.931   0.738  12.704  0.0345  1.9628 -2.1039
13652TIP3   OH262370   3.756   2.030   5.228  0.5853 -0.2363  0.0158
13652TIP3    H162371   3.743   1.944   5.268  1.6501 -0.2976  0.2538
13652TIP3    H262372   3.694   2.087   5.274 -0.5243 -0.9776 -0.5309
13653TIP3   OH262373   3.539   5.470   3.886 -0.3238  0.2193  0.0448
13653TIP3    H162374   3.500   5.382   3.889  3.7290 -1.7938  1.0717
13653TIP3    H262375   3.542   5.491   3.793 -1.9179 -0.3697 -0.1861
13654TIP3   OH262376   0.142   6.064   0.834 -0.7152 -0.3861 -0.2672
13654TIP3    H162377   0.091   6.066   0.753 -0.7662  1.0416 -0.2260
13654TIP3    H262378   0.193   6.145   0.832  0.5100 -1.1077  0.3673
13655TIP3   OH262379   3.735   2.429  15.132 -0.0264 -0.3715  0.0795
13655TIP3    H162380   3.684   2.434  15.051  2.0872  0.7919 -1.2826
13655TIP3    H262381   3.774   2.342  15.131  0.8522  0.0224 -0.7307
13656TIP3   OH262382   3.933   1.980   3.700 -0.3259 -0.2544  0.1767
13656TIP3    H162383   4.000   1.927   3.742 -0.5432 -0.6102  0.0743
13656TIP3    H262384   3.855   1.968   3.753 -0.7422 -1.1215 -0.6168
13657TIP3   OH262385   5.997   0.969  14.620  0.1898  0.2742 -0.6807
13657TIP3    H162386   6.009   1.061  14.642 -0.4724  0.3736 -0.7058
13657TIP3    H262387   6.050   0.921  14.684 -2.1307  0.5203  1.5876
13658TIP3   OH262388   5.450   3.415  10.606 -0.2271  0.0436  0.2661
13658TIP3    H162389   5.382   3.422  10.538 -0.4183  1.7354  0.5791
13658TIP3    H262390   5.528   3.454  10.566  0.2982 -0.9916  0.2573
13659TIP3   OH262391   6.319   6.386  11.375  0.5112  0.2793 -0.5766
13659TIP3    H162392   6.388   6.438  11.416 -0.9598  0.7682  1.4670
13659TIP3    H262393   6.240   6.439  11.385 -0.1682 -0.1481 -3.0737
13660TIP3   OH262394   2.588   3.333   1.343 -0.2948 -0.1015 -0.5135
13660TIP3    H162395   2.548   3.376   1.268  0.1307 -2.1893 -2.0585
13660TIP3    H262396   2.651   3.396   1.377 -0.2739  0.7807 -2.1261
13661TIP3   OH262397   0.506   6.039  11.823 -0.2628  0.0250 -0.8450
13661TIP3    H162398   0.455   5.985  11.883 -0.6575 -1.0678 -2.1285
13661TIP3    H262399   0.500   5.994  11.739  0.7647  1.2082 -1.5822
13662TIP3   OH262400   5.183   0.228  16.317  0.0522 -0.2214 -0.1098
13662TIP3    H162401   5.254   0.178  16.359 -0.9131 -2.2227 -0.7334
13662TIP3    H262402   5.109   0.168  16.318 -0.7873  0.7244 -2.1548
13663TIP3   OH262403   4.205   4.350   4.776  0.7470  0.1441  0.1507
13663TIP3    H162404   4.223   4.279   4.838 -0.3700 -0.0497  0.2790
13663TIP3    H262405   4.256   4.328   4.698 -0.1339 -1.1986 -0.0773
13664TIP3   OH262406   2.145   1.213  16.999  0.1390 -0.1708  0.2761
13664TIP3    H162407   2.186   1.169  17.073  1.6780  1.1990  0.3015
13664TIP3    H262408   2.067   1.255  17.036  1.3683  1.2492  1.3840
13665TIP3   OH262409   6.679   6.116  16.912 -0.1040  0.3125 -0.2142
13665TIP3    H162410   6.610   6.164  16.957  0.7902  0.0276  1.5231
13665TIP3    H262411   6.645   6.027  16.902 -0.3427  0.4022 -0.2001
13666TIP3   OH262412   3.864   0.991   4.096 -0.2820 -0.0108  0.3173
13666TIP3    H162413   3.777   1.029   4.112  0.4651  2.3720 -0.8488
13666TIP3    H262414   3.851   0.932   4.022 -0.9914 -0.0277  0.4481
13667TIP3   OH262415   2.504   2.004  12.266  0.0377  0.3414  0.1630
13667TIP3    H162416   2.527   1.919  12.302 -1.0120 -0.3368 -0.6740
13667TIP3    H262417   2.476   2.056  12.341 -0.8812 -0.6076  0.5006
13668TIP3   OH262418   1.218   0.573  16.174 -0.5998  0.0150  0.2019
13668TIP3    H162419   1.191   0.585  16.083  3.0570  0.2032 -1.0401
13668TIP3    H262420   1.180   0.489  16.199 -2.0487  0.1509 -1.3344
13669TIP3   OH262421   2.580   1.108   4.590  0.3056 -0.0435 -0.0419
13669TIP3    H162422   2.582   1.024   4.545  0.6178  0.9436 -1.9952
13669TIP3    H262423   2.664   1.149   4.569 -0.7952  1.7614 -1.2726
13670TIP3   OH262424   3.320   6.344   1.575  0.3221  0.1419  0.5325
13670TIP3    H162425   3.227   6.353   1.555  0.3404  0.3281  0.5284
13670TIP3    H262426   3.334   6.249   1.584 -0.2026  0.2053  2.2000
13671TIP3   OH262427   4.979   5.725   2.515  0.1512  0.1590 -0.2287
13671TIP3    H162428   5.070   5.756   2.521  0.5376 -0.8164 -0.8097
13671TIP3    H262429   4.927   5.805   2.508  1.0259  0.7119 -0.6034
13672TIP3   OH262430   5.846   6.120   3.490 -0.6555 -0.3813 -0.5052
13672TIP3    H162431   5.786   6.110   3.416 -0.0801 -1.7265 -0.8232
13672TIP3    H262432   5.884   6.207   3.479 -1.8737  0.1336 -0.7926
13673TIP3   OH262433   2.483   6.411  17.027 -0.4674  0.1244 -0.0056
13673TIP3    H162434   2.403   6.453  16.996 -0.4998  0.8738  1.0498
13673TIP3    H262435   2.501   6.452  17.112 -0.2927 -1.7036  0.9059
13674TIP3   OH262436   0.927   1.337   1.900  0.4082 -0.0207 -0.8855
13674TIP3    H162437   0.889   1.301   1.980  2.1130  0.3611  0.1445
13674TIP3    H262438   0.865   1.404   1.872 -0.5405 -0.6130 -0.2614
13675TIP3   OH262439   0.033   2.255   6.313  0.0259  0.0394  0.0959
13675TIP3    H162440  -0.026   2.327   6.336 -1.6712 -1.1706 -0.2857
13675TIP3    H262441   0.120   2.295   6.312 -0.3920  1.3813  3.1888
13676TIP3   OH262442   2.013   1.541  16.173  0.3083  0.2685  0.1698
13676TIP3    H162443   1.987   1.449  16.167 -0.2305  0.4783 -1.0429
13676TIP3    H262444   1.977   1.581  16.094 -0.4163  1.7688  1.2068
13677TIP3   OH262445   1.987   2.404   0.286 -0.8351 -0.1319  0.0606
13677TIP3    H162446   2.071   2.447   0.271 -0.7833 -1.0170 -2.8892
13677TIP3    H262447   2.005   2.311   0.278 -2.1086 -0.3264 -0.9994
13678TIP3   OH262448   2.949   1.186  16.154  0.1001  0.1332 -0.2426
13678TIP3    H162449   3.029   1.153  16.195 -1.1752 -0.5003  1.9073
13678TIP3    H262450   2.896   1.108  16.138 -1.0854  0.7087  0.6891
13679TIP3   OH262451   0.659   1.661  12.187 -0.1539 -0.7494  0.2941
13679TIP3    H162452   0.616   1.723  12.246  0.0901 -0.2013 -0.0886
13679TIP3    H262453   0.738   1.633  12.235 -0.1313 -0.5633  0.3687
13680TIP3   OH262454   1.529   0.552  14.026  0.0453 -0.2370  0.2212
13680TIP3    H162455   1.468   0.624  14.013  1.0140  0.3141 -1.4930
13680TIP3    H262456   1.597   0.587  14.084  1.0246  0.5951 -1.3654
13681TIP3   OH262457   1.524   4.657   5.510  0.2260 -0.3317 -0.0851
13681TIP3    H162458   1.588   4.685   5.444  0.8080 -1.3278  0.0404
13681TIP3    H262459   1.443   4.644   5.462  0.3194  0.1566 -0.3828
13682TIP3   OH262460   3.904   5.417  16.835  0.0371 -0.2627 -0.4160
13682TIP3    H162461   3.884   5.325  16.851 -1.9369  0.3472  1.0438
13682TIP3    H262462   3.989   5.416  16.792 -1.5056 -2.9940 -4.0262
13683TIP3   OH262463   3.178   4.492   4.140  0.6325 -0.0511  0.3352
13683TIP3    H162464   3.161   4.414   4.087  2.0633 -0.7443  0.8616
13683TIP3    H262465   3.128   4.477   4.220  0.9298 -0.4556  0.4496
13684TIP3   OH262466   1.077   6.406   3.040 -0.4249  0.9638  0.2917
13684TIP3    H162467   1.055   6.319   3.075 -0.3979  0.9975  0.3920
13684TIP3    H262468   1.017   6.418   2.966 -0.9964  1.2074  0.7880
13685TIP3   OH262469   2.180   3.342   0.765  0.4257 -0.1158  0.3414
13685TIP3    H162470   2.251   3.384   0.814 -0.2147 -0.4246  1.5573
13685TIP3    H262471   2.133   3.415   0.725 -0.4975  0.3633  2.1994
13686TIP3   OH262472   1.565   0.095   3.987 -0.1120 -0.0747  0.5329
13686TIP3    H162473   1.578   0.189   3.995 -0.9433  0.0790  0.1472
13686TIP3    H262474   1.616   0.070   3.909  0.5551 -0.0450  0.9522
13687TIP3   OH262475   5.357   4.373  13.963 -0.8301 -0.1272 -0.4336
13687TIP3    H162476   5.367   4.287  13.922  2.1913  0.7720 -1.9198
13687TIP3    H262477   5.334   4.431  13.890  1.4363  0.9598 -0.3822
13688TIP3   OH262478   6.718   5.675  15.570 -0.4343  0.2549 -0.4746
13688TIP3    H162479   6.793   5.650  15.624 -1.0811 -1.3681 -0.2856
13688TIP3    H262480   6.728   5.770  15.558  1.0883  0.2348  0.3728
13689TIP3   OH262481   2.909   5.056   0.717  0.8544  0.3515  0.1803
13689TIP3    H162482   2.918   4.969   0.756  0.3878  0.8026  1.3339
13689TIP3    H262483   2.999   5.085   0.701  1.1206 -1.9429 -4.0874
13690TIP3   OH262484   3.030   0.829  13.036  0.5783 -0.9158  0.2900
13690TIP3    H162485   2.999   0.780  13.111 -0.8758 -1.2739 -0.5080
13690TIP3    H262486   2.986   0.790  12.961  0.4046  0.7336 -0.5328
13691TIP3   OH262487   5.805   0.690  12.257 -0.2270 -0.2002  0.4120
13691TIP3    H162488   5.856   0.638  12.318  0.5261  0.1151  0.0574
13691TIP3    H262489   5.716   0.688  12.292 -0.8394 -3.8824 -0.9617
13692TIP3   OH262490   6.742   1.877   5.043 -0.5737 -0.0824 -0.3220
13692TIP3    H162491   6.757   1.783   5.033 -0.1200  0.1204 -1.9068
13692TIP3    H262492   6.682   1.885   5.117  1.0753 -1.4671  1.2607
13693TIP3   OH262493   0.006   4.851   0.787 -0.0512  0.2118  0.2905
13693TIP3    H162494   0.048   4.803   0.858 -0.0368  0.0801  0.1936
13693TIP3    H262495   0.021   4.943   0.808  1.4639  0.1615 -0.4348
13694TIP3   OH262496   3.907   1.700   0.310  0.0251 -0.2039 -0.2066
13694TIP3    H162497   3.881   1.621   0.359  0.1207 -0.2279 -0.1946
13694TIP3    H262498   3.873   1.685   0.222 -0.1792 -0.1445 -0.1374
13695TIP3   OH262499   6.747   4.388  13.233  0.4311 -0.1219  0.6871
13695TIP3    H162500   6.677   4.443  13.267  0.5952  0.6516 -0.1942
13695TIP3    H262501   6.799   4.446  13.177  1.1744 -0.9335  0.5091
13696TIP3   OH262502   1.854   1.669  16.377 -0.1897 -0.4371 -0.7481
13696TIP3    H162503   1.926   1.641  16.321  0.4604 -0.0906 -0.0915
13696TIP3    H262504   1.879   1.755  16.408 -0.1125 -0.9901  0.7946
13697TIP3   OH262505   4.704   3.368  15.132 -0.6418  0.1232  0.2120
13697TIP3    H162506   4.638   3.414  15.184 -2.6463 -3.4516  1.1206
13697TIP3    H262507   4.657   3.297  15.090  2.0449 -0.5412 -1.9826
13698TIP3   OH262508   1.737   6.283   4.143 -0.4020 -0.7460 -0.6220
13698TIP3    H162509   1.825   6.248   4.153 -0.1701 -0.2866 -0.9947
13698TIP3    H262510   1.751   6.377   4.128 -1.0365 -0.2609  1.4690
13699TIP3   OH262511   0.057   5.528   3.167  0.1171 -0.1779  0.5635
13699TIP3    H162512  -0.001   5.555   3.096 -1.3422 -2.0029  0.9859
13699TIP3    H262513   0.137   5.500   3.123 -0.2967 -0.0923 -0.2654
13700TIP3   OH262514   3.819   2.942   1.714 -0.2249  0.0440 -1.0004
13700TIP3    H162515   3.810   2.939   1.618 -0.6869  0.0459 -0.9628
13700TIP3    H262516   3.795   2.854   1.743 -1.9709  0.5503 -0.7594
13701TIP3   OH262517   3.481   1.690   1.349 -0.4731 -0.4672 -0.4262
13701TIP3    H162518   3.469   1.610   1.298  0.2676 -0.8990  0.0672
13701TIP3    H262519   3.414   1.750   1.316 -2.3542 -1.9465  0.5344
13702TIP3   OH262520   4.684   3.732  13.312 -0.5022 -0.1148  0.3184
13702TIP3    H162521   4.600   3.762  13.345  0.5043  2.7703  0.5084
13702TIP3    H262522   4.744   3.739  13.387  0.1001 -1.4461  0.0039
13703TIP3   OH262523   5.770   5.493   1.604 -0.1791  0.1031  0.8290
13703TIP3    H162524   5.834   5.518   1.672  0.7590  0.0785 -0.0132
13703TIP3    H262525   5.810   5.523   1.523 -1.5470  0.6292  0.3265
13704TIP3   OH262526   6.710   1.414  16.816  0.0348  0.1464  0.5418
13704TIP3    H162527   6.636   1.407  16.877  0.9600  0.5341  1.7525
13704TIP3    H262528   6.744   1.325  16.808 -0.8182 -0.1149 -0.3838
13705TIP3   OH262529   5.383   0.134  11.306  0.6248 -0.4001  0.0867
13705TIP3    H162530   5.410   0.121  11.215 -0.6275  0.2152 -0.3875
13705TIP3    H262531   5.465   0.153  11.352  0.9859  2.1504 -1.4398
13706TIP3   OH262532   3.299   5.151  12.829  0.4371  0.2378  0.2654
13706TIP3    H162533   3.211   5.189  12.842  0.5058  0.4226  0.1983
13706TIP3    H262534   3.283   5.068  12.784  0.1956 -0.3566  1.4031
13707TIP3   OH262535   1.184   6.044  13.456  0.1619  0.1257 -0.3787
13707TIP3    H162536   1.204   5.994  13.377  1.1095  2.1814 -1.5122
13707TIP3    H262537   1.109   6.098  13.431  1.8381  2.4433 -0.7077
13708TIP3   OH262538   2.466   3.814   2.271 -0.2398 -0.5928 -0.1351
13708TIP3    H162539   2.464   3.822   2.366 -0.5023 -0.7668 -0.1274
13708TIP3    H262540   2.429   3.897   2.239 -2.2943 -1.4478 -0.0594
13709TIP3   OH262541   3.165   0.433   4.822 -0.7710 -0.1980  0.0328
13709TIP3    H162542   3.180   0.342   4.849 -1.3425  0.1099  1.5233
13709TIP3    H262543   3.124   0.426   4.736 -0.6619 -1.3463  0.0516
13710TIP3   OH262544   0.895   6.485  13.625  0.2968 -0.2682  0.1114
13710TIP3    H162545   0.883   6.574  13.659 -0.5970 -0.8591  1.4651
13710TIP3    H262546   0.978   6.488  13.577  0.5997  1.1319  0.6721
13711TIP3   OH262547   0.549   2.961  13.920 -0.0624 -0.3795  0.2320
13711TIP3    H162548   0.543   2.887  13.860  1.8938 -0.1295 -0.3254
13711TIP3    H262549   0.608   3.023  13.878  2.2914 -0.6511  2.8335
13712TIP3   OH262550   5.815   0.976   3.197 -0.0118  0.1266  0.1163
13712TIP3    H162551   5.774   1.050   3.151 -0.1865 -0.1855 -0.2378
13712TIP3    H262552   5.872   1.017   3.262  0.2196  0.5840 -0.3591
13713TIP3   OH262553   5.352   1.443   0.826  0.0442 -0.1334  0.5603
13713TIP3    H162554   5.297   1.497   0.770 -0.5148 -1.3442 -0.1090
13713TIP3    H262555   5.347   1.355   0.787  2.7347 -0.2379  0.2502
13714TIP3   OH262556   3.713   0.185   2.471  0.6156 -0.1191 -0.0881
13714TIP3    H162557   3.727   0.261   2.529  1.1823 -0.3959  0.1453
13714TIP3    H262558   3.775   0.198   2.399  0.4649 -0.1792 -0.2282
13715TIP3   OH262559   2.115   1.833  10.419  0.1522  0.0680 -0.5147
13715TIP3    H162560   2.022   1.852  10.412 -0.1601 -0.2728  1.8772
13715TIP3    H262561   2.158   1.917  10.404 -0.5462  0.3216 -1.1636
13716TIP3   OH262562   1.760   2.283  11.933  0.2779 -0.0100 -0.1633
13716TIP3    H162563   1.747   2.219  11.863  0.5902 -2.4530  1.8643
13716TIP3    H262564   1.741   2.234  12.014  1.2622  2.2692  1.5522
13717TIP3   OH262565   5.870   1.538   5.604  0.7752 -0.2229  0.1775
13717TIP3    H162566   5.830   1.624   5.592  1.0193  0.0889  1.5203
13717TIP3    H262567   5.879   1.504   5.515 -2.1156 -0.1635 -0.2424
13718TIP3   OH262568   1.511   4.287  14.718 -0.2244  0.0770 -0.2002
13718TIP3    H162569   1.542   4.240  14.641  1.3966 -0.0470  0.4865
13718TIP3    H262570   1.420   4.309  14.698 -0.1995 -0.9969 -1.6355
13719TIP3   OH262571   2.144   5.142   5.274  0.3057 -0.3475 -0.0975
13719TIP3    H162572   2.106   5.188   5.349 -0.5500 -0.5616 -0.3829
13719TIP3    H262573   2.238   5.141   5.291  0.1562 -0.0922  0.7988
13720TIP3   OH262574   1.869   3.237  14.069 -0.2659  0.0388  0.1340
13720TIP3    H162575   1.783   3.275  14.083 -0.6664 -0.5717 -0.5716
13720TIP3    H262576   1.863   3.149  14.107 -0.2547 -0.3309 -0.6792
13721TIP3   OH262577   2.719   3.795  11.824  0.4010 -0.0829 -0.1027
13721TIP3    H162578   2.772   3.786  11.745 -0.4624  1.7893 -0.9879
13721TIP3    H262579   2.755   3.872  11.868 -0.2315 -0.0543  0.3810
13722TIP3   OH262580   0.599   1.866   5.819 -0.1694  0.4265 -0.1425
13722TIP3    H162581   0.666   1.850   5.885  0.3861  2.0108 -0.2888
13722TIP3    H262582   0.617   1.802   5.750 -0.5768 -1.0490  1.0670
13723TIP3   OH262583   2.920   1.814  14.783 -0.4207  0.1369 -0.6490
13723TIP3    H162584   2.978   1.757  14.834  0.1299  0.6379 -0.6920
13723TIP3    H262585   2.849   1.757  14.754 -0.6356 -0.2018  0.5066
13724TIP3   OH262586   5.432   1.477  12.630  0.0213  0.0758  0.5945
13724TIP3    H162587   5.451   1.386  12.652  1.2779  0.3619  0.7567
13724TIP3    H262588   5.414   1.519  12.714 -0.5045 -0.0084  0.5251
13725TIP3   OH262589   5.621   0.903  13.072  0.1382  0.2849  0.4991
13725TIP3    H162590   5.588   0.878  12.986 -0.7269 -0.8306  1.1272
13725TIP3    H262591   5.704   0.856  13.080 -0.1784 -0.2820  0.5823
13726TIP3   OH262592   2.887   3.730  16.036  0.1182 -0.1937  0.4294
13726TIP3    H162593   2.927   3.712  15.951 -2.4918 -0.9259 -0.7748
13726TIP3    H262594   2.891   3.646  16.082 -3.2329 -1.4944 -1.2568
13727TIP3   OH262595   3.395   2.954   2.025 -0.1002  0.7122  0.4495
13727TIP3    H162596   3.450   2.892   2.073  1.7166  0.0238 -2.2839
13727TIP3    H262597   3.451   3.030   2.011 -0.9303  1.2953  0.2217
13728TIP3   OH262598   6.238   2.053  10.973 -0.3384  0.4034 -0.1402
13728TIP3    H162599   6.318   2.023  11.016 -0.2393  1.6218  0.5736
13728TIP3    H262600   6.217   1.984  10.910 -1.2663 -2.1985  2.7878
13729TIP3   OH262601   5.062   4.564  14.522  0.0735 -0.3116  0.0497
13729TIP3    H162602   4.982   4.595  14.480  0.8576  2.4729  0.4117
13729TIP3    H262603   5.061   4.605  14.609  1.3107 -1.1967  0.5192
13730TIP3   OH262604   2.059   3.566  15.283 -0.0225 -0.2958 -0.3225
13730TIP3    H162605   2.000   3.606  15.218  1.6254  2.3721 -0.3503
13730TIP3    H262606   2.122   3.517  15.231  1.3165  1.8662 -0.8682
13731TIP3   OH262607   2.993   1.120   1.497 -0.3891  0.0305  0.1624
13731TIP3    H162608   2.958   1.175   1.567 -0.9223 -1.2391  0.9220
13731TIP3    H262609   2.955   1.157   1.417 -2.9685 -0.8302  0.8745
13732TIP3   OH262610   0.299   0.244   1.564 -0.1365  0.2166  0.0035
13732TIP3    H162611   0.275   0.247   1.657  0.5061  2.2146  0.1679
13732TIP3    H262612   0.228   0.195   1.522 -0.5270 -0.5786  1.5101
13733TIP3   OH262613   1.425   5.951  16.084  0.1602 -0.1533  0.1948
13733TIP3    H162614   1.429   5.899  16.164  0.6159  0.9164  0.8950
13733TIP3    H262615   1.334   5.947  16.057 -0.7875  2.2044  2.6660
13734TIP3   OH262616   5.054   4.672  12.747 -0.2585  0.0502  0.1149
13734TIP3    H162617   5.121   4.605  12.745  0.3152  0.6196 -0.2230
13734TIP3    H262618   4.972   4.625  12.765  0.0245 -0.8210 -0.8090
13735TIP3   OH262619   0.724   6.315   1.432  0.4322 -0.5216  0.0920
13735TIP3    H162620   0.628   6.310   1.436  0.3530  0.8977  0.7555
13735TIP3    H262621   0.747   6.271   1.351 -0.7449 -1.3133  0.1632
13736TIP3   OH262622   3.723   1.380   2.379 -0.1216 -0.1504 -0.1221
13736TIP3    H162623   3.679   1.462   2.354 -1.0650 -0.5996  0.0260
13736TIP3    H262624   3.749   1.341   2.296 -0.5762 -0.1884 -0.2494
13737TIP3   OH262625   1.418   0.964   4.008 -0.6557 -0.1133 -0.0424
13737TIP3    H162626   1.329   0.935   4.027 -0.0938 -0.7882  1.7910
13737TIP3    H262627   1.462   0.887   3.972 -1.1952  0.6541 -2.5197
13738TIP3   OH262628   1.472   4.667  11.404 -0.3596 -0.3997 -0.1662
13738TIP3    H162629   1.468   4.607  11.478 -1.6387  2.0169  1.8716
13738TIP3    H262630   1.444   4.751  11.439  0.9096  1.3550 -2.9626
13739TIP3   OH262631   6.163   5.090   3.512 -0.1098  0.4147 -0.0197
13739TIP3    H162632   6.168   5.186   3.510  0.0056  0.4038 -0.8032
13739TIP3    H262633   6.254   5.061   3.511 -0.1330  0.2922  0.7242
13740TIP3   OH262634   2.155   0.036   5.090 -0.8571 -0.0355  0.0892
13740TIP3    H162635   2.072  -0.009   5.075 -1.6900  1.5438 -0.1950
13740TIP3    H262636   2.216  -0.005   5.029 -2.1619  0.7345 -1.8106
13741TIP3   OH262637   4.411   3.736  12.190 -0.3706 -0.0082 -0.0843
13741TIP3    H162638   4.443   3.771  12.274  0.6306 -0.9192 -0.0639
13741TIP3    H262639   4.318   3.723  12.204 -0.0126 -1.3565  1.3663
13742TIP3   OH262640   0.281   1.177   0.898  0.8079 -0.0701 -0.0356
13742TIP3    H162641   0.284   1.091   0.941  2.8597  0.1643  0.3938
13742TIP3    H262642   0.311   1.160   0.809 -0.0912  0.0113 -0.3656
13743TIP3   OH262643   0.925   5.189   3.345  0.1362  0.2403 -0.1968
13743TIP3    H162644   1.019   5.174   3.334 -0.2021 -1.0706 -1.6206
13743TIP3    H262645   0.887   5.101   3.345 -1.0944  0.7481  0.5096
13744TIP3   OH262646   3.674   1.963   0.046 -0.1824  0.1143  0.5126
13744TIP3    H162647   3.690   1.981   0.138 -0.0670 -0.6739  0.6608
13744TIP3    H262648   3.585   1.994   0.030 -0.3466 -0.1067  0.9963
13745TIP3   OH262649   5.592   4.515  13.147  0.0108 -0.0099  0.0837
13745TIP3    H162650   5.519   4.456  13.167 -1.0886  0.8819 -1.1287
13745TIP3    H262651   5.573   4.595  13.195  0.6065 -0.0285  0.3661
13746TIP3   OH262652   0.860   5.803  13.154  0.1399 -0.1908 -0.4425
13746TIP3    H162653   0.834   5.893  13.175 -0.7875 -0.1256 -1.8007
13746TIP3    H262654   0.779   5.753  13.156  0.4778 -0.7703 -0.8414
13747TIP3   OH262655   2.586   1.419  11.005 -0.2167 -0.0835  0.6902
13747TIP3    H162656   2.556   1.474  10.932  2.3992  0.5558 -0.0033
13747TIP3    H262657   2.547   1.334  10.989 -2.1796  0.8191  0.2977
13748TIP3   OH262658   1.202   0.923   0.882  0.1586  0.1696 -0.3745
13748TIP3    H162659   1.156   0.887   0.806 -0.7173 -0.4469  0.4290
13748TIP3    H262660   1.204   0.851   0.945  1.7044  0.3696 -0.1413
13749TIP3   OH262661   6.526   5.156  13.400 -0.9406  0.3787 -0.0209
13749TIP3    H162662   6.578   5.143  13.321 -0.5522 -0.4114  0.3466
13749TIP3    H262663   6.581   5.211  13.456 -0.3779 -0.6411  0.4584
13750TIP3   OH262664   5.243   1.651  12.497  0.3029 -0.1284 -0.2922
13750TIP3    H162665   5.188   1.641  12.575  1.0337 -1.9273  0.0387
13750TIP3    H262666   5.327   1.614  12.522  0.5875 -0.6452 -1.9102
13751TIP3   OH262667   4.565   2.988  15.570 -0.3447 -0.1849 -0.0061
13751TIP3    H162668   4.537   3.013  15.657 -0.4651  2.8525 -0.8148
13751TIP3    H262669   4.510   3.039  15.511  3.0513  1.8900 -1.7125
13752TIP3   OH262670   2.087   5.848  13.570  0.4052  0.2986  0.3985
13752TIP3    H162671   2.093   5.916  13.637  0.1429 -0.0903  0.8215
13752TIP3    H262672   2.166   5.859  13.517  1.3670 -0.3340  1.6580
13753TIP3   OH262673   1.095   4.351  13.484 -0.5984 -0.4566  0.1558
13753TIP3    H162674   1.102   4.310  13.397 -1.6740 -1.5940  0.5698
13753TIP3    H262675   1.178   4.329  13.527 -0.3238 -0.4349 -0.3465
13754TIP3   OH262676   6.441   5.374  15.155 -0.4916 -0.2932  0.0901
13754TIP3    H162677   6.435   5.397  15.248  2.7765 -2.4705  1.0088
13754TIP3    H262678   6.385   5.438  15.111 -2.6047  0.5088  3.5417
13755TIP3   OH262679   0.957   2.482   4.025 -0.1361  0.0032  0.3957
13755TIP3    H162680   1.008   2.401   4.018 -0.1752  0.0504 -0.6300
13755TIP3    H262681   0.866   2.453   4.021 -0.1517  0.0765  0.1883
13756TIP3   OH262682   3.280   4.288  14.763 -0.0795 -0.1764 -0.3143
13756TIP3    H162683   3.260   4.308  14.854 -0.2252  0.3998 -0.4675
13756TIP3    H262684   3.354   4.344  14.742  2.1570 -2.6363  0.3976
13757TIP3   OH262685   6.385   3.430   1.730  0.0139  0.1364  0.1116
13757TIP3    H162686   6.362   3.500   1.792 -0.7007  0.7956 -0.8551
13757TIP3    H262687   6.456   3.383   1.772 -0.1447  0.8521  1.2267
13758TIP3   OH262688   4.893   2.732  12.399 -0.1306  0.0717  0.0639
13758TIP3    H162689   4.906   2.689  12.484  2.9354  1.5626  0.4823
13758TIP3    H262690   4.837   2.672  12.350 -0.8201 -1.5252  2.6008
13759TIP3   OH262691   6.569   2.632  13.657  0.2565  0.1247  0.1712
13759TIP3    H162692   6.510   2.557  13.657  0.1180  0.2133  1.3997
13759TIP3    H262693   6.620   2.622  13.738  0.6816  1.0047  0.0183
13760TIP3   OH262694   4.111   3.196   5.148  0.4522 -0.7357 -0.3116
13760TIP3    H162695   4.098   3.156   5.234  0.9366  1.1377  0.6789
13760TIP3    H262696   4.043   3.262   5.141  1.5756  0.4436 -0.5190
13761TIP3   OH262697   5.694   3.466  16.009  0.0020  0.5894  0.2206
13761TIP3    H162698   5.612   3.445  16.054 -1.3679  0.5240 -2.1349
13761TIP3    H262699   5.760   3.412  16.052 -1.7393 -1.6064  0.2887
13762TIP3   OH262700   5.002   4.372  14.125  0.1417 -0.0134 -0.8255
13762TIP3    H162701   5.029   4.331  14.207 -1.5277  0.8397  0.1898
13762TIP3    H262702   5.061   4.447  14.115  0.1692  0.0394 -0.2732
13763TIP3   OH262703   0.089   2.819  11.747 -0.7222  0.2344 -0.2656
13763TIP3    H162704   0.070   2.834  11.655  0.3304  0.4945 -0.4479
13763TIP3    H262705   0.012   2.771  11.780 -0.6698 -0.7647 -1.5083
13764TIP3   OH262706   1.289   2.779   5.587 -0.0403 -0.8624  0.3977
13764TIP3    H162707   1.378   2.810   5.576 -0.1632 -0.6654 -0.0576
13764TIP3    H262708   1.234   2.848   5.550 -0.3960 -0.8594  0.9234
13765TIP3   OH262709   5.602   2.650   3.289  0.2609 -0.0583  0.0775
13765TIP3    H162710   5.561   2.722   3.337 -0.3629 -0.5185  0.2580
13765TIP3    H262711   5.578   2.665   3.198 -0.6211 -0.5058  0.2209
13766TIP3   OH262712   6.705   4.621   1.205 -0.1147  0.2582 -0.0832
13766TIP3    H162713   6.774   4.560   1.231  1.6856  1.8858 -0.7325
13766TIP3    H262714   6.665   4.649   1.287  0.3345 -0.3553  0.3514
13767TIP3   OH262715   5.215   2.154  14.978 -0.2783  0.2333  0.1528
13767TIP3    H162716   5.210   2.201  15.062 -0.0257  0.7742 -0.1342
13767TIP3    H262717   5.300   2.111  14.980 -0.5294 -0.2667  0.4362
13768TIP3   OH262718   1.284   0.067   3.124  0.4643 -0.0510 -0.2814
13768TIP3    H162719   1.372   0.043   3.154  0.0416 -0.4403  0.6768
13768TIP3    H262720   1.299   0.137   3.060  1.6214 -1.5738 -1.7728
13769TIP3   OH262721   5.507   1.290  10.954  0.1092 -0.0815  0.2791
13769TIP3    H162722   5.437   1.285  11.020  0.1924 -1.8826  0.2681
13769TIP3    H262723   5.481   1.362  10.897 -1.9556 -0.9410  0.0602
13770TIP3   OH262724   5.364   3.626  13.055 -0.2444  0.0987  0.0127
13770TIP3    H162725   5.420   3.700  13.033 -1.4793  1.1280  0.1869
13770TIP3    H262726   5.299   3.624  12.984 -1.7751  0.8466  1.3255
13771TIP3   OH262727   2.496   4.079  16.992 -0.0399 -0.5714  0.3466
13771TIP3    H162728   2.574   4.075  16.937 -0.4251 -1.1088 -0.1686
13771TIP3    H262729   2.423   4.086  16.931 -0.3569  0.7239  0.8440
13772TIP3   OH262730   0.142   4.976   2.593 -0.6683 -0.3256  0.1658
13772TIP3    H162731   0.188   5.033   2.655 -0.9845 -0.3277  0.4057
13772TIP3    H262732   0.109   4.905   2.646  0.9466 -1.5188 -0.3436
13773TIP3   OH262733   1.622   1.785   3.054 -0.8571 -0.8128 -0.1573
13773TIP3    H162734   1.690   1.831   3.004  0.4371 -3.3995 -0.9605
13773TIP3    H262735   1.621   1.828   3.139  0.5898  0.4017 -0.7146
13774TIP3   OH262736   1.743   4.561  15.321 -0.4507  0.5155  0.2590
13774TIP3    H162737   1.746   4.557  15.225 -0.4255  0.8746  0.2463
13774TIP3    H262738   1.832   4.541  15.348 -1.0022 -2.2705  0.3026
13775TIP3   OH262739   4.565   2.096  15.870 -0.5744 -0.4718 -0.1730
13775TIP3    H162740   4.539   2.016  15.914 -1.3697 -0.2513 -0.2074
13775TIP3    H262741   4.555   2.165  15.936 -0.4336 -0.3280 -0.2989
13776TIP3   OH262742   2.084   3.561  11.493  0.6652 -0.7642 -0.2634
13776TIP3    H162743   2.124   3.474  11.488 -0.8262 -1.4240 -1.9589
13776TIP3    H262744   2.037   3.571  11.410 -2.1759  0.1646  1.2907
13777TIP3   OH262745   1.053   2.670  12.458 -0.0624 -0.0377 -0.5652
13777TIP3    H162746   1.090   2.757  12.473  3.0301 -1.2109 -0.7251
13777TIP3    H262747   0.966   2.673  12.498  0.3398  2.8023  0.2624
13778TIP3   OH262748   2.881   2.261  10.970  0.3668  0.1652  0.0695
13778TIP3    H162749   2.801   2.230  10.927 -0.0154  0.3758  0.6179
13778TIP3    H262750   2.850   2.320  11.038  0.9477 -0.3890  0.8272
13779TIP3   OH262751   1.942   5.662   4.456 -0.7229  0.1378 -0.0119
13779TIP3    H162752   1.964   5.599   4.387  0.3931  0.2344  0.2398
13779TIP3    H262753   1.965   5.747   4.419 -0.8919  0.2701  0.1809
13780TIP3   OH262754   4.298   2.438  17.176 -0.2097  0.0032 -0.6401
13780TIP3    H162755   4.282   2.444  17.082 -0.2180  0.1714 -0.6279
13780TIP3    H262756   4.311   2.528  17.205 -0.7069 -0.0015 -0.3881
13781TIP3   OH262757   5.460   5.080   4.109 -0.3727  0.4905 -0.1083
13781TIP3    H162758   5.514   5.004   4.089 -0.8968  0.7550 -3.0006
13781TIP3    H262759   5.505   5.124   4.181  1.3196 -1.1614 -0.0815
13782TIP3   OH262760   4.636   3.780  11.017 -0.0376 -0.4213  0.2145
13782TIP3    H162761   4.672   3.752  11.101  0.3859 -0.6132 -0.0294
13782TIP3    H262762   4.549   3.739  11.013 -0.5457  0.5385  1.0707
13783TIP3   OH262763   4.036   4.709  11.688 -0.4557 -0.4169  0.3195
13783TIP3    H162764   4.093   4.703  11.764  0.2158 -2.5325 -0.2577
13783TIP3    H262765   3.949   4.726  11.724  0.0673 -0.0017  1.4307
13784TIP3   OH262766   6.779   1.979   2.217  0.1456  0.4221 -0.2930
13784TIP3    H162767   6.849   1.914   2.220  0.6124  0.9244 -0.2287
13784TIP3    H262768   6.817   2.053   2.170 -0.0911  0.9898  0.3977
13785TIP3   OH262769   1.732   5.951   2.953  0.2432  0.2261  0.5170
13785TIP3    H162770   1.822   5.959   2.985 -0.0925  0.4635  1.4171
13785TIP3    H262771   1.742   5.917   2.864  1.1968 -0.3669  0.8328
13786TIP3   OH262772   1.076   6.325   5.101 -0.0226  0.4429 -0.1365
13786TIP3    H162773   1.024   6.257   5.145 -0.8305  0.4330 -1.0620
13786TIP3    H262774   1.011   6.379   5.056  0.5880  1.9564  0.7132
13787TIP3   OH262775   4.943   6.455   1.312 -0.4783 -0.0332 -0.0626
13787TIP3    H162776   4.859   6.418   1.285 -0.5229  0.6617 -0.9064
13787TIP3    H262777   4.952   6.429   1.404 -2.2732  1.0421  0.4606
13788TIP3   OH262778   2.458   2.251   0.638 -0.1163 -0.8792 -0.3417
13788TIP3    H162779   2.538   2.226   0.684  0.1739  1.6350  0.6920
13788TIP3    H262780   2.388   2.237   0.703  0.0681  0.9357  0.3023
13789TIP3   OH262781   6.144   3.311  16.999  0.5518  0.1012 -0.4674
13789TIP3    H162782   6.172   3.219  17.001 -0.6922 -0.4083 -2.5220
13789TIP3    H262783   6.075   3.316  17.065  0.2943 -0.5862 -0.6725
13790TIP3   OH262784   2.678   0.121   1.735 -0.4046 -0.1218 -0.3587
13790TIP3    H162785   2.621   0.191   1.704 -1.9592 -1.3148 -0.3429
13790TIP3    H262786   2.630   0.080   1.806 -0.0850 -1.9170 -1.1124
13791TIP3   OH262787   2.847   6.176   4.044 -0.4299  0.0250 -0.1018
13791TIP3    H162788   2.911   6.230   4.091 -0.4009 -0.3223  0.2562
13791TIP3    H262789   2.900   6.126   3.982 -0.3468 -0.3249  0.2534
13792TIP3   OH262790   2.952   3.618  15.804 -0.2739  0.6161 -0.4497
13792TIP3    H162791   2.953   3.531  15.764  2.1593  0.3513  0.0188
13792TIP3    H262792   2.930   3.678  15.733  0.1478 -0.1927 -1.2776
13793TIP3   OH262793   2.023   4.697  12.811 -0.0169 -0.1291  0.5363
13793TIP3    H162794   2.044   4.613  12.851 -0.9740 -0.7904 -0.3164
13793TIP3    H262795   2.034   4.761  12.882  0.2123 -1.0234  1.3217
13794TIP3   OH262796   0.949   1.558  11.131 -0.0201 -0.2482  0.0279
13794TIP3    H162797   0.928   1.470  11.098  0.7573 -0.4666  0.0906
13794TIP3    H262798   0.956   1.546  11.226 -0.1854 -0.0593  0.0643
13795TIP3   OH262799   3.024   4.267   4.726 -0.1417 -0.0970  0.0925
13795TIP3    H162800   3.043   4.296   4.815 -3.3930  1.4847  0.3951
13795TIP3    H262801   2.944   4.214   4.735 -2.4248  2.6969 -2.1290
13796TIP3   OH262802   1.848   1.342  14.058  0.0674 -0.2334 -0.1126
13796TIP3    H162803   1.852   1.424  14.108  3.3278 -0.3111 -0.0586
13796TIP3    H262804   1.793   1.363  13.983  1.8519  2.5012 -0.8081
13797TIP3   OH262805   6.014   3.721   0.873  0.2010 -0.0957  0.3337
13797TIP3    H162806   6.024   3.699   0.780  0.9935 -0.9943  0.6162
13797TIP3    H262807   6.103   3.718   0.908  0.0867  1.5180  0.8692
13798TIP3   OH262808   1.804   0.274   3.814  0.5933  0.1009 -0.6119
13798TIP3    H162809   1.775   0.228   3.736  0.9182 -0.5278 -0.3724
13798TIP3    H262810   1.886   0.230   3.839 -0.3924 -0.8764  1.0742
13799TIP3   OH262811   2.689   1.094  13.067 -0.2124 -0.0868 -0.1674
13799TIP3    H162812   2.676   0.999  13.071  2.0845 -0.4106  1.4585
13799TIP3    H262813   2.664   1.124  13.155 -0.9678  0.8628 -0.6853
13800TIP3   OH262814   2.159   1.840   4.936  0.1650 -0.3383  0.4514
13800TIP3    H162815   2.219   1.910   4.959 -0.7314  1.2353 -1.6548
13800TIP3    H262816   2.094   1.839   5.007  0.1966  0.9575  0.5086
13801TIP3   OH262817   3.678   6.737   0.999  0.2336 -0.9591  0.0782
13801TIP3    H162818   3.616   6.688   1.053 -1.5810  0.7248 -0.3249
13801TIP3    H262819   3.631   6.752   0.916  1.0590  0.6018 -0.1512
13802TIP3   OH262820   4.381   2.247  12.206  0.4238 -0.4587 -0.3583
13802TIP3    H162821   4.361   2.265  12.114  0.8543 -0.5048 -0.4610
13802TIP3    H262822   4.426   2.163  12.204 -0.0848 -0.7461 -0.0439
13803TIP3   OH262823   2.575   2.892  12.284  0.0326  0.4453  0.2219
13803TIP3    H162824   2.504   2.955  12.272  0.5699  0.7216 -2.1828
13803TIP3    H262825   2.532   2.815  12.321 -1.1821  1.2152  0.4903
13804TIP3   OH262826   6.785   4.815  13.486 -0.9745  0.3359  0.2267
13804TIP3    H162827   6.767   4.748  13.551  1.0776 -0.8932 -0.3855
13804TIP3    H262828   6.715   4.805  13.421 -0.6993 -1.2192  0.1477
13805TIP3   OH262829   2.847   4.600  14.920  0.3845 -0.2802  0.6473
13805TIP3    H162830   2.826   4.691  14.943  3.3561  0.9738 -1.0819
13805TIP3    H262831   2.800   4.585  14.838 -0.9951 -0.7756  1.4825
13806TIP3   OH262832   0.678   0.685  16.344 -0.0935 -0.7285  0.2284
13806TIP3    H162833   0.649   0.676  16.253  0.4077  1.7180 -0.2360
13806TIP3    H262834   0.772   0.702  16.338 -0.1880  0.2216  1.1312
13807TIP3   OH262835   5.273   1.260   1.669  0.2052 -0.1649 -0.2029
13807TIP3    H162836   5.190   1.220   1.644  0.2115 -1.0214  1.0652
13807TIP3    H262837   5.265   1.351   1.640 -1.1780 -0.2328 -0.0920
13808TIP3   OH262838   1.761   0.341  15.715  0.0991  0.2322  0.1575
13808TIP3    H162839   1.810   0.364  15.793  1.3960 -0.3370 -0.4567
13808TIP3    H262840   1.768   0.246  15.709 -0.0141  0.2675 -0.6358
13809TIP3   OH262841   1.641   5.608  16.039  0.1533  0.8611  0.1272
13809TIP3    H162842   1.617   5.687  16.086 -0.4300  0.7243  0.0729
13809TIP3    H262843   1.592   5.538  16.083  1.0675  0.4548  0.5077
13810TIP3   OH262844   0.584   6.050   2.829  0.2646 -0.4042 -0.0488
13810TIP3    H162845   0.506   6.101   2.807 -0.0781  0.0512  2.0058
13810TIP3    H262846   0.624   6.029   2.744 -1.5778  0.1289 -1.1038
13811TIP3   OH262847   4.284   3.998  11.343 -0.5492  0.1774  0.6664
13811TIP3    H162848   4.330   3.938  11.401 -0.2127  0.2245  0.4517
13811TIP3    H262849   4.210   3.948  11.310 -0.0955 -0.2263  0.2438
13812TIP3   OH262850   3.556   2.987  16.294  0.1629  0.5933  0.4206
13812TIP3    H162851   3.644   3.010  16.324 -0.1401  0.1032  1.7373
13812TIP3    H262852   3.547   2.894  16.316 -0.2678  0.3375 -0.7615
13813TIP3   OH262853   2.019   6.358   3.273  0.1940 -0.6498 -0.2689
13813TIP3    H162854   2.073   6.336   3.197  0.8023 -0.6752  0.1569
13813TIP3    H262855   1.954   6.288   3.278  0.6598 -1.0924 -0.2938
13814TIP3   OH262856   3.179   0.545  17.155  0.1938  0.6502  0.2287
13814TIP3    H162857   3.183   0.455  17.124  0.6758  1.0543 -0.9436
13814TIP3    H262858   3.136   0.540  17.241 -1.1870 -0.5110 -0.4954
13815TIP3   OH262859   1.446   6.478  14.722 -0.3710 -0.2400  0.2203
13815TIP3    H162860   1.408   6.412  14.780  1.6740 -0.0194  1.9117
13815TIP3    H262861   1.418   6.561  14.759  0.9948 -0.0974  0.9874
13816TIP3   OH262862   0.821   5.978  12.338  0.2020 -0.4602 -0.0434
13816TIP3    H162863   0.859   6.062  12.365  0.8269 -0.8851  0.4330
13816TIP3    H262864   0.812   5.985  12.243 -1.8229  0.9738  0.1865
13817TIP3   OH262865   5.744   5.009   6.152  0.2768  0.1468 -0.0572
13817TIP3    H162866   5.714   4.922   6.126 -2.1940  1.0510 -0.5220
13817TIP3    H262867   5.710   5.020   6.241 -0.6176  1.1042 -0.4900
13818TIP3   OH262868   1.844   1.767   1.287  0.2786  0.0270  0.8148
13818TIP3    H162869   1.865   1.674   1.285  0.6699  0.1107  0.9623
13818TIP3    H262870   1.803   1.781   1.372 -1.1103 -0.2867  0.2231
13819TIP3   OH262871   0.873   0.516  15.232  0.3210 -0.0294 -0.5440
13819TIP3    H162872   0.879   0.509  15.137  0.2435 -0.4936 -0.5176
13819TIP3    H262873   0.923   0.441  15.265 -0.3627 -0.3601 -0.2362
13820TIP3   OH262874   1.360   1.381  11.344  0.4305 -0.4678 -0.7134
13820TIP3    H162875   1.339   1.424  11.261  0.4815  1.7448  0.3339
13820TIP3    H262876   1.321   1.294  11.336 -2.1877  0.6871 -1.9297
13821TIP3   OH262877   2.326   1.262  15.375  0.8916  0.2342 -0.2522
13821TIP3    H162878   2.276   1.232  15.452 -0.6669 -0.2970 -1.4242
13821TIP3    H262879   2.287   1.346  15.352  2.0519  0.8978  0.1229
13822TIP3   OH262880   4.665   3.305   1.315 -0.1038  0.0391  0.1746
13822TIP3    H162881   4.643   3.331   1.225  1.2951  1.6618  0.2374
13822TIP3    H262882   4.614   3.226   1.331 -0.2184 -0.4086 -2.1184
13823TIP3   OH262883   3.289   6.632   5.178 -0.4493  0.4645 -0.2819
13823TIP3    H162884   3.230   6.583   5.236 -2.3966  0.0117 -2.4766
13823TIP3    H262885   3.371   6.582   5.179 -1.1331 -0.6933  0.4622
13824TIP3   OH262886   0.627   2.895   0.698  0.1976 -0.3714  0.1366
13824TIP3    H162887   0.661   2.834   0.764  1.6244  1.4687  1.1893
13824TIP3    H262888   0.546   2.929   0.736 -0.6748 -1.6269 -0.5116
13825TIP3   OH262889   3.116   5.957  15.752  0.2397  0.4307 -0.1613
13825TIP3    H162890   3.194   5.902  15.755  0.1101  0.2447 -0.2018
13825TIP3    H262891   3.150   6.047  15.753  0.5166  0.3561 -1.4889
13826TIP3   OH262892   2.809   1.423  13.536 -0.3228 -0.0671  0.0623
13826TIP3    H162893   2.720   1.451  13.555  0.2486  0.5759  2.0259
13826TIP3    H262894   2.822   1.443  13.443 -3.2713 -3.1859 -1.2252
13827TIP3   OH262895   1.402   3.927  15.266  0.5238 -0.1649 -0.0222
13827TIP3    H162896   1.374   3.960  15.180  0.4607  1.4557  0.5872
13827TIP3    H262897   1.371   3.993  15.328 -0.5594 -1.9174  1.4114
13828TIP3   OH262898   4.063   0.034  15.749 -0.6991 -0.0317 -0.1307
13828TIP3    H162899   4.066  -0.015  15.830  1.3672 -2.4616 -1.5311
13828TIP3    H262900   4.130   0.102  15.759 -2.4447  1.6177  1.1845
13829TIP3   OH262901   0.959   5.849  10.478  0.3635 -0.3321  0.1505
13829TIP3    H162902   0.993   5.928  10.518  2.8862 -0.5990 -1.2498
13829TIP3    H262903   0.894   5.880  10.415  0.3723  0.4993  0.5429
13830TIP3   OH262904   4.043   3.725   0.608  0.0083 -0.3697  0.1967
13830TIP3    H162905   4.010   3.718   0.519  2.2327  0.9484 -0.7927
13830TIP3    H262906   4.017   3.812   0.637  0.8976 -0.0604  0.1055
13831TIP3   OH262907   3.683   6.611   1.328  0.1267  0.2250  0.1984
13831TIP3    H162908   3.624   6.547   1.288 -1.2122  1.2198  0.5148
13831TIP3    H262909   3.756   6.619   1.266  0.0220 -1.1462 -0.1215
13832TIP3   OH262910   0.093   0.918   3.023  0.4190 -0.3715 -0.0321
13832TIP3    H162911   0.144   0.874   2.956  0.0418  0.1592 -0.6798
13832TIP3    H262912   0.042   0.984   2.975  0.3259  0.1744  0.8017
13833TIP3   OH262913   2.227   3.438  11.157  0.2719  0.2630 -0.3191
13833TIP3    H162914   2.135   3.449  11.134  0.2559 -0.2762 -0.5183
13833TIP3    H262915   2.270   3.516  11.121  0.1268 -0.1865 -1.5178
13834TIP3   OH262916   6.014   5.291   5.706 -0.0831 -0.1428 -0.7842
13834TIP3    H162917   6.106   5.316   5.716 -0.2901  0.7451 -1.0462
13834TIP3    H262918   5.969   5.372   5.682 -0.8601 -0.6590 -1.1201
13835TIP3   OH262919   1.272   1.718  13.557 -0.4020 -0.0526 -0.4970
13835TIP3    H162920   1.233   1.634  13.533 -0.4177  0.5251 -2.6672
13835TIP3    H262921   1.250   1.728  13.650 -0.7042 -2.2524 -0.2645
13836TIP3   OH262922   4.761   4.741   0.303  0.5225  0.2881 -0.3388
13836TIP3    H162923   4.834   4.789   0.343  0.7256  1.4849 -2.0368
13836TIP3    H262924   4.800   4.659   0.274  0.4242 -0.5031  1.6104
13837TIP3   OH262925   0.276   2.293   5.301  0.0122 -0.7495 -0.7921
13837TIP3    H162926   0.336   2.241   5.354  0.2311  0.3086  0.0423
13837TIP3    H262927   0.332   2.335   5.236  0.3476  0.7997  0.4260
13838TIP3   OH262928   3.329   3.537   0.263  0.1586 -0.6290 -0.1697
13838TIP3    H162929   3.345   3.485   0.342  2.5773  1.3964  0.7984
13838TIP3    H262930   3.305   3.623   0.296  1.4014  0.3083 -1.6072
13839TIP3   OH262931   6.094   4.303   1.954 -0.1072  0.1066 -0.3043
13839TIP3    H162932   6.089   4.308   1.858  0.6340 -0.8519 -0.4063
13839TIP3    H262933   6.181   4.268   1.972  0.7913  2.6425  0.8365
13840TIP3   OH262934   5.401   0.656  13.543  0.3366 -0.4009 -0.2683
13840TIP3    H162935   5.438   0.571  13.566  4.0112  1.3580  0.9155
13840TIP3    H262936   5.442   0.678  13.459 -0.2104  0.4220 -0.3342
13841TIP3   OH262937   4.366   2.093  11.415  0.1562  0.0736 -0.2374
13841TIP3    H162938   4.305   2.165  11.423  1.3307  0.9829  0.8856
13841TIP3    H262939   4.413   2.110  11.333  1.1422  1.1794  0.5355
13842TIP3   OH262940   4.574   1.192  10.751  0.0561  0.4514  0.1117
13842TIP3    H162941   4.496   1.214  10.802 -0.9349  0.1304 -1.1886
13842TIP3    H262942   4.566   1.246  10.672  2.1003  1.7450  0.7144
13843TIP3   OH262943   6.163   4.077   5.545 -0.3665  0.5782 -0.5472
13843TIP3    H162944   6.217   4.134   5.600  0.6133  2.2176 -3.0078
13843TIP3    H262945   6.077   4.075   5.588  0.4456  1.4447  1.1921
13844TIP3   OH262946   2.030   2.638  12.918  0.0773  0.1793  0.0989
13844TIP3    H162947   2.005   2.685  12.838  1.4957  2.1528  0.7353
13844TIP3    H262948   1.964   2.569  12.927 -1.7562  1.6538 -1.2643
13845TIP3   OH262949   1.034   0.777   1.538  0.0118 -0.7447  0.7328
13845TIP3    H162950   0.966   0.756   1.601 -0.3276  0.7064  0.8818
13845TIP3    H262951   0.989   0.825   1.469  0.6357 -1.0326  0.1141
13846TIP3   OH262952   4.428   3.954   6.078  1.0833 -0.2488  0.0438
13846TIP3    H162953   4.412   4.049   6.076  1.0024 -0.2719 -0.5186
13846TIP3    H262954   4.443   3.931   5.986  0.1620 -0.9474  0.0657
13847TIP3   OH262955   2.036   3.458   2.722  0.0854 -0.3634  0.3669
13847TIP3    H162956   2.025   3.373   2.679  0.0995  0.4794 -1.4285
13847TIP3    H262957   2.023   3.521   2.651 -0.6551  1.1618  1.8073
13848TIP3   OH262958   6.072   4.423  14.443  0.3503 -0.2336 -0.7941
13848TIP3    H162959   6.142   4.429  14.379  0.1992 -2.8366 -1.3431
13848TIP3    H262960   6.023   4.345  14.417 -1.1775  0.0114  1.0919
13849TIP3   OH262961   2.080   5.423   2.650 -0.3817 -0.4740 -0.1846
13849TIP3    H162962   2.097   5.346   2.597  1.2904 -0.7042  0.6264
13849TIP3    H262963   2.138   5.414   2.725 -1.1653  0.8871  0.6209
13850TIP3   OH262964   1.991   0.843  16.772  0.0820 -0.5442  0.0154
13850TIP3    H162965   2.000   0.779  16.843 -1.6264  0.2094  0.9609
13850TIP3    H262966   1.923   0.806  16.716  0.3597 -0.3970 -0.4209
13851TIP3   OH262967   1.074   2.707   5.781  0.1834  0.1476  0.3066
13851TIP3    H162968   1.154   2.738   5.737 -0.4650 -0.9995 -1.8312
13851TIP3    H262969   1.005   2.722   5.716 -1.1657  0.1000  1.6928
13852TIP3   OH262970   3.313   1.075  11.094 -0.2028  0.3463 -0.1324
13852TIP3    H162971   3.315   1.000  11.153 -0.6524 -0.0496 -0.6100
13852TIP3    H262972   3.310   1.037  11.006 -0.4605  0.9196 -0.3811
13853TIP3   OH262973   2.470   3.846  10.402  0.3890 -0.3935 -0.3137
13853TIP3    H162974   2.443   3.754  10.393  0.9234 -0.7208  1.1276
13853TIP3    H262975   2.402   3.885  10.456  1.2001 -0.4639  0.7828
13854TIP3   OH262976   2.489   5.643   2.890 -0.2097  0.7026  0.2985
13854TIP3    H162977   2.555   5.593   2.937 -0.4485  0.6388  0.5668
13854TIP3    H262978   2.431   5.677   2.958  0.6636  2.4084  0.2482
13855TIP3   OH262979   4.848   1.337  13.111 -0.0999  0.3987 -0.3690
13855TIP3    H162980   4.827   1.359  13.202 -2.6638 -0.6627 -0.6065
13855TIP3    H262981   4.834   1.242  13.105  0.6007  0.3441 -1.7552
13856TIP3   OH262982   1.954   4.470   2.037  0.3142  0.2634 -0.3240
13856TIP3    H162983   1.870   4.438   2.003 -0.2201 -0.4404  1.5254
13856TIP3    H262984   2.016   4.454   1.966 -1.0159  0.3805 -1.5679
13857TIP3   OH262985   5.624   6.650  15.393 -0.5031 -0.0351 -0.0533
13857TIP3    H162986   5.544   6.640  15.445 -2.0769  1.1968 -2.0711
13857TIP3    H262987   5.685   6.696  15.451 -1.4200 -0.5143  1.3461
13858TIP3   OH262988   1.615   3.856  14.991  0.4340 -0.0102 -0.5005
13858TIP3    H162989   1.524   3.878  15.007  0.7826  0.2994  1.2429
13858TIP3    H262990   1.648   3.927  14.936  0.0221  0.6890  0.1477
13859TIP3   OH262991   3.947   4.516  13.202  0.3418  0.3956 -0.6161
13859TIP3    H162992   3.864   4.529  13.248 -0.0500 -1.2968 -0.7837
13859TIP3    H262993   4.000   4.592  13.226 -0.4960  0.4528  1.1993
13860TIP3   OH262994   0.232   4.508  14.557  0.0574  0.5751  0.0783
13860TIP3    H162995   0.154   4.537  14.509 -0.0271  1.6810  0.8531
13860TIP3    H262996   0.198   4.447  14.623  0.2289 -1.3567 -1.5136
13861TIP3   OH262997   5.797   3.134   3.358  0.0005  0.0517  0.0840
13861TIP3    H162998   5.805   3.110   3.265  2.7661 -2.2617  0.7778
13861TIP3    H262999   5.705   3.116   3.378 -0.4014 -0.4961 -1.9289
13862TIP3   OH263000   3.392   2.926  11.398  0.1553 -0.1405 -0.1993
13862TIP3    H163001   3.466   2.939  11.457  0.1591 -2.2648  0.3362
13862TIP3    H263002   3.340   2.858  11.440 -0.9321 -0.2486 -1.6559
13863TIP3   OH263003   0.752   5.135   0.841 -0.1028 -0.0613 -0.5414
13863TIP3    H163004   0.720   5.046   0.859 -0.5935  0.3612  0.8174
13863TIP3    H263005   0.683   5.192   0.874  0.8366  0.8401 -0.0639
13864TIP3   OH263006   4.754   4.956   5.101 -0.0831 -0.1720 -0.0798
13864TIP3    H163007   4.842   4.928   5.128  0.0404 -0.3316 -0.6331
13864TIP3    H263008   4.716   4.994   5.180 -0.2202 -1.8130  0.6704
13865TIP3   OH263009   3.696   6.131  12.988  0.2373  0.5953  0.2848
13865TIP3    H163010   3.684   6.225  12.973 -0.4155  0.8492  2.1422
13865TIP3    H263011   3.613   6.092  12.960 -0.7763  1.0084  2.4434
13866TIP3   OH263012   0.674   0.408  17.147 -0.5518  0.0014 -0.5365
13866TIP3    H163013   0.677   0.313  17.154 -0.6247  0.1128  1.2754
13866TIP3    H263014   0.588   0.432  17.179  1.1171  0.9654  3.9240
13867TIP3   OH263015   3.961   1.463   2.749 -0.1464  0.3595 -0.4048
13867TIP3    H163016   3.950   1.369   2.732  0.6261  0.0170  0.8289
13867TIP3    H263017   4.001   1.467   2.836 -1.5098  1.8857  0.2061
13868TIP3   OH263018   0.086   1.983  10.440  0.0980 -0.6806  0.2284
13868TIP3    H163019   0.057   1.945  10.357  0.9243  1.3617 -1.0683
13868TIP3    H263020   0.039   2.066  10.447  0.3921 -0.5924  1.5953
13869TIP3   OH263021   5.829   5.689   4.810  0.1361 -0.6043 -0.2031
13869TIP3    H163022   5.759   5.662   4.750  1.4486 -0.3735 -1.9057
13869TIP3    H263023   5.865   5.768   4.771  1.4924 -0.8337  0.5279
13870TIP3   OH263024   3.442   1.059  14.661  0.0961  0.5595 -0.1551
13870TIP3    H163025   3.443   1.016  14.575 -0.5142  2.9920 -1.5048
13870TIP3    H263026   3.494   1.139  14.648 -1.8411  2.1154  1.0389
13871TIP3   OH263027   2.471   1.689  16.512  0.2611 -0.4019  0.3038
13871TIP3    H163028   2.546   1.647  16.554 -0.6410 -1.1184  1.2220
13871TIP3    H263029   2.396   1.663  16.564 -0.6112  0.5309 -0.4449
13872TIP3   OH263030   0.936   5.529   6.556  0.6181  0.3952 -0.4510
13872TIP3    H163031   1.029   5.536   6.578  0.2871  0.8818  0.9532
13872TIP3    H263032   0.903   5.619   6.561 -0.7721 -0.1038  3.4719
13873TIP3   OH263033   6.678   5.499   2.135 -0.2430  0.4844  0.1655
13873TIP3    H163034   6.595   5.483   2.180 -0.0250  1.2102  0.8624
13873TIP3    H263035   6.713   5.412   2.115 -1.2914  0.1742 -0.3828
13874TIP3   OH263036   5.996   3.877  12.659  0.0440 -0.2444 -0.5517
13874TIP3    H163037   5.918   3.896  12.711  0.1883  1.1232 -0.7971
13874TIP3    H263038   5.975   3.911  12.572  0.7952 -0.1426 -0.6979
13875TIP3   OH263039   3.860   5.621  12.678 -0.0454 -0.8753  0.2228
13875TIP3    H163040   3.934   5.681  12.668  0.0955 -0.7278  1.8903
13875TIP3    H263041   3.887   5.542  12.631  0.7367 -0.4688 -0.0430
13876TIP3   OH263042   0.728   1.022  14.659 -0.3110  0.5742  0.1429
13876TIP3    H163043   0.686   0.967  14.724  1.2111  0.0950  0.7738
13876TIP3    H263044   0.776   0.961  14.603  0.4493  1.1538  0.1339
13877TIP3   OH263045   4.840   3.057   3.415 -0.4261 -0.1248 -0.5363
13877TIP3    H163046   4.844   2.985   3.477  0.7546  1.1790  0.9998
13877TIP3    H263047   4.926   3.100   3.422 -0.2549  0.1125 -3.0658
13878TIP3   OH263048   1.731   4.455   0.297  0.0150 -0.6706  0.2662
13878TIP3    H163049   1.717   4.361   0.302 -1.7661 -0.4010  1.1917
13878TIP3    H263050   1.659   4.487   0.241 -0.5108  0.3080  1.4505
13879TIP3   OH263051   0.993   1.645  14.915 -0.3203  0.3666 -0.2748
13879TIP3    H163052   0.918   1.635  14.856 -0.3419  2.5550 -0.6903
13879TIP3    H263053   0.956   1.633  15.002 -0.6376 -1.1001 -0.5839
13880TIP3   OH263054   4.326   0.521   3.187 -0.2683  0.1088  0.0013
13880TIP3    H163055   4.266   0.593   3.206 -1.5682 -0.5126 -1.4941
13880TIP3    H263056   4.278   0.465   3.126  1.7603 -0.5354 -1.1156
13881TIP3   OH263057   5.230   4.432   0.254  0.0259 -0.0311  0.0262
13881TIP3    H163058   5.212   4.357   0.198  2.4391  0.2336 -1.2807
13881TIP3    H263059   5.226   4.507   0.195 -0.5038  0.6717  0.9188
13882TIP3   OH263060   5.726   0.810   0.217 -0.5290  0.1740  0.1306
13882TIP3    H163061   5.705   0.797   0.310 -1.1576 -0.5861 -0.1099
13882TIP3    H263062   5.643   0.797   0.172 -0.2840  0.8242 -0.5196
13883TIP3   OH263063   0.122   3.568   2.471  0.3434 -0.2651  0.4835
13883TIP3    H163064   0.029   3.559   2.447  0.0634 -1.2544  1.8055
13883TIP3    H263065   0.165   3.594   2.390 -1.2135  1.0692  0.0299
13884TIP3   OH263066   0.994   3.778   3.651  0.1081  0.1113 -0.0988
13884TIP3    H163067   1.039   3.848   3.605 -0.6305  1.3160  0.9271
13884TIP3    H263068   1.056   3.749   3.718 -0.8742  2.4763  1.9981
13885TIP3   OH263069   6.743   1.473   1.750  0.0519 -0.3161 -0.2759
13885TIP3    H163070   6.660   1.492   1.794 -0.1347 -2.5893  0.4857
13885TIP3    H263071   6.797   1.550   1.767 -1.2259  0.3597  0.9455
13886TIP3   OH263072   2.842   6.242  15.010  0.5466  0.1330 -0.1019
13886TIP3    H163073   2.750   6.267  15.013 -0.0056 -1.0007 -3.3483
13886TIP3    H263074   2.843   6.151  15.041  0.7793  0.5040  1.0077
13887TIP3   OH263075   0.863   4.791   4.132 -0.4745 -0.2567 -0.2287
13887TIP3    H163076   0.886   4.821   4.220 -2.4804  0.5610  0.0741
13887TIP3    H263077   0.912   4.850   4.073 -2.4127  2.1016  0.3728
13888TIP3   OH263078   6.206   0.333  12.863  0.4693 -0.5097 -0.3618
13888TIP3    H163079   6.300   0.313  12.864  1.5350  3.3048 -2.5794
13888TIP3    H263080   6.187   0.360  12.953  1.9940  0.2848 -0.2326
13889TIP3   OH263081   0.037   5.321  13.801 -0.2662  0.3926 -0.1593
13889TIP3    H163082   0.063   5.395  13.855  1.5259  0.7989 -1.4809
13889TIP3    H263083   0.090   5.330  13.721 -0.1066 -2.1947 -0.4273
13890TIP3   OH263084   3.301   6.101  16.883  0.5433 -0.3819 -0.1758
13890TIP3    H163085   3.359   6.090  16.958  0.7811 -1.3789 -0.4837
13890TIP3    H263086   3.361   6.104  16.808  0.1881 -1.9296 -0.5442
13891TIP3   OH263087   2.752   0.360   3.044 -0.4063 -0.0266  0.1640
13891TIP3    H163088   2.822   0.406   3.090 -2.5839  0.1516  3.7259
13891TIP3    H263089   2.724   0.421   2.976  2.0536  0.3503 -0.5918
13892TIP3   OH263090   6.016   3.665   0.287  0.2042 -0.1815 -0.3487
13892TIP3    H163091   5.931   3.680   0.247  0.2243 -0.9736 -0.7027
13892TIP3    H263092   6.061   3.750   0.281  0.0959 -0.2072 -1.7310
13893TIP3   OH263093   0.429   3.203  17.111 -0.0637 -0.5377 -0.8831
13893TIP3    H163094   0.456   3.149  17.184  3.4590  1.3582 -0.5735
13893TIP3    H263095   0.396   3.283  17.151  1.4184  0.3127 -1.2820
13894TIP3   OH263096   5.210   5.984  15.934  0.1944  0.2194  0.1231
13894TIP3    H163097   5.278   5.917  15.924  0.0073  0.1826 -1.0328
13894TIP3    H263098   5.203   6.025  15.848 -1.7343 -0.2506  0.0046
13895TIP3   OH263099   1.642   0.361  13.225  0.1772  0.0742 -0.0553
13895TIP3    H163100   1.650   0.454  13.248 -0.1566 -0.0423  0.5665
13895TIP3    H263101   1.722   0.321  13.259 -0.3123 -0.0964  0.9651
13896TIP3   OH263102   5.769   6.480   4.786 -0.3234  0.2209 -0.8099
13896TIP3    H163103   5.796   6.572   4.793 -0.0913  0.1731 -1.0715
13896TIP3    H263104   5.727   6.461   4.870  3.1990 -0.6165  0.9497
13897TIP3   OH263105   4.702   6.366   2.641 -0.6249  0.0229  0.1219
13897TIP3    H163106   4.606   6.363   2.640 -0.6033 -1.3893 -1.3128
13897TIP3    H263107   4.722   6.447   2.689 -2.5341  0.9815 -0.5623
13898TIP3   OH263108   1.982   3.070  16.938 -0.3200  0.3478  0.3942
13898TIP3    H163109   2.071   3.102  16.948  0.1115 -0.5203 -0.4229
13898TIP3    H263110   1.927   3.136  16.979  0.7138  0.7964  1.0780
13899TIP3   OH263111   6.313   4.254   1.498  0.0792  0.0577 -0.0325
13899TIP3    H163112   6.268   4.313   1.558  0.7158 -0.3276  0.8358
13899TIP3    H263113   6.306   4.297   1.412 -1.8215  0.0699  0.0888
13900TIP3   OH263114   0.258   1.813   4.155 -0.2498 -0.0151  0.3445
13900TIP3    H163115   0.307   1.805   4.237 -1.1989  0.5010  0.9769
13900TIP3    H263116   0.219   1.726   4.141  1.4108 -0.6600 -0.5615
13901TIP3   OH263117   0.826   0.616   5.764 -0.0536  0.0570  0.4550
13901TIP3    H163118   0.731   0.630   5.766 -0.2775 -0.6179 -1.7713
13901TIP3    H263119   0.855   0.663   5.686  1.1214 -1.3329  0.0053
13902TIP3   OH263120   1.266   2.111  17.068  0.1701 -0.0121  0.4319
13902TIP3    H163121   1.321   2.108  16.990 -1.1576  2.7545 -0.7584
13902TIP3    H263122   1.327   2.125  17.140  1.1750  2.0825 -0.7444
13903TIP3   OH263123   2.206   3.601   3.633  0.2112 -0.4098  0.0570
13903TIP3    H163124   2.141   3.611   3.564 -0.2947 -1.2102  0.4125
13903TIP3    H263125   2.262   3.679   3.625 -0.7270  0.2344 -0.3023
13904TIP3   OH263126   1.215   2.463  14.413 -0.4448 -0.2694 -0.6040
13904TIP3    H163127   1.270   2.507  14.348 -0.6689  0.3538 -0.3747
13904TIP3    H263128   1.143   2.425  14.361 -0.8736  0.6140 -0.6861
13905TIP3   OH263129   6.535   6.664  16.635  0.1233 -0.4478  0.8523
13905TIP3    H163130   6.468   6.707  16.583  2.0431  1.3968 -0.2584
13905TIP3    H263131   6.519   6.571  16.623 -0.7098 -0.0734 -1.4600
13906TIP3   OH263132   5.897   6.517   1.529  0.2177 -1.0639 -0.0867
13906TIP3    H163133   5.911   6.535   1.622  3.8261 -1.3522 -0.4202
13906TIP3    H263134   5.871   6.425   1.526  1.6537 -1.5328  0.6374
13907TIP3   OH263135   1.533   4.377  13.829 -0.0122 -0.4551 -0.4898
13907TIP3    H163136   1.614   4.327  13.829  0.1090 -0.3269 -2.1903
13907TIP3    H263137   1.513   4.391  13.921  0.4922 -2.7474  0.0422
13908TIP3   OH263138   1.836   2.986   0.549 -0.1905 -0.3622 -0.2398
13908TIP3    H163139   1.921   2.989   0.594  0.3423 -1.1203 -1.1562
13908TIP3    H263140   1.846   3.046   0.475 -1.3599  1.5627  1.0685
13909TIP3   OH263141   2.255   5.218  16.215 -0.2232  0.0556 -0.1169
13909TIP3    H163142   2.242   5.250  16.126  0.8755  1.5133  0.1989
13909TIP3    H263143   2.320   5.149  16.206 -2.0131 -1.6546 -0.7117
13910TIP3   OH263144   3.889   1.408   3.514 -0.8671 -0.5908 -0.0302
13910TIP3    H163145   3.900   1.489   3.564  1.3312 -0.9873  0.2312
13910TIP3    H263146   3.844   1.435   3.434 -0.6341  0.8003  0.2830
13911TIP3   OH263147   5.583   4.148   6.151  0.0606 -0.0437  0.0354
13911TIP3    H163148   5.576   4.198   6.233 -0.7265  1.0157 -0.6618
13911TIP3    H263149   5.658   4.187   6.106 -0.6244  0.5994 -0.5613
13912TIP3   OH263150   2.465   1.745   3.348  0.1547  0.1876 -0.6489
13912TIP3    H163151   2.518   1.738   3.427  0.1981  1.8016 -0.4833
13912TIP3    H263152   2.482   1.834   3.316  0.9764 -0.7609 -3.0908
13913TIP3   OH263153   3.394   4.006  10.371  0.4822 -0.0395 -0.1658
13913TIP3    H163154   3.458   4.008  10.299 -0.6720 -1.0534 -1.2754
13913TIP3    H263155   3.444   3.973  10.446  0.7945 -3.2861 -1.6131
13914TIP3   OH263156   4.099   2.124   2.230  0.0901 -0.5475 -0.2061
13914TIP3    H163157   4.138   2.048   2.274  1.1191  0.0740 -0.0311
13914TIP3    H263158   4.164   2.193   2.239 -0.6285  0.2205 -0.8053
13915TIP3   OH263159   2.951   1.707  16.087 -0.5853 -0.3051 -0.1101
13915TIP3    H163160   2.943   1.742  15.998 -1.2132  0.6028  0.2971
13915TIP3    H263161   3.002   1.772  16.134  0.5540 -1.2249 -0.0246
13916TIP3   OH263162   4.170   2.008  15.758  0.6578 -0.4568 -0.2168
13916TIP3    H163163   4.103   2.063  15.797  1.0806  0.4892 -0.7822
13916TIP3    H263164   4.192   1.945  15.826  0.2447  0.1479  0.4950
13917TIP3   OH263165   3.685   6.475   4.141 -0.0352 -0.4929  0.2339
13917TIP3    H163166   3.592   6.457   4.155 -0.2218  0.5239  0.3635
13917TIP3    H263167   3.730   6.408   4.192 -0.7048 -0.2177  1.2173
13918TIP3   OH263168   3.448   5.671  10.431  0.1800  0.2957 -0.3415
13918TIP3    H163169   3.492   5.615  10.495  0.8493 -0.4094 -1.3699
13918TIP3    H263170   3.432   5.613  10.356 -3.4776  0.2363  0.3211
13919TIP3   OH263171   4.836   3.641   0.495 -0.3423  0.1034 -0.0193
13919TIP3    H163172   4.818   3.731   0.467 -1.3618  1.0745  3.2549
13919TIP3    H263173   4.930   3.631   0.487 -0.2939  1.2176 -1.0393
13920TIP3   OH263174   0.693   2.446   0.958  0.0175  0.1032 -0.1828
13920TIP3    H163175   0.652   2.363   0.982  1.9933 -0.8177  0.2269
13920TIP3    H263176   0.648   2.473   0.878  0.0184 -1.9066 -0.9162
13921TIP3   OH263177   5.036   4.764  15.130 -0.1002 -0.0289 -0.3438
13921TIP3    H163178   4.973   4.701  15.096 -1.2560  0.1655  1.3112
13921TIP3    H263179   5.119   4.740  15.089 -0.4301 -2.7960  0.4077
13922TIP3   OH263180   4.867   5.576   3.008  0.2366 -0.0001  0.6370
13922TIP3    H163181   4.900   5.642   3.069  0.5162  0.5301 -0.0900
13922TIP3    H263182   4.891   5.493   3.049 -0.7339  0.3115  1.9070
13923TIP3   OH263183   0.804   3.270   0.221 -0.0292 -0.3409 -0.1435
13923TIP3    H163184   0.817   3.254   0.314 -0.2575 -0.1677 -0.0803
13923TIP3    H263185   0.710   3.288   0.213 -0.0275 -0.4503 -0.4208
13924TIP3   OH263186   1.991   1.703  12.053 -0.2764  0.5664  0.5072
13924TIP3    H163187   1.909   1.749  12.031 -1.5873 -2.1243 -0.6281
13924TIP3    H263188   2.039   1.701  11.971  0.1808  0.6352  0.7705
13925TIP3   OH263189   5.389   1.906  14.217 -0.4695 -0.2266  0.1016
13925TIP3    H163190   5.355   1.836  14.161  0.8905 -1.4686  0.7580
13925TIP3    H263191   5.311   1.952  14.249 -1.5076 -2.3738  0.8306
13926TIP3   OH263192   4.289   4.883   0.733 -0.3633 -0.9769 -0.2963
13926TIP3    H163193   4.206   4.836   0.731  0.4206 -2.3846 -0.7426
13926TIP3    H263194   4.277   4.954   0.670 -0.8348 -1.8531 -1.2204
13927TIP3   OH263195   2.390   0.711  12.521 -0.0146  0.0785 -0.2998
13927TIP3    H163196   2.432   0.631  12.553 -0.7448 -0.6223 -1.0462
13927TIP3    H263197   2.437   0.782  12.565  0.8943 -0.7404  0.0923
13928TIP3   OH263198   6.735   6.651   4.697  0.4451  0.3011  0.5018
13928TIP3    H163199   6.769   6.565   4.720  0.1035 -0.0340 -0.2169
13928TIP3    H263200   6.646   6.634   4.667  1.4903  0.3595 -3.1227
13929TIP3   OH263201   3.894   0.034  12.556  0.4840 -0.2631  0.2166
13929TIP3    H163202   3.840   0.098  12.601  1.2549  1.0435 -0.6719
13929TIP3    H263203   3.984   0.052  12.584  0.7745 -0.5852 -0.4596
13930TIP3   OH263204   5.528   0.085  13.208  0.6067 -0.6729 -0.6741
13930TIP3    H163205   5.467   0.037  13.152 -0.4449 -1.8624  1.3632
13930TIP3    H263206   5.614   0.068  13.171 -0.1759  2.3369 -4.6341
13931TIP3   OH263207   5.907   5.278   3.992 -0.0673  1.2163  0.3097
13931TIP3    H163208   5.832   5.330   4.020 -0.7534  0.6239 -0.3703
13931TIP3    H263209   5.971   5.341   3.960 -0.3208  1.7196  0.7874
13932TIP3   OH263210   6.775   1.353  11.911  0.5015  0.0543 -0.0468
13932TIP3    H163211   6.723   1.342  11.990  1.0659  2.7421  0.8060
13932TIP3    H263212   6.713   1.388  11.846  0.9226  2.4135  0.7109
13933TIP3   OH263213   5.578   5.131  11.850  0.4846 -0.8043 -0.4084
13933TIP3    H163214   5.597   5.203  11.910 -0.1593  1.7678 -3.0765
13933TIP3    H263215   5.488   5.106  11.871 -0.0770  0.7196 -0.8727
13934TIP3   OH263216   3.212   3.000  16.462 -0.0426  0.7493 -0.1518
13934TIP3    H163217   3.298   2.991  16.502  1.0022 -1.3566 -2.6147
13934TIP3    H263218   3.221   3.073  16.400  0.5459 -0.4910 -1.5887
13935TIP3   OH263219   2.690   0.663  13.840  0.4875 -0.4546  0.0670
13935TIP3    H163220   2.680   0.753  13.869  1.6658  0.1737 -1.4183
13935TIP3    H263221   2.667   0.611  13.918  0.6654  1.1146  1.2176
13936TIP3   OH263222   1.630   2.388  13.453 -0.2344  0.7142 -0.2375
13936TIP3    H163223   1.657   2.338  13.530  0.8418 -1.5360 -1.9417
13936TIP3    H263224   1.711   2.400  13.403 -1.2689 -0.2120 -2.2505
13937TIP3   OH263225   4.309   5.384   3.593  0.0539  0.3811  0.2992
13937TIP3    H163226   4.213   5.392   3.596 -0.0303 -0.5861  0.5540
13937TIP3    H263227   4.325   5.316   3.528  0.4987 -0.5078  1.3165
13938TIP3   OH263228   3.116   4.231   6.049  0.0057  0.2816 -0.2604
13938TIP3    H163229   3.038   4.257   6.098 -0.0143  0.9604 -0.6382
13938TIP3    H263230   3.173   4.309   6.051  0.9329 -0.3909  0.5095
13939TIP3   OH263231   4.604   5.457   3.139  0.1035  0.4534  0.3183
13939TIP3    H163232   4.593   5.502   3.222 -1.7498 -1.4361  1.1896
13939TIP3    H263233   4.649   5.376   3.161  0.9193  0.5850 -0.7721
13940TIP3   OH263234   2.989   0.316   1.919 -0.4844  0.0160 -0.1338
13940TIP3    H163235   3.054   0.303   1.850  1.3922 -1.1635  1.7559
13940TIP3    H263236   2.980   0.230   1.961 -1.6120  0.6768  1.0615
13941TIP3   OH263237   5.155   3.841  10.598 -0.2254 -0.1296  0.1356
13941TIP3    H163238   5.161   3.902  10.672  1.8481  0.3577 -0.3872
13941TIP3    H263239   5.213   3.878  10.531 -2.5666 -0.1786 -2.0619
13942TIP3   OH263240   1.925   3.169  13.341  0.6069  0.3311 -0.0316
13942TIP3    H163241   1.911   3.153  13.247 -0.6418  0.8003  0.0600
13942TIP3    H263242   1.839   3.156  13.381  0.7018  1.9484  0.7814
13943TIP3   OH263243   2.424   6.445  15.248  0.0703 -0.3647 -0.1730
13943TIP3    H163244   2.389   6.527  15.214 -0.5750 -0.5026  0.1543
13943TIP3    H263245   2.441   6.462  15.340 -0.6736 -0.7876  0.0482
13944TIP3   OH263246   0.913   0.817   4.552 -0.1190 -0.1249 -0.2285
13944TIP3    H163247   0.851   0.876   4.594  0.6717  0.4932  0.1145
13944TIP3    H263248   0.998   0.862   4.562  0.4984 -1.3227  0.0601
13945TIP3   OH263249   2.623   6.667  12.742  0.5357 -0.0212 -0.1472
13945TIP3    H163250   2.634   6.679  12.648  0.4881  0.5409 -0.0793
13945TIP3    H263251   2.712   6.659  12.776  0.5335 -1.6033 -0.4079
13946TIP3   OH263252   5.239   6.086   5.193 -0.1033  0.0726  0.4464
13946TIP3    H163253   5.262   5.994   5.178 -0.5647  0.1065 -0.5045
13946TIP3    H263254   5.144   6.086   5.201  0.0066  0.2454  2.1678
13947TIP3   OH263255   1.715   1.327  16.525  0.2516  0.1569  0.2232
13947TIP3    H163256   1.634   1.371  16.500  0.3995  0.3627  0.1029
13947TIP3    H263257   1.724   1.256  16.461 -1.3664 -1.7637  1.9636
13948TIP3   OH263258   1.575   5.680   6.250 -0.2030 -0.8138 -0.0559
13948TIP3    H163259   1.604   5.741   6.319 -2.9858 -1.6407  2.0075
13948TIP3    H263260   1.653   5.628   6.230  1.1120  0.5389  1.2728
13949TIP3   OH263261   4.762   1.297   5.398 -0.0482  0.2447  0.2868
13949TIP3    H163262   4.858   1.300   5.401  0.0112 -1.2962  0.9342
13949TIP3    H263263   4.738   1.228   5.460 -1.3917 -1.6533 -2.1205
13950TIP3   OH263264   5.703   0.268   0.349 -0.2094  0.1662  0.0284
13950TIP3    H163265   5.607   0.260   0.348 -0.2481 -0.1304 -3.0074
13950TIP3    H263266   5.731   0.236   0.263  2.6658  0.0229  0.9135
13951TIP3   OH263267   5.006   0.352   5.435  0.0820  0.2262  0.1817
13951TIP3    H163268   5.044   0.333   5.521 -2.1374 -0.9932  0.9746
13951TIP3    H263269   4.917   0.316   5.439 -0.7471  1.7880 -1.9950
13952TIP3   OH263270   0.952   3.143   5.237  0.1233 -0.2263  0.1503
13952TIP3    H163271   0.984   3.229   5.265  0.7018 -0.7811  1.2508
13952TIP3    H263272   0.967   3.142   5.142 -0.9159  1.3046 -0.0693
13953TIP3   OH263273   2.203   0.354  10.978  0.6038 -0.2794 -0.4856
13953TIP3    H163274   2.113   0.325  10.971  0.0637  1.1254  0.1279
13953TIP3    H263275   2.224   0.388  10.891  0.5831 -0.7095 -0.6592
13954TIP3   OH263276   2.696   4.618   2.321  0.2574  0.0004 -0.3505
13954TIP3    H163277   2.722   4.662   2.402 -1.2056 -1.3648  0.9353
13954TIP3    H263278   2.605   4.644   2.308 -0.7263 -2.6126  0.5629
13955TIP3   OH263279   1.991   1.260   5.631 -0.1426  0.4989 -0.8672
13955TIP3    H163280   1.897   1.277   5.623 -0.1925  0.7007  0.0480
13955TIP3    H263281   2.031   1.346   5.640  0.0848  0.3893 -0.8127
13956TIP3   OH263282   4.177   5.156  15.577 -0.5224  0.3598 -0.5637
13956TIP3    H163283   4.109   5.112  15.524 -2.4864  0.4987  1.6685
13956TIP3    H263284   4.134   5.234  15.611  0.5509  0.1243  1.4546
13957TIP3   OH263285   2.879   2.974   3.842 -0.0906  0.2603 -0.7912
13957TIP3    H163286   2.850   3.055   3.883 -0.2699  0.0152 -0.4287
13957TIP3    H263287   2.958   2.998   3.794  1.3827  0.1289  1.4154
13958TIP3   OH263288   1.217   0.980   5.708  0.2624 -0.9651 -0.1677
13958TIP3    H163289   1.211   0.945   5.797 -0.4635 -0.8134 -0.1501
13958TIP3    H263290   1.297   1.032   5.708 -0.6805  0.5962  0.9806
13959TIP3   OH263291   1.224   2.756  10.559 -0.6589  0.1897  0.2752
13959TIP3    H163292   1.177   2.699  10.498  1.7631 -0.2096 -1.3844
13959TIP3    H263293   1.281   2.697  10.609 -0.1016  0.8498  0.4479
13960TIP3   OH263294   5.749   1.070   0.114 -0.6469  0.0213  0.2393
13960TIP3    H163295   5.777   0.983   0.143  0.2533 -0.6546 -2.3572
13960TIP3    H263296   5.817   1.129   0.146 -0.1853 -0.5436  0.3187
13961TIP3   OH263297   3.171   4.045  13.448 -0.4835 -0.3135  0.2314
13961TIP3    H163298   3.109   3.974  13.467 -0.1123 -1.1258 -1.4562
13961TIP3    H263299   3.234   4.041  13.520  0.6245 -2.9921 -0.7510
13962TIP3   OH263300   2.185   2.398  13.464  0.3457 -0.0759 -0.4902
13962TIP3    H163301   2.209   2.414  13.373  1.8086 -2.6116 -0.6393
13962TIP3    H263302   2.267   2.369  13.505 -0.5236 -0.0263  1.3775
13963TIP3   OH263303   3.653   5.427   5.358  0.8479  0.0614  0.2449
13963TIP3    H163304   3.740   5.465   5.367  0.4937  1.0020 -0.0976
13963TIP3    H263305   3.596   5.488   5.406  0.0469  0.8412 -1.5965
13964TIP3   OH263306   3.697   0.243  13.557 -0.0593 -0.3239 -0.2061
13964TIP3    H163307   3.696   0.242  13.461  0.6886 -1.4262 -0.2199
13964TIP3    H263308   3.633   0.177  13.582  0.1290 -0.4107  0.0433
13965TIP3   OH263309   0.732   5.411   3.949  0.2641 -0.2921  0.3662
13965TIP3    H163310   0.813   5.361   3.958  0.2191 -0.5483 -0.6142
13965TIP3    H263311   0.718   5.419   3.855 -0.0157  1.1190  0.5113
13966TIP3   OH263312   1.298   2.266   3.315 -0.6931  0.3395  0.0889
13966TIP3    H163313   1.307   2.217   3.233  0.1923  0.4539  0.1115
13966TIP3    H263314   1.369   2.330   3.313 -0.7646  0.4539  0.8680
13967TIP3   OH263315   1.455   6.772  15.116 -0.3300 -0.6559 -0.2940
13967TIP3    H163316   1.444   6.852  15.064  0.4476  0.3756  1.0632
13967TIP3    H263317   1.393   6.783  15.189  0.5831 -0.7517  0.5107
13968TIP3   OH263318   4.197   4.606   5.739 -0.4107 -0.0135 -0.2673
13968TIP3    H163319   4.223   4.638   5.826 -1.6338  0.0608  0.0857
13968TIP3    H263320   4.101   4.607   5.741 -0.4606 -1.3553 -1.1249
13969TIP3   OH263321   0.341   5.284  13.057 -0.2289 -0.0115  0.0110
13969TIP3    H163322   0.437   5.279  13.065 -0.1820 -1.2150 -0.9792
13969TIP3    H263323   0.324   5.265  12.965 -1.4094  0.6285  0.0843
13970TIP3   OH263324   1.036   0.197   4.729  0.1708  0.3467 -0.1604
13970TIP3    H163325   0.942   0.209   4.739  0.3843  1.3003  1.0526
13970TIP3    H263326   1.052   0.207   4.635 -0.8069  1.3041 -0.2468
13971TIP3   OH263327   3.820   5.975   2.627 -0.2400  0.2999  0.0647
13971TIP3    H163328   3.869   6.009   2.552 -3.2286  2.6208 -1.0598
13971TIP3    H263329   3.752   5.920   2.588 -1.4309  0.9969  1.0451
13972TIP3   OH263330   5.199   1.041  11.918 -0.6858 -0.1189 -0.4909
13972TIP3    H163331   5.286   1.038  11.878 -0.1462 -0.9158  0.6899
13972TIP3    H263332   5.156   0.961  11.888 -1.6586  1.0307 -2.3783
13973TIP3   OH263333   5.915   6.190   0.228  0.2269  0.6112 -0.0967
13973TIP3    H163334   5.886   6.130   0.297 -0.1334 -1.5955 -2.0276
13973TIP3    H263335   5.859   6.267   0.238 -0.7262 -0.2093  1.2333
13974TIP3   OH263336   6.104   5.038   5.854  0.4623  0.0966  0.6744
13974TIP3    H163337   6.032   5.090   5.819  0.6845  1.3488  1.9928
13974TIP3    H263338   6.179   5.060   5.798  0.0432 -0.5913 -0.1910
13975TIP3   OH263339   5.133   1.686   1.722 -0.0589  0.3628 -0.3714
13975TIP3    H163340   5.067   1.694   1.791 -0.4667  0.3584 -0.7597
13975TIP3    H263341   5.092   1.723   1.644 -0.4900 -1.7348 -1.2141
13976TIP3   OH263342   5.237   0.313   5.590 -0.5847  0.2327 -0.6538
13976TIP3    H163343   5.223   0.294   5.682 -0.5741 -0.2847 -0.7551
13976TIP3    H263344   5.313   0.372   5.588  0.5388 -1.1674 -0.4402
13977TIP3   OH263345   5.924   4.807   4.049 -0.2185  0.4591  0.1550
13977TIP3    H163346   5.997   4.825   3.990 -0.6242 -0.9737 -0.8064
13977TIP3    H263347   5.861   4.876   4.030 -0.4047 -0.0603 -1.2073
13978TIP3   OH263348   1.007   6.758   0.526 -0.1922  0.0854 -0.2880
13978TIP3    H163349   0.955   6.722   0.599 -0.5580  0.5647 -0.3067
13978TIP3    H263350   1.089   6.785   0.567 -0.2630  0.0389 -0.1120
13979TIP3   OH263351   4.872   2.418   6.273  0.2067  0.7222  0.0473
13979TIP3    H163352   4.888   2.445   6.182  0.4585  2.4703  0.5755
13979TIP3    H263353   4.959   2.408   6.312  0.1058 -0.2746  0.0627
13980TIP3   OH263354   1.169   6.424  11.078 -0.3284 -0.3276  0.9843
13980TIP3    H163355   1.127   6.455  11.158  0.7742 -0.7443  1.7404
13980TIP3    H263356   1.240   6.486  11.062 -1.3910  0.5914 -0.4937
13981TIP3   OH263357   1.797   3.739  16.761  0.2535  0.4249  0.3161
13981TIP3    H163358   1.855   3.764  16.689  1.6821  0.7456  1.5086
13981TIP3    H263359   1.857   3.705  16.828 -1.1950 -1.6062  0.6524
13982TIP3   OH263360   4.302   4.381   0.219  0.1766 -0.1636 -0.4366
13982TIP3    H163361   4.273   4.295   0.248 -0.2411 -0.1376 -0.7722
13982TIP3    H263362   4.398   4.376   0.218  0.1953 -0.2736  0.6239
13983TIP3   OH263363   1.390   4.402  16.610 -0.6951  0.2744  0.1955
13983TIP3    H163364   1.425   4.391  16.522 -0.2722  0.1262  0.3789
13983TIP3    H263365   1.398   4.496  16.628 -0.0759  0.1985  0.3582
13984TIP3   OH263366   2.195   2.004   5.665  0.0940 -0.0348 -0.1236
13984TIP3    H163367   2.260   2.034   5.602  0.5101 -0.1255  0.2577
13984TIP3    H263368   2.195   2.072   5.733  1.3800 -1.0954  0.9855
13985TIP3   OH263369   3.097   3.561   4.524  0.6363 -0.2730  0.0101
13985TIP3    H163370   3.161   3.576   4.593  0.5940 -0.1457  0.0231
13985TIP3    H263371   3.092   3.466   4.515  0.5578 -0.2945  0.2613
13986TIP3   OH263372   4.091   0.076   3.163 -0.1379 -0.2468 -0.6143
13986TIP3    H163373   4.027   0.147   3.166 -1.4651 -1.3481  2.8614
13986TIP3    H263374   4.039  -0.003   3.152  0.9391 -0.9561 -0.7588
13987TIP3   OH263375   5.896   5.611  12.301  0.2404  0.3491  0.0575
13987TIP3    H163376   5.879   5.576  12.389  2.0280 -0.0551  0.2898
13987TIP3    H263377   5.961   5.550  12.264 -0.8295  0.2381 -1.7420
13988TIP3   OH263378   3.146   5.184  13.966 -0.0301 -0.4637  0.6116
13988TIP3    H163379   3.131   5.277  13.951  0.4971 -0.4000  0.4445
13988TIP3    H263380   3.119   5.141  13.885  0.5698 -0.3611  0.3504
13989TIP3   OH263381   3.038   2.737   5.901 -0.6248 -0.3710  0.4079
13989TIP3    H163382   3.114   2.695   5.943 -0.1976  0.5640  0.5880
13989TIP3    H263383   3.074   2.778   5.822 -0.8934  0.2758  0.6170
13990TIP3   OH263384   3.767   0.842   1.733  0.2297  0.5585 -0.1072
13990TIP3    H163385   3.798   0.912   1.675  0.1692  1.6651  1.1538
13990TIP3    H263386   3.817   0.854   1.814  1.9294 -2.2952 -0.5699
13991TIP3   OH263387   2.314   5.451  17.176 -0.5764  0.2970  0.3761
13991TIP3    H163388   2.392   5.455  17.232 -0.5279  1.8189  0.2186
13991TIP3    H263389   2.242   5.479  17.233 -0.9633 -0.7110  0.4037
13992TIP3   OH263390   3.553   2.539   3.033  0.5026  0.0711  0.2501
13992TIP3    H163391   3.461   2.515   3.048  0.2882  0.4170 -0.4475
13992TIP3    H263392   3.601   2.457   3.041  0.1510 -0.0926  0.7503
13993TIP3   OH263393   4.522   6.063   2.474 -0.0967 -0.4981  0.7388
13993TIP3    H163394   4.438   6.110   2.473 -0.2733 -0.8118  0.5605
13993TIP3    H263395   4.511   5.996   2.542 -0.1151 -0.7596  0.4787
13994TIP3   OH263396   1.620   0.346   4.842  0.1975  0.5429 -0.4943
13994TIP3    H163397   1.669   0.390   4.912 -1.3350  2.1535 -0.3587
13994TIP3    H263398   1.573   0.417   4.797  0.1237 -0.6159 -2.3388
13995TIP3   OH263399   5.846   6.053   0.465 -0.3629 -0.9016 -0.0539
13995TIP3    H163400   5.901   5.997   0.521 -0.4912 -0.3780  0.6081
13995TIP3    H263401   5.801   6.110   0.526  0.3636  0.4749 -0.7626
13996TIP3   OH263402   5.339   4.072  12.445  0.0342  0.8154  0.3072
13996TIP3    H163403   5.388   4.018  12.384  0.5253  2.6122 -0.9685
13996TIP3    H263404   5.247   4.051  12.428  0.2362 -0.7582  0.9809
13997TIP3   OH263405   4.193   2.093  15.112 -0.0599  0.0075 -0.1737
13997TIP3    H163406   4.156   2.015  15.155  1.3054 -0.1120  0.8679
13997TIP3    H263407   4.267   2.059  15.062 -0.6504  0.3873 -1.3259
13998TIP3   OH263408   2.956   5.183  13.537  0.1571  0.1429 -0.2784
13998TIP3    H163409   2.995   5.265  13.506  0.8929 -0.1112 -0.0524
13998TIP3    H263410   2.966   5.123  13.463 -0.8338  0.3821 -0.6273
13999TIP3   OH263411   2.557   2.417   2.204 -0.2425 -1.0181  0.0991
13999TIP3    H163412   2.614   2.479   2.159 -0.4615 -0.9982 -0.1527
13999TIP3    H263413   2.473   2.462   2.213  0.0135 -0.7401  1.2035
14000TIP3   OH263414   5.801   0.945   4.131 -0.0493  0.9526 -0.2858
14000TIP3    H163415   5.737   0.893   4.083 -0.9088  1.0676  0.6983
14000TIP3    H263416   5.773   0.941   4.222  1.1090  1.3615  0.1175
14001TIP3   OH263417   4.846   1.847  13.800  0.1865 -0.2734  0.4052
14001TIP3    H163418   4.910   1.810  13.861 -0.5072 -1.0741  0.6744
14001TIP3    H263419   4.783   1.891  13.856  0.0036 -0.2858  0.2086
14002TIP3   OH263420   4.549   5.218  16.708 -0.0791  0.6003  0.1092
14002TIP3    H163421   4.512   5.195  16.793  1.1343 -0.2841  0.4293
14002TIP3    H263422   4.563   5.313  16.712  0.5085  0.4861  1.1373
14003TIP3   OH263423   3.679   1.048   4.728  0.4227  0.3568  0.0449
14003TIP3    H163424   3.774   1.054   4.722  0.5065 -0.0610  0.8283
14003TIP3    H263425   3.647   1.113   4.666  1.2187  3.9208  3.0324
14004TIP3   OH263426   3.685   4.949  13.311 -0.2789 -0.2649  0.4713
14004TIP3    H163427   3.699   4.902  13.393 -3.7689 -0.3631  1.1860
14004TIP3    H263428   3.657   5.037  13.338  0.3945  0.3203 -0.6739
14005TIP3   OH263429   6.401   2.873  15.218 -0.6865 -0.0399 -0.7616
14005TIP3    H163430   6.453   2.800  15.253 -1.1497  0.1784  0.4188
14005TIP3    H263431   6.374   2.843  15.131 -1.1987 -1.4587 -0.1425
14006TIP3   OH263432   3.232   1.089   3.954  0.2972  0.2408  0.2664
14006TIP3    H163433   3.172   1.061   3.884  1.5044  1.0894 -1.1567
14006TIP3    H263434   3.197   1.174   3.982 -0.4004 -0.2695  0.9758
14007TIP3   OH263435   0.238   5.754   3.237 -0.1154  0.1040 -0.0612
14007TIP3    H163436   0.274   5.679   3.285 -1.6567 -0.1721  0.7405
14007TIP3    H263437   0.154   5.723   3.204 -0.9227  1.5604  0.5431
14008TIP3   OH263438   1.378   3.526  13.739  0.5884 -0.2555  0.2239
14008TIP3    H163439   1.401   3.599  13.796  1.1102 -0.7091  0.5981
14008TIP3    H263440   1.433   3.454  13.768  0.5497 -0.6170 -0.5766
14009TIP3   OH263441   3.804   4.757   3.557 -0.2913  0.0388 -0.2814
14009TIP3    H163442   3.733   4.795   3.504  0.0409 -0.1555 -0.8723
14009TIP3    H263443   3.793   4.798   3.643 -1.8758 -0.9056  0.0157
14010TIP3   OH263444   1.572   0.222   2.469 -0.7716 -0.1513  0.2915
14010TIP3    H163445   1.521   0.150   2.506  0.3356 -0.8978  0.4091
14010TIP3    H263446   1.530   0.241   2.385 -0.4348 -1.6760 -0.2527
14011TIP3   OH263447   2.485   5.864   0.138 -0.0035 -0.8177  0.1008
14011TIP3    H163448   2.541   5.811   0.081  0.4816  0.4649 -0.6860
14011TIP3    H263449   2.400   5.821   0.136  0.3513 -1.5075 -0.5920
14012TIP3   OH263450   2.095   1.866   0.792  0.1122  0.2268 -0.1670
14012TIP3    H163451   2.153   1.798   0.827  1.1354  0.1594 -1.8448
14012TIP3    H263452   2.151   1.943   0.785 -0.9956  1.2615  1.5657
14013TIP3   OH263453   2.946   3.694  16.904  0.3617 -0.1431  0.4310
14013TIP3    H163454   3.041   3.682  16.907  0.4569  0.2087 -0.7147
14013TIP3    H263455   2.933   3.788  16.909  0.1987 -0.0356 -1.2787
14014TIP3   OH263456   3.262   5.495   4.201 -0.4740 -0.0011  0.6530
14014TIP3    H163457   3.358   5.497   4.199 -0.4549 -0.5390  1.1038
14014TIP3    H263458   3.239   5.403   4.196 -1.0236  0.2017 -1.3409
14015TIP3   OH263459   4.921   4.046   4.050  0.0911  0.5012 -0.4181
14015TIP3    H163460   4.969   4.008   4.123 -1.5269  0.6021  0.7477
14015TIP3    H263461   4.891   3.971   3.999  0.4222  0.3972 -0.4646
14016TIP3   OH263462   2.145   1.336   3.487 -0.0147 -0.2515 -1.1376
14016TIP3    H163463   2.148   1.429   3.510 -0.3530  0.0503 -2.2760
14016TIP3    H263464   2.055   1.309   3.507  0.4260 -0.6744  0.4014
14017TIP3   OH263465   4.801   5.065   0.941 -0.2246 -0.2499 -0.1392
14017TIP3    H163466   4.888   5.043   0.976 -0.5804 -0.6582  0.5049
14017TIP3    H263467   4.807   5.047   0.847 -0.0829 -1.7987  0.1392
14018TIP3   OH263468   3.292   0.362  16.821  0.0610  0.1864 -0.0803
14018TIP3    H163469   3.355   0.326  16.885  0.0465 -0.5121 -0.4553
14018TIP3    H263470   3.346   0.388  16.747  0.1241  1.3660  0.3653
14019TIP3   OH263471   6.280   4.895   1.343  0.0112  0.1121  0.1129
14019TIP3    H163472   6.294   4.974   1.290 -1.7685 -0.4548 -1.2894
14019TIP3    H263473   6.229   4.926   1.419 -1.8845  0.1495 -1.1172
14020TIP3   OH263474   1.851   2.591   2.884  0.4721 -0.1076  0.2981
14020TIP3    H163475   1.792   2.645   2.937 -2.1323 -2.6983  0.2702
14020TIP3    H263476   1.886   2.527   2.946  0.8441 -0.4840 -0.3016
14021TIP3   OH263477   5.967   6.712  11.013  0.2057  0.0652  0.2115
14021TIP3    H163478   5.947   6.703  11.106  1.0303 -0.1385  0.3737
14021TIP3    H263479   6.053   6.754  11.010 -0.5684  1.6953 -0.4862
14022TIP3   OH263480   5.104   4.424  13.054 -0.0273  0.0562 -0.3544
14022TIP3    H163481   5.166   4.373  13.001 -0.0445 -0.3367  0.0036
14022TIP3    H263482   5.018   4.404  13.016 -0.3176 -2.0469  1.2181
14023TIP3   OH263483   5.712   3.694   4.348  0.0712  0.6578 -0.3392
14023TIP3    H163484   5.745   3.780   4.322 -1.1765  1.8488  1.7511
14023TIP3    H263485   5.622   3.693   4.316 -0.2278  0.5391  0.4960
14024TIP3   OH263486   2.169   6.135  13.336  0.0431  0.2181 -0.0441
14024TIP3    H163487   2.193   6.053  13.292 -1.8428 -0.1731 -0.4226
14024TIP3    H263488   2.208   6.203  13.281 -1.0625 -0.3194 -1.5470
14025TIP3   OH263489   4.648   4.098   4.489 -0.0946  0.5335  0.1376
14025TIP3    H163490   4.584   4.090   4.418  1.1088 -1.8364 -0.7848
14025TIP3    H263491   4.722   4.145   4.449  0.8581 -1.3809 -0.4672
14026TIP3   OH263492   2.259   4.915   4.947 -0.3379 -0.0582 -0.0451
14026TIP3    H163493   2.275   4.884   5.037  0.8722 -1.0774 -0.5679
14026TIP3    H263494   2.171   4.884   4.926  0.1933 -1.7822  0.0529
14027TIP3   OH263495   3.188   0.723   0.983 -0.0937 -0.7681  0.1043
14027TIP3    H163496   3.200   0.660   1.055 -0.7858 -0.6713  0.3113
14027TIP3    H263497   3.274   0.727   0.940  0.2835 -0.9450  0.8283
14028TIP3   OH263498   3.885   6.021   4.070  0.4871  0.7338 -0.0583
14028TIP3    H163499   3.977   6.028   4.045  0.0243 -0.1311 -2.2973
14028TIP3    H263500   3.839   6.078   4.007 -0.7173 -1.0505 -0.8866
14029TIP3   OH263501   0.891   5.334   0.152 -1.1755 -0.4518  0.6261
14029TIP3    H163502   0.867   5.317   0.243 -0.5826  0.7753  1.0386
14029TIP3    H263503   0.951   5.409   0.157  1.4807 -2.3630 -0.4722
14030TIP3   OH263504   4.914   0.462   2.203  0.6850  0.4680  0.0987
14030TIP3    H163505   4.843   0.493   2.146  0.1742 -0.1485  0.3952
14030TIP3    H263506   4.918   0.368   2.188  1.4695  0.5056  0.0586
14031TIP3   OH263507   0.874   5.468  14.675  0.3223 -0.5717 -0.5142
14031TIP3    H163508   0.934   5.501  14.742  0.4541  0.8641 -1.2985
14031TIP3    H263509   0.866   5.540  14.613 -0.1886 -1.6853 -1.7873
14032TIP3   OH263510   0.218   5.353  14.358 -0.8766  0.4847 -0.1387
14032TIP3    H163511   0.178   5.267  14.370 -0.0799  0.0445 -0.5221
14032TIP3    H263512   0.254   5.375  14.443  4.1696 -2.3079 -1.1701
14033TIP3   OH263513   6.631   4.034  14.104  0.0370 -0.7672  0.4838
14033TIP3    H163514   6.619   4.125  14.077  1.9183 -0.5783  0.1640
14033TIP3    H263515   6.583   3.983  14.040  0.5667 -0.0800 -0.4823
14034TIP3   OH263516   5.871   0.296  15.668  0.1518 -0.0616 -0.4305
14034TIP3    H163517   5.809   0.341  15.725 -1.7095 -1.5302 -1.1861
14034TIP3    H263518   5.817   0.255  15.600  1.9444 -1.4278 -1.1353
14035TIP3   OH263519   1.283   0.962   5.407 -0.0781 -0.4983  0.4748
14035TIP3    H163520   1.199   0.952   5.363  0.5434 -2.4199 -0.4010
14035TIP3    H263521   1.265   0.943   5.499 -1.4521  3.8722  1.3218
14036TIP3   OH263522   4.764   1.812   2.669 -0.3511  0.1068  0.2676
14036TIP3    H163523   4.841   1.826   2.725 -0.9390  0.6442  0.9683
14036TIP3    H263524   4.800   1.785   2.585  0.7224  2.0468  0.0342
14037TIP3   OH263525   3.196   2.386  17.019  0.4647 -0.2518 -0.2591
14037TIP3    H163526   3.206   2.477  17.046 -0.5087 -0.4231  0.7380
14037TIP3    H263527   3.269   2.371  16.960  0.5926  1.2002 -0.5095
14038TIP3   OH263528   4.095   6.793   4.563 -0.2966 -0.0869 -0.0284
14038TIP3    H163529   4.184   6.766   4.539 -0.2047  1.9660 -2.4601
14038TIP3    H263530   4.102   6.821   4.654  2.1163  1.9879 -0.7287
14039TIP3   OH263531   6.515   1.792   4.257 -0.2349  1.3494 -0.3307
14039TIP3    H163532   6.600   1.793   4.301 -0.5810  0.3960  0.4186
14039TIP3    H263533   6.463   1.859   4.302 -0.0144  1.6496 -0.5200
14040TIP3   OH263534   4.333   0.757   1.389  0.7175  0.3546 -0.2696
14040TIP3    H163535   4.376   0.721   1.466  0.9021  1.5162  0.2016
14040TIP3    H263536   4.394   0.823   1.357 -0.5051  1.7771  0.1916
14041TIP3   OH263537   2.087   2.738   1.430  0.7329  0.3977 -0.3100
14041TIP3    H163538   2.099   2.711   1.521  1.2529  0.2605 -0.4212
14041TIP3    H263539   2.151   2.807   1.417  1.3013 -0.2148 -0.8413
14042TIP3   OH263540   5.947   3.718   2.516  0.7890  0.2611 -0.1010
14042TIP3    H163541   5.988   3.633   2.501  1.3747  0.4300  0.5057
14042TIP3    H263542   5.988   3.751   2.595  0.5993  1.1301 -0.3538
14043TIP3   OH263543   4.665   0.758  16.371 -0.0551  0.5657  0.2769
14043TIP3    H163544   4.744   0.719  16.334 -0.3946  0.5946 -0.4985
14043TIP3    H263545   4.621   0.686  16.416  1.0663  0.8310  1.8835
14044TIP3   OH263546   3.306   4.444   0.302  0.2166 -0.4869  0.1206
14044TIP3    H163547   3.399   4.449   0.279  0.3319 -1.1295  0.4281
14044TIP3    H263548   3.304   4.441   0.397 -0.1081 -0.7191  0.1088
14045TIP3   OH263549   2.096   1.126  16.130 -0.1142  0.0279 -0.0305
14045TIP3    H163550   2.110   1.035  16.159  0.0920  0.3675  0.9760
14045TIP3    H263551   2.092   1.176  16.211  0.5192  1.0247 -0.5979
14046TIP3   OH263552   5.261   0.896  10.465 -0.8458 -0.4992  0.2173
14046TIP3    H163553   5.310   0.815  10.478 -1.5251 -1.1860 -1.3000
14046TIP3    H263554   5.306   0.940  10.393 -1.6676 -0.4910 -0.2931
14047TIP3   OH263555   1.581   5.366   1.689  0.1635  0.0377  0.2671
14047TIP3    H163556   1.673   5.393   1.694  1.0761 -2.4958 -0.8368
14047TIP3    H263557   1.563   5.358   1.596 -2.2117  3.3238  0.3023
14048TIP3   OH263558   5.898   2.235   4.175 -0.0870 -0.3555  0.2799
14048TIP3    H163559   5.884   2.304   4.240 -2.1510 -0.3311 -0.1278
14048TIP3    H263560   5.910   2.282   4.093 -1.6724 -0.4325 -0.0288
14049TIP3   OH263561   1.440   4.209   4.440 -0.2159 -0.1656  0.3191
14049TIP3    H163562   1.374   4.277   4.425  0.4399  0.7933  1.5808
14049TIP3    H263563   1.519   4.243   4.399 -0.3214 -1.0377 -0.6599
14050TIP3   OH263564   3.234   4.118   2.861  0.4487  0.0702 -0.4611
14050TIP3    H163565   3.321   4.127   2.900 -0.0588  0.4558  0.6317
14050TIP3    H263566   3.216   4.203   2.823  0.3394  0.1455 -0.2401
14051TIP3   OH263567   4.824   4.636  15.021 -0.1003 -0.3448  0.1046
14051TIP3    H163568   4.747   4.671  14.977  0.1692  1.5583  1.0118
14051TIP3    H263569   4.794   4.557  15.065 -1.7883  0.8032  1.1175
14052TIP3   OH263570   5.584   3.274  13.985  0.4852 -0.1695  0.3603
14052TIP3    H163571   5.522   3.250  14.054 -0.9918 -0.2372 -0.9225
14052TIP3    H263572   5.530   3.281  13.906  2.1194 -0.1444 -0.8088
14053TIP3   OH263573   1.980   5.726   6.089  0.6606 -0.2778  1.3037
14053TIP3    H163574   1.946   5.778   6.162 -1.7170  0.7381 -0.4086
14053TIP3    H263575   1.943   5.639   6.102 -2.0042  0.5516  0.0311
14054TIP3   OH263576   0.172   3.453  14.570  0.2044 -0.3960  0.3782
14054TIP3    H163577   0.149   3.504  14.648  2.2653 -0.1567  0.8968
14054TIP3    H263578   0.199   3.519  14.506  1.3607 -0.7186  0.5095
14055TIP3   OH263579   4.817   1.485  14.725  0.5506  0.5521 -0.1889
14055TIP3    H163580   4.757   1.424  14.767 -0.8110  1.5115 -0.6934
14055TIP3    H263581   4.819   1.561  14.783 -0.0342  1.1991 -0.9985
14056TIP3   OH263582   6.526   6.136   0.987  0.0558  0.4039  0.0017
14056TIP3    H163583   6.497   6.071   1.052  0.6941  0.1150  0.0102
14056TIP3    H263584   6.611   6.165   1.019 -0.7800  2.2355  0.6955
14057TIP3   OH263585   5.160   4.357  10.997  0.0582  0.1239  0.4475
14057TIP3    H163586   5.120   4.273  11.019  1.1042 -0.6092 -0.3395
14057TIP3    H263587   5.197   4.344  10.910  0.3772  1.3522  0.3823
14058TIP3   OH263588   3.546   1.209  15.744  0.4459 -0.4151  0.3499
14058TIP3    H163589   3.542   1.188  15.838 -0.6540 -2.4369 -0.0915
14058TIP3    H263590   3.632   1.176  15.716  0.9281  0.5154  0.6890
14059TIP3   OH263591   4.155   0.296  12.700 -0.3147  1.0446  0.0171
14059TIP3    H163592   4.158   0.235  12.626 -0.6465  0.9426  0.0836
14059TIP3    H263593   4.153   0.383  12.659  1.8493  1.1128 -0.0648
14060TIP3   OH263594   1.641   5.829   6.472  0.5958 -0.2647 -0.1828
14060TIP3    H163595   1.565   5.876   6.507  0.2087  0.0574 -1.4094
14060TIP3    H263596   1.715   5.888   6.487  0.8695 -1.0938  2.1491
14061TIP3   OH263597   2.522   3.051   2.467  0.1709 -0.4122  0.0212
14061TIP3    H163598   2.492   3.025   2.380  2.9612 -0.3568 -1.0683
14061TIP3    H263599   2.569   3.133   2.453  0.3291 -0.1913  1.6524
14062TIP3   OH263600   6.808   0.030   0.575 -0.4026  0.2064 -0.0513
14062TIP3    H163601   6.874   0.031   0.645  1.0175 -1.4236 -1.2919
14062TIP3    H263602   6.767  -0.056   0.582  1.1922 -0.8483 -2.4043
14063TIP3   OH263603   4.962   3.016  14.958  0.1527  0.1140  0.1040
14063TIP3    H163604   4.978   2.933  14.914 -1.4316 -0.0602 -0.1841
14063TIP3    H263605   4.945   2.992  15.049 -1.5919 -0.0368 -0.2333
14064TIP3   OH263606   5.755   1.853  13.970  0.4549 -0.0142 -0.9820
14064TIP3    H163607   5.805   1.786  14.016  0.9431  0.8781 -0.1971
14064TIP3    H263608   5.665   1.820  13.970  0.9344 -1.3978 -1.9830
14065TIP3   OH263609   3.856   5.942  16.097 -0.0420 -1.0251 -0.0939
14065TIP3    H163610   3.888   5.900  16.177 -1.7758  1.5481  2.1308
14065TIP3    H263611   3.932   5.947  16.040  1.8346 -1.0694  2.2647
14066TIP3   OH263612   1.282   0.120  13.984 -0.1735 -0.2749 -0.7661
14066TIP3    H163613   1.359   0.177  13.985 -0.6774  0.4204  0.0323
14066TIP3    H263614   1.230   0.153  13.910  0.3604 -0.8579 -1.4168
14067TIP3   OH263615   1.429   5.543  17.157  0.0428  0.0962  0.9011
14067TIP3    H163616   1.421   5.606  17.229 -2.1021 -0.4616  1.2405
14067TIP3    H263617   1.439   5.458  17.201 -0.9598 -0.2102  0.5687
14068TIP3   OH263618   5.013   5.643   5.542  0.1352 -0.3019 -0.0284
14068TIP3    H163619   5.046   5.612   5.458  2.3423 -2.8675  1.6355
14068TIP3    H263620   5.067   5.720   5.562  0.5102 -0.4759 -0.3579
14069TIP3   OH263621   2.760   2.364  10.464 -0.2294  0.2030  0.3326
14069TIP3    H163622   2.713   2.282  10.449 -2.9180  1.7916 -0.6232
14069TIP3    H263623   2.722   2.399  10.545 -0.3184  1.2461 -0.1350
14070TIP3   OH263624   1.513   0.274  13.959  0.0158  0.0198 -0.6771
14070TIP3    H163625   1.491   0.363  13.931  1.4142  0.2284 -1.1681
14070TIP3    H263626   1.573   0.242  13.891 -0.4925 -1.3185 -0.5268
14071TIP3   OH263627   5.495   5.551   1.575 -0.2319 -0.4109  0.6813
14071TIP3    H163628   5.487   5.636   1.532 -1.9107 -1.5176 -1.4317
14071TIP3    H263629   5.589   5.540   1.589  0.3092  0.6309 -1.6443
14072TIP3   OH263630   2.529   0.947   3.641  0.2209  0.2508 -0.2070
14072TIP3    H163631   2.454   1.006   3.636  0.7086  0.7924 -1.5960
14072TIP3    H263632   2.491   0.861   3.656 -0.6180  0.6288 -0.0732
14073TIP3   OH263633   5.821   6.447   2.034 -0.0451 -0.3202  0.4903
14073TIP3    H163634   5.783   6.432   1.947 -0.5116 -0.7313  0.7657
14073TIP3    H263635   5.752   6.493   2.082  0.0007 -0.6155  0.8311
14074TIP3   OH263636   5.357   2.751   5.887  0.5244 -0.5135 -0.0619
14074TIP3    H163637   5.402   2.802   5.820  0.5962 -0.7199 -0.1725
14074TIP3    H263638   5.405   2.668   5.891 -0.9787 -1.5093 -1.5512
14075TIP3   OH263639   1.312   4.978   2.955  0.0969  0.0015  0.4320
14075TIP3    H163640   1.255   5.041   2.911 -0.3048 -0.9414 -0.4313
14075TIP3    H263641   1.266   4.956   3.036 -0.9709 -0.9949 -0.4038
14076TIP3   OH263642   0.081   0.063   4.904 -0.1443 -0.3551  0.4668
14076TIP3    H163643  -0.009   0.076   4.933 -0.8834  0.9757 -2.0965
14076TIP3    H263644   0.078  -0.018   4.853 -0.1662  0.2137 -0.4641
14077TIP3   OH263645   4.703   3.641   4.061  0.6538  0.1184 -0.2509
14077TIP3    H163646   4.729   3.705   4.128  0.0120 -1.0997  1.2123
14077TIP3    H263647   4.625   3.679   4.022  0.9020  0.7460 -0.1582
14078TIP3   OH263648   6.598   5.165   4.489  0.3262 -0.3879  0.0409
14078TIP3    H163649   6.629   5.165   4.579 -0.1186 -1.2593  0.2059
14078TIP3    H263650   6.622   5.251   4.455  0.7086 -0.1404  0.9144
14079TIP3   OH263651   3.975   0.075   4.309  0.2381 -0.3652  0.5372
14079TIP3    H163652   4.042   0.050   4.246 -0.1542 -1.3402  0.4846
14079TIP3    H263653   4.013   0.054   4.394  0.5580  0.4513  0.6059
14080TIP3   OH263654   2.990   5.121  14.730  0.0007 -0.0110 -0.2390
14080TIP3    H163655   3.063   5.138  14.790  0.1037 -0.9946 -0.0740
14080TIP3    H263656   2.912   5.137  14.783  0.0896 -0.9708  0.1986
14081TIP3   OH263657   5.235   6.565  14.634  0.1950 -0.3512  0.2204
14081TIP3    H163658   5.222   6.512  14.556  1.3404 -0.9723  0.4426
14081TIP3    H263659   5.154   6.553  14.685 -0.6373  0.2076 -0.9254
14082TIP3   OH263660   2.310   1.875   3.038 -0.1799  0.0821  0.4594
14082TIP3    H163661   2.233   1.899   3.089 -0.9603 -0.0968 -0.5931
14082TIP3    H263662   2.288   1.900   2.948  1.2399  0.5890  0.2237
14083TIP3   OH263663   1.516   3.525   1.191  0.3434 -0.4114  0.1788
14083TIP3    H163664   1.508   3.618   1.173  0.4925 -0.4348 -0.0098
14083TIP3    H263665   1.591   3.496   1.139  0.2847 -0.6409  0.2173
14084TIP3   OH263666   0.565   0.590   5.912  0.3281  0.5443 -0.5620
14084TIP3    H163667   0.491   0.548   5.868  0.1559 -0.3463  0.5526
14084TIP3    H263668   0.566   0.553   6.000  1.3380  1.4830 -0.1466
14085TIP3   OH263669   0.308   3.703  15.936  0.1884 -0.1247 -0.6277
14085TIP3    H163670   0.286   3.618  15.973  1.3297 -0.4712 -0.7124
14085TIP3    H263671   0.245   3.763  15.976  0.5621 -0.6931  0.9024
14086TIP3   OH263672   6.139   2.769  12.564 -0.0144  0.6106  0.0635
14086TIP3    H163673   6.155   2.711  12.490 -0.7020  1.3626 -0.6992
14086TIP3    H263674   6.044   2.769  12.574  0.1350 -0.5313  1.8259
14087TIP3   OH263675   2.057   1.054   2.991  0.2121  0.5073 -0.2261
14087TIP3    H163676   2.044   1.105   3.071  1.4570  1.1007 -0.3906
14087TIP3    H263677   1.986   0.990   2.992 -0.3701  1.1472  0.8475
14088TIP3   OH263678   3.428   2.515   2.660 -0.2864  0.0452  0.6417
14088TIP3    H163679   3.350   2.500   2.607  0.5708 -2.0848 -0.1383
14088TIP3    H263680   3.433   2.439   2.718 -0.0259  1.2949  2.3125
14089TIP3   OH263681   5.376   0.774  15.983 -0.6542 -0.1883  0.7508
14089TIP3    H163682   5.307   0.839  15.969 -2.3585 -1.8733  0.9356
14089TIP3    H263683   5.457   0.825  15.985 -1.7901  1.7668 -0.3267
14090TIP3   OH263684   6.481   6.649   5.399  0.1964  0.1744  0.0896
14090TIP3    H163685   6.398   6.606   5.422  0.2146  0.7862  1.3975
14090TIP3    H263686   6.455   6.736   5.368  0.3480  0.6150  1.1280
14091TIP3   OH263687   4.456   2.405   5.315 -0.6435  0.3672  0.0120
14091TIP3    H163688   4.492   2.316   5.316  0.2668  0.6643 -1.7966
14091TIP3    H263689   4.368   2.395   5.280 -0.6168  0.1517  0.0066
14092TIP3   OH263690   1.411   3.330  13.078  0.2314  0.2328  0.4066
14092TIP3    H163691   1.469   3.254  13.078 -1.1014 -0.8979 -1.7937
14092TIP3    H263692   1.386   3.342  13.169  3.1316  0.2339  1.3210
14093TIP3   OH263693   5.670   4.660   3.559 -0.5202  0.4268  0.3939
14093TIP3    H163694   5.750   4.629   3.600  0.5164  1.3874 -0.8286
14093TIP3    H263695   5.610   4.675   3.632  0.1019 -1.1003  1.2630
14094TIP3   OH263696   4.983   5.806   4.600  0.0753 -0.4356  0.2867
14094TIP3    H163697   4.925   5.759   4.660  0.0270 -1.8178 -0.7933
14094TIP3    H263698   4.968   5.899   4.621 -2.0001 -0.7662  0.5443
14095TIP3   OH263699   3.540   0.935  15.589  0.0780  0.1459  0.2313
14095TIP3    H163700   3.459   0.942  15.539  0.2858  1.0002 -0.0067
14095TIP3    H263701   3.529   0.995  15.663  0.7980  0.9168 -0.2586
14096TIP3   OH263702   3.639   5.219  15.432  0.0191 -0.3203 -0.2401
14096TIP3    H163703   3.569   5.247  15.374 -1.1663 -1.5827  0.5117
14096TIP3    H263704   3.707   5.183  15.374 -2.0715 -3.6761 -0.9123
14097TIP3   OH263705   2.678   3.256   3.762  0.2469  0.6164  0.5485
14097TIP3    H163706   2.692   3.250   3.856  1.3806 -1.7047  0.3265
14097TIP3    H263707   2.760   3.292   3.727  0.6894 -0.5588  0.3163
14098TIP3   OH263708   5.576   3.919  15.791 -0.2744 -0.3398 -1.3773
14098TIP3    H163709   5.569   3.825  15.809 -0.0382  0.0283  1.0124
14098TIP3    H263710   5.487   3.951  15.799 -0.3090 -0.3039 -1.8886
14099TIP3   OH263711   6.287   5.851   5.646 -0.3425  0.5310  0.8283
14099TIP3    H163712   6.353   5.781   5.643 -1.1994 -0.2529 -0.3974
14099TIP3    H263713   6.211   5.812   5.688 -1.1106  0.4476 -0.5764
14100TIP3   OH263714   1.896   2.229   5.234  0.0400 -0.3654  0.3893
14100TIP3    H163715   1.815   2.256   5.278  0.5028  1.1949  0.3272
14100TIP3    H263716   1.963   2.232   5.302  0.0947 -1.5447  0.4128
14101TIP3   OH263717   0.080   3.057  15.054  0.5374 -0.0982 -0.2134
14101TIP3    H163718   0.060   2.996  15.125  2.1809 -0.2929  0.1249
14101TIP3    H263719   0.085   3.002  14.976 -0.6128  0.0184 -0.3826
14102TIP3   OH263720   0.912   3.843  11.125 -0.4317 -0.2070 -0.4134
14102TIP3    H163721   0.904   3.889  11.042 -0.3903  1.6452  0.5623
14102TIP3    H263722   0.998   3.869  11.159 -0.2147 -1.3689 -0.0107
14103TIP3   OH263723   5.479   6.414   5.181 -0.1052  0.7298 -0.7353
14103TIP3    H163724   5.453   6.353   5.251  1.2809  2.4214  1.3844
14103TIP3    H263725   5.397   6.437   5.138 -0.9283 -0.8980 -0.1488
14104TIP3   OH263726   1.552   1.672   2.787 -0.1709 -0.1396  0.4596
14104TIP3    H163727   1.506   1.678   2.871 -0.4029 -1.7342  0.4717
14104TIP3    H263728   1.643   1.654   2.811 -0.4757 -1.9864  0.4023
14105TIP3   OH263729   1.408   1.353  14.106 -0.1210 -0.2821 -0.3467
14105TIP3    H163730   1.411   1.396  14.020 -1.6727  0.6628  0.0404
14105TIP3    H263731   1.327   1.303  14.104  1.1528 -2.4792 -0.4098
14106TIP3   OH263732   4.695   3.436   0.068  0.7971 -0.0637  0.0945
14106TIP3    H163733   4.649   3.515   0.097 -0.4010  0.6315 -3.2302
14106TIP3    H263734   4.765   3.469   0.011  1.2242 -1.3745 -0.1570
14107TIP3   OH263735   0.220   1.182   3.636  0.3698  0.1868 -0.4946
14107TIP3    H163736   0.169   1.263   3.638  1.5988  0.9793  0.5457
14107TIP3    H263737   0.311   1.210   3.647  0.7261 -1.3956  1.1240
14108TIP3   OH263738   6.618   5.398   5.502 -0.6761 -0.0848 -0.2801
14108TIP3    H163739   6.593   5.309   5.480 -0.9031 -0.1050  0.0580
14108TIP3    H263740   6.622   5.399   5.598 -1.6388  0.5271 -0.2328
14109TIP3   OH263741   4.503   0.126   1.036 -0.3218 -0.0168 -0.4967
14109TIP3    H163742   4.527   0.193   0.972 -1.4843 -0.7728 -1.7623
14109TIP3    H263743   4.550   0.048   1.007 -0.3442 -0.2022 -0.0421
14110TIP3   OH263744   6.076   1.782   4.812  0.4659  0.4386 -0.0244
14110TIP3    H163745   6.041   1.800   4.725 -0.1545 -1.8318 -0.3135
14110TIP3    H263746   6.171   1.775   4.800  0.2990 -0.9752 -0.8061
14111TIP3   OH263747   0.848   6.589   6.023  0.3591  0.7331  0.1594
14111TIP3    H163748   0.870   6.514   6.078  1.2316  1.2870  0.5665
14111TIP3    H263749   0.858   6.556   5.933  0.0571  0.1683  0.3268
14112TIP3   OH263750   0.272   1.402  13.039  0.1596  0.2984 -0.5147
14112TIP3    H163751   0.277   1.459  12.963  2.2420  0.1047 -0.5824
14112TIP3    H263752   0.306   1.455  13.111 -1.2552  0.2904  0.1786
14113TIP3   OH263753   0.036   1.984  16.058 -0.4589  0.1392 -0.8720
14113TIP3    H163754   0.056   2.074  16.029  0.3032  0.0107 -0.7610
14113TIP3    H263755   0.080   1.928  15.994  0.5763 -0.1512  0.0798
14114TIP3   OH263756   3.378   4.190   2.498  0.0121 -0.2605 -0.5510
14114TIP3    H163757   3.314   4.120   2.485  0.2600 -0.6047  0.0419
14114TIP3    H263758   3.352   4.232   2.580 -1.1756  1.4962 -1.7441
14115TIP3   OH263759   6.229   5.510   2.130 -0.2702  0.3304 -0.4949
14115TIP3    H163760   6.183   5.538   2.210  0.8202  1.0666 -0.1067
14115TIP3    H263761   6.320   5.498   2.157 -0.4803 -2.9506 -0.8169
14116TIP3   OH263762   5.201   0.156  11.600  0.5441 -0.0124  0.3161
14116TIP3    H163763   5.182   0.075  11.553  2.3779 -1.1465  1.3923
14116TIP3    H263764   5.239   0.214  11.534  1.0425 -0.7631 -0.0734
14117TIP3   OH263765   3.069   2.657   1.158 -0.1683  0.0266  0.0563
14117TIP3    H163766   3.057   2.653   1.253  0.5983 -0.2671  0.1393
14117TIP3    H263767   3.123   2.735   1.145  3.6491 -2.3644  0.2740
14118TIP3   OH263768   4.032   3.961   5.969 -0.0985 -0.2760  0.8764
14118TIP3    H163769   3.997   3.965   6.058  0.2432 -0.6961  1.0287
14118TIP3    H263770   4.045   4.053   5.944 -1.4902 -0.0908  0.7380
14119TIP3   OH263771   5.046   0.315   2.751  0.2504  0.1910  0.6505
14119TIP3    H163772   5.123   0.371   2.736 -1.1990  2.5682  1.4605
14119TIP3    H263773   4.995   0.324   2.670 -0.9389  1.7723  1.5135
14120TIP3   OH263774   6.805   3.317   5.541 -0.2947 -0.1179 -0.0135
14120TIP3    H163775   6.756   3.263   5.603 -2.2256  0.8502 -0.6123
14120TIP3    H263776   6.794   3.406   5.574  1.2503  0.1227 -0.0814
14121TIP3   OH263777   1.580   1.868  15.569 -0.2547  0.4850  0.1743
14121TIP3    H163778   1.586   1.963  15.560 -2.3245  0.4835 -2.2891
14121TIP3    H263779   1.666   1.836  15.544  1.0091  1.6747  2.5679
14122TIP3   OH263780   6.443   4.169  13.121  0.4066 -0.2497  0.4216
14122TIP3    H163781   6.384   4.101  13.152 -1.6142  0.6465 -1.2089
14122TIP3    H263782   6.415   4.248  13.168  2.2216 -0.3179  1.7273
14123TIP3   OH263783   5.695   1.179  13.123 -0.3916 -0.6133  0.4770
14123TIP3    H163784   5.710   1.084  13.128  4.6559 -0.1540 -0.4344
14123TIP3    H263785   5.694   1.198  13.029 -1.1676  0.2870  0.6590
14124TIP3   OH263786   1.105   3.943  16.358 -0.1189  0.3615 -0.8755
14124TIP3    H163787   1.089   3.986  16.442 -1.5941  0.1149 -1.0053
14124TIP3    H263788   1.136   3.855  16.381 -0.2862  0.3768 -0.5964
14125TIP3   OH263789   2.701   3.841   5.373 -0.1895  0.3483  0.0058
14125TIP3    H163790   2.760   3.821   5.300 -0.7056 -0.8789 -0.1035
14125TIP3    H263791   2.672   3.755   5.404 -1.8402  0.9042  0.1089
14126TIP3   OH263792   2.105   1.945   4.152 -0.0667 -0.4244 -0.2776
14126TIP3    H163793   2.073   2.030   4.183 -0.8586 -0.4194 -1.0805
14126TIP3    H263794   2.031   1.886   4.164 -0.0206 -0.6627 -1.1394
14127TIP3   OH263795   2.404   2.879  11.963 -0.3481 -0.3570  0.2540
14127TIP3    H163796   2.368   2.855  12.048 -1.6697  0.8119  0.0625
14127TIP3    H263797   2.328   2.902  11.910  0.4252 -1.3513 -1.3603
14128TIP3   OH263798   6.656   4.228   2.365 -0.1536 -0.0610 -0.4085
14128TIP3    H163799   6.627   4.148   2.409  0.9785 -0.5087 -0.4426
14128TIP3    H263800   6.584   4.249   2.304 -0.8634 -0.5247  0.2540
14129TIP3   OH263801   2.609   6.553  12.437  0.8983  0.0742  0.2286
14129TIP3    H163802   2.631   6.646  12.428  1.7621 -0.1159  0.3454
14129TIP3    H263803   2.667   6.509  12.375  0.3556 -0.3720  0.0373
14130TIP3   OH263804   5.485   3.893  15.165  0.2528 -0.1867  0.1572
14130TIP3    H163805   5.476   3.878  15.071 -0.3172 -2.3940  0.5033
14130TIP3    H263806   5.407   3.943  15.189  1.0448  1.5766 -0.6922
14131TIP3   OH263807   5.404   2.853  15.391 -0.1904 -0.1643  0.1730
14131TIP3    H163808   5.475   2.801  15.354 -1.0566  0.0649 -1.9315
14131TIP3    H263809   5.325   2.820  15.349 -0.8775  2.1703 -0.5053
14132TIP3   OH263810   4.939   5.626  12.630  0.2471 -0.0868  0.1050
14132TIP3    H163811   4.986   5.587  12.556  1.1075 -0.9833  1.0943
14132TIP3    H263812   4.996   5.611  12.705 -0.7395  0.5574  1.0072
14133TIP3   OH263813   4.055   3.389  15.835  0.7754  0.4296 -0.2222
14133TIP3    H163814   4.064   3.480  15.805 -0.5356  0.6912  0.1409
14133TIP3    H263815   3.966   3.383  15.869  0.5394 -1.2496 -1.0329
14134TIP3   OH263816   1.518   1.141  12.631 -0.0677 -0.4924 -0.1303
14134TIP3    H163817   1.600   1.167  12.672 -0.0333  0.5588 -0.8124
14134TIP3    H263818   1.484   1.222  12.592  0.0220 -1.4374 -2.3451
14135TIP3   OH263819   4.403   1.581  12.136  0.0846 -0.0104 -0.1646
14135TIP3    H163820   4.479   1.639  12.130 -1.7424  2.7826  1.5241
14135TIP3    H263821   4.381   1.561  12.045  2.2486 -0.1732 -0.7145
14136TIP3   OH263822   2.574   4.366  11.477  0.0234 -0.3136 -0.1883
14136TIP3    H163823   2.520   4.368  11.556 -0.8937 -0.5387 -0.7903
14136TIP3    H263824   2.640   4.433  11.491 -1.7744  1.6116 -0.3653
14137TIP3   OH263825   6.602   3.218   5.328 -0.1729 -0.4962 -0.3861
14137TIP3    H163826   6.650   3.272   5.265 -1.0847 -0.0583 -0.7210
14137TIP3    H263827   6.646   3.234   5.411  0.7016 -0.6537 -0.8058
14138TIP3   OH263828   0.006   3.140   3.225 -0.7024 -0.3797  0.4627
14138TIP3    H163829   0.005   3.202   3.298 -2.1122 -1.7301  1.6821
14138TIP3    H263830   0.095   3.143   3.191  0.0654  0.1474  2.4033
14139TIP3   OH263831   1.761   1.336  11.865 -0.3817  0.5055 -0.1161
14139TIP3    H163832   1.684   1.285  11.841 -0.6497  0.1811  1.3567
14139TIP3    H263833   1.828   1.271  11.887 -0.7072  0.7489  1.7169
14140TIP3   OH263834   4.358   0.154   1.555  0.4557  0.0446  0.1707
14140TIP3    H163835   4.355   0.220   1.485 -0.4860 -0.3838 -0.2059
14140TIP3    H263836   4.436   0.177   1.606  0.9753  0.5621 -0.8216
14141TIP3   OH263837   3.911   0.100  12.908  0.0111  0.0303  0.9340
14141TIP3    H163838   3.971   0.045  12.857 -1.3210 -1.2975  0.7105
14141TIP3    H263839   3.844   0.126  12.844  0.0880  1.0974  1.2790
14142TIP3   OH263840   5.562   0.591   0.637  0.4005  0.2593  0.2654
14142TIP3    H163841   5.545   0.623   0.726  0.3506 -0.4884  0.5291
14142TIP3    H263842   5.483   0.544   0.613  0.5672  0.1260 -0.0251
14143TIP3   OH263843   6.049   0.836  10.767 -0.5698 -0.1265  0.1981
14143TIP3    H163844   6.086   0.777  10.700 -1.2447 -1.0842  0.6545
14143TIP3    H263845   5.979   0.883  10.721 -0.5846 -0.2851  0.0570
14144TIP3   OH263846   3.805   5.796   4.193 -0.1665 -0.6772 -0.1375
14144TIP3    H163847   3.802   5.805   4.289 -0.9556  0.1096 -0.2209
14144TIP3    H263848   3.818   5.885   4.162 -0.0510 -0.9145 -0.7723
14145TIP3   OH263849   4.868   3.906   4.657 -0.8269  0.6287  0.1550
14145TIP3    H163850   4.857   3.945   4.570 -1.0851 -0.6361 -0.4030
14145TIP3    H263851   4.947   3.853   4.649 -1.4737 -0.3824  0.3432
14146TIP3   OH263852   2.288   5.124   5.643 -0.3339  0.3565  0.0657
14146TIP3    H163853   2.217   5.060   5.653 -2.1122  2.1693 -0.2948
14146TIP3    H263854   2.364   5.082   5.682 -1.7305 -1.4803  0.9461
14147TIP3   OH263855   4.379   2.098  14.243 -0.1367  0.0080 -0.1756
14147TIP3    H163856   4.415   2.012  14.264 -0.5329 -0.0886  0.1205
14147TIP3    H263857   4.361   2.138  14.328  2.2317  1.3389 -0.2386
14148TIP3   OH263858   2.347   4.403  16.441 -0.0398  0.0994 -0.2590
14148TIP3    H163859   2.377   4.420  16.351 -0.4695  0.0840 -0.4115
14148TIP3    H263860   2.426   4.383  16.490  0.4451  1.9947 -0.2030
14149TIP3   OH263861   0.887   4.559   5.281 -0.7562  0.7342  0.0919
14149TIP3    H163862   0.913   4.468   5.294  0.0141  1.0083  0.5637
14149TIP3    H263863   0.882   4.568   5.186 -0.9302  0.1746  0.0434
14150TIP3   OH263864   3.154   5.913   0.353  1.1943  0.1730 -0.0820
14150TIP3    H163865   3.061   5.928   0.339  1.3907  0.3267 -1.2769
14150TIP3    H263866   3.180   5.983   0.414  1.0414  1.6758 -1.6734
14151TIP3   OH263867   0.244   1.220   4.682  0.1903 -0.9187 -0.3710
14151TIP3    H163868   0.234   1.125   4.682  0.5076 -0.9691  0.8620
14151TIP3    H263869   0.161   1.252   4.718  0.2941 -0.7614 -0.2699
14152TIP3   OH263870   4.943   5.146  11.640 -0.2219  0.5569 -0.2086
14152TIP3    H163871   5.024   5.161  11.689 -0.7573 -1.3162  1.3736
14152TIP3    H263872   4.964   5.075  11.580 -0.2924  1.1155 -0.9092
14153TIP3   OH263873   5.129   2.894  12.589  0.0685 -0.5873 -0.6073
14153TIP3    H163874   5.171   2.809  12.575  2.1180  0.2864 -0.1928
14153TIP3    H263875   5.197   2.947  12.631 -1.3084  1.1241 -0.4399
14154TIP3   OH263876   2.791   4.210  13.418 -0.1716 -0.7825 -0.1997
14154TIP3    H163877   2.761   4.126  13.384 -1.5117 -0.2649 -0.3754
14154TIP3    H263878   2.821   4.258  13.340  0.5022 -1.0605 -0.1126
14155TIP3   OH263879   0.324   3.826   2.212 -0.2399  0.2665 -0.1557
14155TIP3    H163880   0.272   3.773   2.150  0.0420 -0.5939  0.3317
14155TIP3    H263881   0.258   3.866   2.270 -0.4948  0.9541 -0.8942
14156TIP3   OH263882   2.287   5.574   3.439 -0.8240  0.6361  0.5747
14156TIP3    H163883   2.204   5.532   3.463  0.2294 -2.2445 -0.4170
14156TIP3    H263884   2.354   5.519   3.479  0.6851  2.8151  1.2403
14157TIP3   OH263885   3.804   2.333  13.845  0.5493 -0.2312 -0.0822
14157TIP3    H163886   3.890   2.297  13.824  0.0135 -1.6839  0.0604
14157TIP3    H263887   3.809   2.356  13.938  1.1900  0.9709 -0.3993
14158TIP3   OH263888   4.125   0.586  11.172  0.3511 -0.4255  0.4768
14158TIP3    H163889   4.051   0.545  11.127 -0.6193  1.0018  0.6999
14158TIP3    H263890   4.187   0.608  11.102 -0.0928 -0.3197  0.1128
14159TIP3   OH263891   0.238   4.449  15.324  0.2580  0.1010 -0.6636
14159TIP3    H163892   0.163   4.465  15.382 -0.0080 -0.8893 -0.7180
14159TIP3    H263893   0.296   4.524  15.338  2.0906 -1.7396  3.8776
14160TIP3   OH263894   5.881   1.007  15.876  0.0153 -0.0640 -0.2108
14160TIP3    H163895   5.800   1.021  15.826 -0.7082 -0.3827  0.8331
14160TIP3    H263896   5.948   1.056  15.828 -1.1577  1.7630 -0.0937
14161TIP3   OH263897   1.998   6.627   0.407  0.5921  0.5243  0.0249
14161TIP3    H163898   1.996   6.722   0.404 -1.0921  0.4814 -1.9630
14161TIP3    H263899   1.923   6.603   0.461 -0.0743  0.3203 -0.9679
14162TIP3   OH263900   3.633   2.340  13.531 -0.2465 -0.1869  0.4789
14162TIP3    H163901   3.726   2.320  13.534 -0.2937 -0.3901  0.5823
14162TIP3    H263902   3.599   2.312  13.617 -0.0188  1.7772  1.2591
14163TIP3   OH263903   1.145   3.351   2.723 -0.2658 -0.2097 -0.0249
14163TIP3    H163904   1.184   3.370   2.637 -1.0613 -0.0943 -0.3687
14163TIP3    H263905   1.051   3.361   2.709 -0.4322 -0.6436  0.7523
14164TIP3   OH263906   2.378   6.240  13.515 -0.1585  0.1698 -0.3641
14164TIP3    H163907   2.314   6.189  13.466  0.0887  0.7258 -1.2962
14164TIP3    H263908   2.334   6.261  13.597 -0.1664 -1.7449  0.1734
14165TIP3   OH263909   3.391   5.085   5.019  0.2235  0.1580  0.1200
14165TIP3    H163910   3.429   5.006   4.982 -1.2968 -0.3336 -0.4781
14165TIP3    H263911   3.461   5.124   5.071  0.7701 -1.9680  1.0456
14166TIP3   OH263912   2.032   5.234  16.375  0.3506 -0.9503  0.1949
14166TIP3    H163913   2.103   5.249  16.312 -1.3661 -0.5694 -1.7409
14166TIP3    H263914   2.050   5.296  16.446  2.1805 -1.1867 -0.0139
14167TIP3   OH263915   0.853   5.206   4.631  0.8371 -0.8769  0.4744
14167TIP3    H163916   0.787   5.209   4.700 -1.2957 -1.8821 -1.3765
14167TIP3    H263917   0.922   5.149   4.665 -0.3105 -1.6250  1.6455
14168TIP3   OH263918   4.581   1.530  16.745  0.5318  0.6623  0.1770
14168TIP3    H163919   4.662   1.499  16.702 -0.8601 -3.2362 -0.0584
14168TIP3    H263920   4.512   1.511  16.682 -1.0178 -0.4704  2.0983
14169TIP3   OH263921   5.181   1.551  14.654  0.0871 -0.4652  0.2403
14169TIP3    H163922   5.189   1.598  14.571  1.1008 -0.4120  0.3559
14169TIP3    H263923   5.098   1.503  14.647 -0.1873  0.1085 -0.5058
14170TIP3   OH263924   3.488   2.226   6.569  0.0392 -0.7222 -0.1763
14170TIP3    H163925   3.533   2.308   6.590  1.5480 -1.4028 -0.5826
14170TIP3    H263926   3.516   2.165   6.637 -0.0362 -1.2426 -0.6013
14171TIP3   OH263927   2.873   6.112   4.530 -0.1129 -0.4283  0.4725
14171TIP3    H163928   2.930   6.063   4.589  1.5019  1.0578  0.2428
14171TIP3    H263929   2.788   6.114   4.574 -0.1968 -3.1698  0.5768
14172TIP3   OH263930   5.224   2.824   4.327  0.3739  0.3088 -0.2349
14172TIP3    H163931   5.221   2.848   4.420  0.7108  1.3729 -0.4780
14172TIP3    H263932   5.306   2.861   4.296  1.4487 -2.1052 -0.4386
14173TIP3   OH263933   0.274   5.924   1.389  0.2478 -0.7506 -0.3960
14173TIP3    H163934   0.364   5.919   1.421  0.6612 -0.1709 -1.4552
14173TIP3    H263935   0.268   5.856   1.322 -0.4226 -1.5012  0.4003
14174TIP3   OH263936   0.152   2.378   4.357 -0.1786  0.0029 -0.0501
14174TIP3    H163937   0.158   2.423   4.441  0.5486 -0.8038  0.3511
14174TIP3    H263938   0.207   2.429   4.298  0.1435 -0.0137  0.2369
14175TIP3   OH263939   2.817   2.634   3.694  0.4560 -0.6201 -0.2127
14175TIP3    H163940   2.752   2.651   3.626  1.2622 -1.0257 -1.1208
14175TIP3    H263941   2.794   2.693   3.765 -1.0466 -0.9277 -0.3992
14176TIP3   OH263942   2.073   2.160   0.227 -0.9148  0.6005  0.3556
14176TIP3    H163943   2.113   2.100   0.164 -0.1689  1.7617 -0.3175
14176TIP3    H263944   2.137   2.168   0.297 -0.2909  1.8580 -0.3442
14177TIP3   OH263945   4.844   0.611  11.280  0.4630 -0.0352 -0.3108
14177TIP3    H163946   4.940   0.605  11.285  0.4003 -1.2640 -0.2683
14177TIP3    H263947   4.827   0.652  11.195  1.0334  1.1299  0.1122
14178TIP3   OH263948   1.623   0.249   0.216  0.3260  0.6938 -0.2463
14178TIP3    H163949   1.704   0.202   0.235 -0.0148  0.5916  1.0697
14178TIP3    H263950   1.555   0.199   0.261 -0.4557  0.8609 -1.2125
14179TIP3   OH263951   2.532   0.199  15.556  0.0090 -0.4624 -0.3878
14179TIP3    H163952   2.549   0.182  15.464 -1.3742 -0.4034 -0.6655
14179TIP3    H263953   2.525   0.112  15.596  1.2397 -0.4971 -0.1834
14180TIP3   OH263954   1.829   3.018   1.989 -0.2967  0.0794  0.6913
14180TIP3    H163955   1.840   2.967   1.909  0.9988 -1.4135  1.7705
14180TIP3    H263956   1.899   3.083   1.986  0.2239 -0.4730  0.9902
14181TIP3   OH263957   6.532   3.926  15.513  0.1188  0.0405 -0.2809
14181TIP3    H163958   6.554   3.840  15.478 -0.3458  0.5852 -2.0361
14181TIP3    H263959   6.555   3.987  15.443  2.2885  1.6009  1.6207
14182TIP3   OH263960   5.583   4.705   3.979  0.0331  0.4113 -0.1097
14182TIP3    H163961   5.593   4.610   3.988 -2.5802  0.0955  0.3365
14182TIP3    H263962   5.546   4.716   3.891  1.8577  1.2153 -0.8231
14183TIP3   OH263963   6.348   4.928   6.010  0.8315 -0.3688  0.2625
14183TIP3    H163964   6.424   4.973   5.971  0.2756  0.3080 -0.0584
14183TIP3    H263965   6.353   4.950   6.103  0.2867  0.8131  0.0388
14184TIP3   OH263966   2.468   4.691  13.078 -0.4039  0.2445 -0.2720
14184TIP3    H163967   2.396   4.731  13.128  0.6415  0.3870  1.1754
14184TIP3    H263968   2.426   4.623  13.027 -1.3724 -0.9863  1.9903
14185TIP3   OH263969   4.716   1.057  12.551 -0.0856 -0.7858 -0.3699
14185TIP3    H163970   4.741   0.993  12.484 -0.5190 -1.4667  0.0999
14185TIP3    H263971   4.726   1.142  12.508 -0.1534 -1.1987 -1.2296
14186TIP3   OH263972   2.720   4.943  13.315  0.3618 -0.0234 -0.3014
14186TIP3    H163973   2.661   4.879  13.356 -0.7134  2.4872  2.4878
14186TIP3    H263974   2.802   4.934  13.365  0.7694 -0.2730 -0.9992
14187TIP3   OH263975   5.246   3.762   1.271  0.0308  0.2830 -0.6035
14187TIP3    H163976   5.215   3.839   1.223  0.2470  0.6531 -0.1448
14187TIP3    H263977   5.307   3.796   1.336 -1.6399 -0.0006  1.1980
14188TIP3   OH263978   0.417   1.762   4.855  0.9188 -0.5707 -0.6724
14188TIP3    H163979   0.379   1.785   4.771  2.1123  0.1003 -1.0521
14188TIP3    H263980   0.364   1.808   4.920 -0.0912 -1.2027 -1.0225
14189TIP3   OH263981   5.523   4.216   0.701  0.1050 -0.4837 -0.1844
14189TIP3    H163982   5.560   4.158   0.768 -1.3172 -1.3988 -0.1267
14189TIP3    H263983   5.551   4.178   0.618 -2.0209 -2.2586 -0.2049
14190TIP3   OH263984   5.586   3.311   5.354  0.0787  0.0861  0.1064
14190TIP3    H163985   5.550   3.358   5.429  1.5660  0.1953  0.7880
14190TIP3    H263986   5.518   3.248   5.331 -0.0011 -0.7200  2.2649
14191TIP3   OH263987   4.489   6.034   4.030  0.1203 -0.2337 -0.5691
14191TIP3    H163988   4.416   6.061   4.085  0.8540 -0.7934  0.7271
14191TIP3    H263989   4.454   5.967   3.973 -0.2869 -0.8321  0.3611
14192TIP3   OH263990   2.519   5.863   6.992 -0.1523 -0.3697  0.2766
14192TIP3    H163991   2.519   5.831   6.902  0.6983  0.4671 -0.0271
14192TIP3    H263992   2.426   5.876   7.012 -0.5219 -2.6114  0.2940
14193TIP3   OH263993   6.198   5.140  12.824  0.1170  0.1138 -0.0891
14193TIP3    H163994   6.120   5.091  12.850  0.3011 -1.0721 -1.6266
14193TIP3    H263995   6.207   5.123  12.730  2.6759 -0.4159  0.1759
14194TIP3   OH263996   0.522   3.445   5.454 -0.4729 -0.3299 -0.0989
14194TIP3    H163997   0.490   3.515   5.397  0.9494 -0.7609 -1.5064
14194TIP3    H263998   0.448   3.385   5.461 -0.5260 -0.5541 -2.0167
14195TIP3   OH263999   1.566   4.873   1.090  0.4379  0.6214 -0.0405
14195TIP3    H164000   1.474   4.873   1.064  0.6546  0.2112 -0.8552
14195TIP3    H264001   1.598   4.960   1.065  0.5645  0.3405 -0.9029
14196TIP3   OH264002   0.284   3.987   2.807  0.7857  0.3269 -0.1127
14196TIP3    H164003   0.232   3.921   2.763 -0.8512  1.2803  0.2773
14196TIP3    H264004   0.369   3.986   2.763 -0.2932  0.2403 -2.2754
14197TIP3   OH264005   4.797   2.525   5.739 -0.2336 -0.2658 -0.5084
14197TIP3    H164006   4.878   2.525   5.689 -0.3433 -0.5015 -0.6845
14197TIP3    H264007   4.740   2.587   5.693  0.9146  2.4114  1.3583
14198TIP3   OH264008   3.475   5.106   2.849 -0.5071 -0.0277 -0.8035
14198TIP3    H164009   3.397   5.079   2.897 -2.2011  3.3848 -1.3143
14198TIP3    H264010   3.547   5.058   2.890 -2.3487 -0.1790  2.5714
14199TIP3   OH264011   2.132   1.463   5.043  0.1627  0.3051 -0.2282
14199TIP3    H164012   2.134   1.476   5.137 -2.2631 -0.8974  0.0662
14199TIP3    H264013   2.206   1.514   5.010 -1.6501  4.9049  1.8476
14200TIP3   OH264014   2.251   4.685   0.793 -0.4910  0.0740  0.1453
14200TIP3    H164015   2.232   4.759   0.736 -0.1209 -0.5533 -0.8154
14200TIP3    H264016   2.215   4.609   0.747  0.9861 -0.6211  0.0817
14201TIP3   OH264017   5.196   6.163  12.155  0.4206 -0.1430  0.1443
14201TIP3    H164018   5.170   6.177  12.064 -0.2544  1.1252  0.5132
14201TIP3    H264019   5.228   6.072  12.156  1.7678  0.2472 -1.6455
14202TIP3   OH264020   0.695   3.995   5.884  0.0789  0.4230 -0.0373
14202TIP3    H164021   0.760   3.951   5.938 -0.1337  0.9881  0.6953
14202TIP3    H264022   0.663   4.067   5.938 -0.1667  0.9833 -0.9091
14203TIP3   OH264023   0.621   4.867   1.916  0.3632 -1.0319 -0.1003
14203TIP3    H164024   0.580   4.782   1.936  0.6138 -1.4386 -1.2031
14203TIP3    H264025   0.551   4.931   1.930 -0.8919 -1.7542 -2.4060
14204TIP3   OH264026   4.071   3.610   2.505  0.2418  0.4161  0.1957
14204TIP3    H164027   4.026   3.630   2.588  0.8152  2.8759 -0.0146
14204TIP3    H264028   4.154   3.571   2.532  0.2289  0.7709  0.7683
14205TIP3   OH264029   5.711   0.896   6.496 -0.1081 -0.3215  0.1729
14205TIP3    H164030   5.620   0.868   6.499  0.1064 -1.1054 -0.2057
14205TIP3    H264031   5.707   0.990   6.479 -0.8492 -0.2218  0.8592
14206TIP3   OH264032   4.575   3.174   3.710 -0.0850  0.5706 -0.1620
14206TIP3    H164033   4.637   3.172   3.784  1.6858  0.6144 -1.5676
14206TIP3    H264034   4.529   3.257   3.720  0.3214  0.7050  0.7362
14207TIP3   OH264035   4.866   2.483   0.858 -0.1367  0.4251 -0.4453
14207TIP3    H164036   4.934   2.416   0.849 -0.0279  0.6020 -0.9450
14207TIP3    H264037   4.915   2.566   0.859 -0.1051  0.4512  1.8261
14208TIP3   OH264038   1.080   0.754  12.226 -0.2011  0.2163 -0.6270
14208TIP3    H164039   1.087   0.688  12.157 -1.3120 -0.4009 -0.1755
14208TIP3    H264040   1.170   0.782  12.241  0.4944 -2.1201  0.0266
14209TIP3   OH264041   4.632   3.788   5.319 -0.5204 -0.0644  0.2874
14209TIP3    H164042   4.672   3.826   5.398  0.2638  0.1182 -0.1907
14209TIP3    H264043   4.616   3.697   5.342  1.2694 -0.4648  0.1120
14210TIP3   OH264044   3.982   1.621  10.987  0.5077 -0.0712  0.4420
14210TIP3    H164045   3.934   1.704  10.984  1.5654  0.5458 -0.6707
14210TIP3    H264046   4.056   1.638  11.046  0.9097 -0.0864 -0.0416
14211TIP3   OH264047   4.933   1.686  16.223  0.2345 -0.7350  0.5288
14211TIP3    H164048   4.923   1.778  16.200 -1.5455 -1.4327 -1.9386
14211TIP3    H264049   5.026   1.675  16.239  0.4244  1.5645  1.3501
14212TIP3   OH264050   2.085   0.372   0.649  0.0329  0.0580  0.1998
14212TIP3    H164051   2.171   0.343   0.617  0.1694 -1.4437  1.7769
14212TIP3    H264052   2.062   0.446   0.593  0.8214 -1.5871 -2.4544
14213TIP3   OH264053   5.520   1.007  14.400 -0.3870  0.2682 -0.0112
14213TIP3    H164054   5.495   1.096  14.424 -2.0635 -0.2373  0.2498
14213TIP3    H264055   5.456   0.981  14.334  2.2055  0.4872 -2.8399
14214TIP3   OH264056   2.496   2.850   1.096 -0.4498  0.0403  0.3816
14214TIP3    H164057   2.441   2.790   1.147 -0.3705 -0.7261 -0.4205
14214TIP3    H264058   2.585   2.833   1.127 -0.6117  1.0679  1.4657
14215TIP3   OH264059   5.648   2.958   2.065  0.2441 -0.0856 -0.6349
14215TIP3    H164060   5.677   3.004   1.987 -2.6148  1.1612 -1.0794
14215TIP3    H264061   5.557   2.986   2.077 -0.7623 -3.4644  0.7177
14216TIP3   OH264062   4.847   3.465   2.194 -0.6916  0.0969 -0.4009
14216TIP3    H164063   4.772   3.490   2.141  0.8151  0.9883 -2.2213
14216TIP3    H264064   4.904   3.542   2.193  0.7743 -0.9378 -0.0421
14217TIP3   OH264065   0.457   3.360   5.865  0.2839 -0.5675  0.1781
14217TIP3    H164066   0.492   3.273   5.842  1.1396  0.0866 -1.1589
14217TIP3    H264067   0.448   3.358   5.960 -0.5018 -2.4005  0.0984
14218TIP3   OH264068   5.899   3.117   0.964  0.0523  0.2185  0.0295
14218TIP3    H164069   5.957   3.132   0.889 -0.3240  1.1899 -0.0843
14218TIP3    H264070   5.854   3.035   0.943 -0.5346  0.8111 -1.1304
14219TIP3   OH264071   3.071   6.415   3.845 -0.2135 -0.6844  0.0235
14219TIP3    H164072   3.024   6.382   3.768  2.8986 -4.1285 -0.6427
14219TIP3    H264073   3.130   6.481   3.810  0.6077 -1.6536 -0.4586
14220TIP3   OH264074   0.080   4.709  12.768 -0.3462 -0.2738  0.2628
14220TIP3    H164075   0.135   4.684  12.843 -0.0125 -1.4590 -0.3518
14220TIP3    H264076   0.133   4.686  12.691 -0.5347  1.2633 -0.3592
14221TIP3   OH264077   1.209   5.791  13.620  0.2307 -0.6700  0.0267
14221TIP3    H164078   1.297   5.807  13.584  0.3279 -0.9303  0.1391
14221TIP3    H264079   1.224   5.724  13.687 -0.0777 -0.8197 -0.0551
14222TIP3   OH264080   5.808   0.525   0.049  0.3077 -0.1415  0.1633
14222TIP3    H164081   5.899   0.508   0.025  0.9036  0.7955  1.6711
14222TIP3    H264082   5.757   0.471  -0.012  1.8957 -2.1535  0.5096
14223TIP3   OH264083   1.395   2.999   3.461  0.0422  0.0176 -0.0007
14223TIP3    H164084   1.315   2.984   3.410 -1.6501 -0.9241  2.6841
14223TIP3    H264085   1.406   2.918   3.511  2.6016  0.2286 -0.1264
14224TIP3   OH264086   2.005   1.900  14.141  0.4556  0.1749  0.2027
14224TIP3    H164087   2.045   1.813  14.147  2.2183  0.9293 -0.0312
14224TIP3    H264088   2.027   1.942  14.224  0.6511  0.7993 -0.1561
14225TIP3   OH264089   6.443   5.488  16.617 -0.1109  0.0871  0.7709
14225TIP3    H164090   6.354   5.459  16.598  0.3033 -1.3767  0.9726
14225TIP3    H264091   6.476   5.520  16.533 -0.9627  1.0915  0.7944
14226TIP3   OH264092   4.443   5.672   1.837  0.3961  0.0392 -0.5459
14226TIP3    H164093   4.430   5.751   1.890  0.4690  0.5164 -1.2285
14226TIP3    H264094   4.459   5.704   1.749 -1.2200 -0.7824 -1.1849
14227TIP3   OH264095   4.582   0.122  15.608  0.2255 -0.3731 -0.2018
14227TIP3    H164096   4.610   0.213  15.606 -1.7408  0.3186  0.9093
14227TIP3    H264097   4.660   0.072  15.585  1.5236  1.5396 -0.1540
14228TIP3   OH264098   1.251   0.499   2.866 -0.0188  0.3826  0.1824
14228TIP3    H164099   1.299   0.571   2.826 -0.2343 -0.7252 -2.2640
14228TIP3    H264100   1.179   0.541   2.913 -0.4154  1.8023 -1.5639
14229TIP3   OH264101   6.570   5.613   3.596 -0.3762  0.0356 -0.2832
14229TIP3    H164102   6.606   5.588   3.511 -1.6926  1.0535 -1.1747
14229TIP3    H264103   6.475   5.611   3.583 -0.5788  1.8894  0.6476
14230TIP3   OH264104   2.980   1.469  16.599 -0.2360  0.5441  0.0613
14230TIP3    H164105   3.033   1.536  16.641 -0.6653  1.0279 -0.1579
14230TIP3    H264106   3.039   1.427  16.536  0.8553 -1.1750  2.1117
14231TIP3   OH264107   0.767   5.917  11.462 -0.3886  0.1610 -0.4524
14231TIP3    H164108   0.697   5.925  11.397  1.4262  1.4684 -2.3707
14231TIP3    H264109   0.800   6.007  11.474  0.5471 -0.3221  0.8962
14232TIP3   OH264110   4.908   1.513   6.588  0.4625 -0.0135 -0.0874
14232TIP3    H164111   4.849   1.576   6.548  0.1126  0.0927  0.5765
14232TIP3    H264112   4.995   1.537   6.556  0.0526 -0.9240 -2.0618
14233TIP3   OH264113   5.551   1.657   5.468  0.3660 -0.0592 -0.1907
14233TIP3    H164114   5.531   1.646   5.375  0.9222  0.3680 -0.3661
14233TIP3    H264115   5.489   1.600   5.513  0.3093 -0.5186 -0.8424
14234TIP3   OH264116   2.639   1.598   3.044 -0.0904  0.1822 -0.1252
14234TIP3    H164117   2.679   1.670   3.093  0.1311 -1.2530  1.9179
14234TIP3    H264118   2.613   1.535   3.111  0.3360 -1.9702 -1.8863
14235TIP3   OH264119   5.783   5.116   5.638  0.2503 -0.2892  0.0343
14235TIP3    H164120   5.866   5.154   5.667 -0.4645  1.8394 -0.5324
14235TIP3    H264121   5.777   5.033   5.685  1.4752  0.7050  2.0787
14236TIP3   OH264122   0.552   4.333  16.594 -0.3295  0.6124  0.1489
14236TIP3    H164123   0.632   4.285  16.570  0.8164  2.3273  0.3853
14236TIP3    H264124   0.497   4.329  16.516  0.8798  1.1805 -0.7573
14237TIP3   OH264125   3.735   2.675  15.467  0.0643  0.1689 -0.4717
14237TIP3    H164126   3.799   2.604  15.464  0.8312  0.8445 -2.4504
14237TIP3    H264127   3.789   2.755  15.468 -0.7735  0.7436  0.7169
14238TIP3   OH264128   3.081   6.295   5.680  0.5659 -0.2646  0.2059
14238TIP3    H164129   3.036   6.328   5.758  0.6052  0.6269 -0.1349
14238TIP3    H264130   3.063   6.201   5.680  1.5482 -0.4927  1.9284
14239TIP3   OH264131   0.725   5.126  13.605  0.1418 -0.3371 -0.0579
14239TIP3    H164132   0.671   5.049  13.626  0.6290 -0.6176  0.1935
14239TIP3    H264133   0.735   5.171  13.689 -1.5571  0.9411 -0.5025
14240TIP3   OH264134   1.242   1.725  13.823  0.6831  0.9540  0.1778
14240TIP3    H164135   1.233   1.816  13.853 -0.0078  0.4681  1.5236
14240TIP3    H264136   1.207   1.673  13.895  1.1029 -0.3913 -0.5686
14241TIP3   OH264137   4.724   4.820   4.647  0.2035 -0.4497 -0.1651
14241TIP3    H164138   4.675   4.877   4.588  1.3198  0.3989 -0.3075
14241TIP3    H264139   4.720   4.733   4.606 -0.4180 -0.2134 -0.6165
14242TIP3   OH264140   4.181   5.937   3.542  0.7224  0.1112  0.3222
14242TIP3    H164141   4.094   5.970   3.519  0.3045 -0.0183  1.6421
14242TIP3    H264142   4.166   5.844   3.562  1.8051 -0.8902 -2.9454
14243TIP3   OH264143   1.585   4.734   0.637  0.2722  0.2387 -0.1649
14243TIP3    H164144   1.508   4.738   0.581  0.1473  1.6909  0.0666
14243TIP3    H264145   1.658   4.759   0.580  0.1766  1.4819  0.2119
14244TIP3   OH264146   4.485   4.007  17.061  0.0104 -0.1699  0.1612
14244TIP3    H164147   4.435   4.057  16.996 -0.2827 -0.4055  0.2043
14244TIP3    H264148   4.418   3.969  17.118  0.1953 -1.1603 -0.2690
14245TIP3   OH264149   5.431   5.041  11.448  0.1016 -0.4703  0.4107
14245TIP3    H164150   5.427   4.948  11.426  0.1198 -0.8057  1.7564
14245TIP3    H264151   5.501   5.075  11.392  1.0063 -1.5571  0.8198
14246TIP3   OH264152   5.043   1.666  13.498  0.7241  0.3499  0.2160
14246TIP3    H164153   5.027   1.753  13.534  1.3890  1.1930 -1.3984
14246TIP3    H264154   4.972   1.612  13.533 -0.4578  1.8435  0.2302
14247TIP3   OH264155   2.072   6.153   1.653 -0.0848  0.3658  0.4760
14247TIP3    H164156   2.071   6.128   1.746  3.0671  1.0155  0.8047
14247TIP3    H264157   1.994   6.207   1.642 -0.2765  0.7191  2.9131
14248TIP3   OH264158   1.179   0.872   3.778  0.0607 -0.4293  0.4878
14248TIP3    H164159   1.194   0.847   3.869 -2.6082 -2.6558  0.4360
14248TIP3    H264160   1.116   0.808   3.745 -0.2197  1.1923 -2.5021
14249TIP3   OH264161   6.799   3.761  13.814 -0.0827 -0.7190 -0.6105
14249TIP3    H164162   6.742   3.804  13.749  1.9257  0.9640 -1.3596
14249TIP3    H264163   6.811   3.673  13.781 -1.4736 -0.8113 -0.9330
14250TIP3   OH264164   2.822   0.316  14.924  0.0949 -0.5219 -0.4504
14250TIP3    H164165   2.790   0.384  14.864 -2.2854 -1.0747  0.0728
14250TIP3    H264166   2.817   0.235  14.873 -1.0121 -0.8537  0.1584
14251TIP3   OH264167   6.630   1.078  13.720 -0.2098 -0.1103  0.7197
14251TIP3    H164168   6.631   1.035  13.635  0.1638  0.2817  0.5173
14251TIP3    H264169   6.610   1.009  13.782  0.3927 -0.5738  0.4067
14252TIP3   OH264170   0.478   0.734  10.991  0.2618  0.4554 -0.1242
14252TIP3    H164171   0.414   0.758  11.058  0.0573 -0.6673  0.1163
14252TIP3    H264172   0.551   0.795  11.005  0.2401  0.2333  1.1741
14253TIP3   OH264173   3.817   0.995  10.906  0.9311 -0.1124  0.1276
14253TIP3    H164174   3.734   0.985  10.859  0.6680  0.7061  0.4061
14253TIP3    H264175   3.859   0.909  10.898  1.7151  0.4387 -3.1214
14254TIP3   OH264176   4.529   2.423  14.761 -0.0351 -0.6568  0.3886
14254TIP3    H164177   4.485   2.478  14.826  0.8829  1.1169 -0.4124
14254TIP3    H264178   4.565   2.350  14.811 -0.6998 -0.1663  1.6107
14255TIP3   OH264179   1.817   6.162  12.065  0.0764 -0.6042  0.3090
14255TIP3    H164180   1.815   6.145  12.159  1.0264  0.1996  0.4982
14255TIP3    H264181   1.908   6.186  12.048  0.0382 -1.2670 -0.9223
14256TIP3   OH264182   4.993   0.430   6.525 -0.0770  0.2518  0.1958
14256TIP3    H164183   4.939   0.354   6.507 -1.0345  1.6137 -3.7227
14256TIP3    H264184   5.077   0.411   6.482  0.6817  0.3660  1.5542
14257TIP3   OH264185   6.785   3.266   1.341  0.0008 -0.6286 -0.2494
14257TIP3    H164186   6.759   3.253   1.250  2.0857  0.1577 -1.0161
14257TIP3    H264187   6.792   3.361   1.351  1.4172 -0.7510  0.1989
14258TIP3   OH264188   6.344   1.040   4.904 -0.0209  0.0165  0.0962
14258TIP3    H164189   6.406   1.113   4.894 -1.3487  0.9918 -1.4126
14258TIP3    H264190   6.269   1.078   4.950 -0.2407 -0.7298  0.3740
14259TIP3   OH264191   1.731   3.391   2.458  0.4214 -0.3947 -0.2839
14259TIP3    H164192   1.820   3.420   2.440  0.8494 -0.8708  0.9422
14259TIP3    H264193   1.742   3.317   2.519 -0.8792  1.9336  3.0649
14260TIP3   OH264194   0.340   0.435   5.863 -0.3617  0.4927 -0.0521
14260TIP3    H164195   0.343   0.342   5.888 -1.6380 -0.2585 -2.3924
14260TIP3    H264196   0.257   0.467   5.897 -0.3903  0.5049 -0.1341
14261TIP3   OH264197   6.207   0.278   5.270  0.2150 -0.7713  0.3722
14261TIP3    H164198   6.159   0.296   5.189  1.8801  0.2637 -0.4348
14261TIP3    H264199   6.191   0.355   5.325  0.6362 -0.5930  0.2484
14262TIP3   OH264200   4.951   5.912  16.805  0.1120  0.4512 -0.4156
14262TIP3    H164201   4.952   5.976  16.877  2.6268 -0.4825  0.4740
14262TIP3    H264202   4.900   5.839  16.839  1.4958 -0.0885  0.5586
14263TIP3   OH264203   5.817   5.230   3.505  0.1854 -0.3475 -0.2700
14263TIP3    H164204   5.833   5.324   3.498  0.8523 -0.4131  0.2311
14263TIP3    H264205   5.830   5.196   3.417  1.8503 -0.2416 -0.0908
14264TIP3   OH264206   6.385   6.674   4.893  0.2410  0.3620 -0.1208
14264TIP3    H164207   6.451   6.655   4.827 -0.8571  1.6603 -1.6953
14264TIP3    H264208   6.320   6.605   4.883 -0.3206  0.9883 -1.0184
14265TIP3   OH264209   6.319   1.882  14.765  0.4828  0.1628 -0.2987
14265TIP3    H164210   6.325   1.790  14.791 -0.0345  0.4724  1.0235
14265TIP3    H264211   6.243   1.915  14.814 -0.5614  0.8099 -2.2543
14266TIP3   OH264212   6.179   4.919   2.214 -0.4251  0.0209 -0.4002
14266TIP3    H164213   6.240   4.937   2.286  0.4519  1.7092 -1.4733
14266TIP3    H264214   6.101   4.883   2.256 -0.1620  1.4648  1.4760
14267TIP3   OH264215   4.217   3.184   4.020  0.0892  0.1478  0.2656
14267TIP3    H164216   4.195   3.176   4.112  1.0428  0.0823  0.4959
14267TIP3    H264217   4.205   3.096   3.984  1.5039 -0.2674  0.7444
14268TIP3   OH264218   5.342   0.522   3.298 -0.1612 -0.5488  0.0380
14268TIP3    H164219   5.282   0.448   3.287 -0.7617 -0.3590  1.6381
14268TIP3    H264220   5.296   0.580   3.359  0.5686  0.8497 -0.6941
14269TIP3   OH264221   4.683   2.473   5.191  0.2273 -0.7351  0.2143
14269TIP3    H164222   4.760   2.433   5.232  1.3283  0.7791 -0.2801
14269TIP3    H264223   4.611   2.454   5.251  1.5607  0.3977  2.2593
14270TIP3   OH264224   4.188   0.479  13.937  0.6169  0.3750  0.1012
14270TIP3    H164225   4.239   0.424  13.997  1.0303  0.1828 -0.4159
14270TIP3    H264226   4.109   0.429  13.920 -0.5221  1.3725  2.1648
14271TIP3   OH264227   5.922   1.560  15.745 -0.0531  0.8038 -0.1872
14271TIP3    H164228   5.915   1.519  15.659  0.2574  0.1151  0.1078
14271TIP3    H264229   6.009   1.533  15.776 -0.2400  0.9017  0.4170
14272TIP3   OH264230   2.447   4.107   2.553 -0.0441 -0.1084  0.4349
14272TIP3    H164231   2.353   4.119   2.566 -0.0424  0.1517  0.2199
14272TIP3    H264232   2.479   4.070   2.636 -0.2582  0.2467  0.6786
14273TIP3   OH264233   1.649   2.819   4.917 -0.2033 -0.1254  0.3495
14273TIP3    H164234   1.678   2.743   4.967  2.1871 -1.3213 -2.5504
14273TIP3    H264235   1.692   2.893   4.959  2.0609 -1.1332 -0.0721
14274TIP3   OH264236   6.391   4.622  15.814  0.5609  0.3323 -0.9994
14274TIP3    H164237   6.366   4.599  15.725 -2.4165 -1.4324  0.1093
14274TIP3    H264238   6.307   4.630  15.860  1.9700 -0.8388  2.0624
14275TIP3   OH264239   3.269   2.766  14.437  0.4414 -0.4951  0.8371
14275TIP3    H164240   3.363   2.761  14.419  0.1831  2.9134 -2.9076
14275TIP3    H264241   3.232   2.695  14.384  0.7549 -0.1129  0.0914
14276TIP3   OH264242   5.697   1.595   3.766 -0.4313 -0.0655  0.2651
14276TIP3    H164243   5.726   1.504   3.778 -0.1666 -0.1394 -0.8322
14276TIP3    H264244   5.751   1.645   3.827  1.5541 -0.3067 -1.1912
14277TIP3   OH264245   1.200   2.411   2.784 -0.0094  0.5620  0.6170
14277TIP3    H164246   1.173   2.427   2.874 -0.5959  0.4754  0.4645
14277TIP3    H264247   1.121   2.425   2.732 -0.0182 -0.6515  0.2551
14278TIP3   OH264248   5.973   5.238   5.013  0.1969  0.1851 -0.0004
14278TIP3    H164249   6.023   5.161   4.984 -1.1498  0.1228 -2.4334
14278TIP3    H264250   5.948   5.282   4.932  1.2604  3.5110  1.2870
14279TIP3   OH264251   3.471   1.539  12.264  0.4615 -0.4318 -0.2483
14279TIP3    H164252   3.499   1.476  12.198  0.4245 -2.2921  1.4196
14279TIP3    H264253   3.458   1.487  12.343 -0.9718  1.4680  0.8519
14280TIP3   OH264254   0.551   4.872   5.422 -0.3933  0.3063 -0.4596
14280TIP3    H164255   0.533   4.911   5.508 -0.4341  1.6884 -1.0696
14280TIP3    H264256   0.484   4.805   5.412 -0.1695 -0.1266  0.7363
14281TIP3   OH264257   0.186   6.161  16.165 -0.1805 -0.1930 -0.3117
14281TIP3    H164258   0.199   6.209  16.083  2.1879 -0.2348 -0.0381
14281TIP3    H264259   0.122   6.213  16.213  1.9220  2.5355 -0.2308
14282TIP3   OH264260   1.344   1.220   2.013  0.1178 -0.7731 -0.6856
14282TIP3    H164261   1.342   1.314   2.031 -1.0300 -0.9275  0.1153
14282TIP3    H264262   1.416   1.209   1.950 -0.7835  0.8529 -2.0718
14283TIP3   OH264263   0.247   5.370  16.854 -0.4487 -0.8297  0.1122
14283TIP3    H164264   0.181   5.361  16.786 -1.5906 -1.6021  1.2647
14283TIP3    H264265   0.203   5.341  16.934 -0.0793  2.4833  1.7253
14284TIP3   OH264266   5.105   5.533  15.329 -0.1319 -0.2137  0.3346
14284TIP3    H164267   5.200   5.535  15.312 -0.3677  1.7737 -1.2189
14284TIP3    H264268   5.067   5.500  15.248 -0.8289  0.6221  0.3038
14285TIP3   OH264269   5.662   4.533  11.413 -0.1903 -0.6638 -0.0132
14285TIP3    H164270   5.709   4.496  11.338 -0.3212 -1.3515  0.2392
14285TIP3    H264271   5.583   4.571  11.375 -0.0290 -0.5930 -0.2824
14286TIP3   OH264272   5.226   5.788   5.644  0.1671 -0.4248 -0.2450
14286TIP3    H164273   5.250   5.705   5.684  0.5938 -0.7921 -1.2198
14286TIP3    H264274   5.310   5.833   5.631  0.0336 -0.2882 -0.6485
14287TIP3   OH264275   0.734   4.064   4.241 -0.0117 -0.6863 -0.5215
14287TIP3    H164276   0.781   4.009   4.303 -2.7566 -0.9798  1.4736
14287TIP3    H264277   0.691   4.002   4.182 -2.2660 -0.7559  1.0897
14288TIP3   OH264278   4.743   2.021  13.625  0.1845 -0.3368 -0.5077
14288TIP3    H164279   4.781   1.949  13.676  1.3817  1.0304  0.6204
14288TIP3    H264280   4.818   2.062  13.582 -0.4419  0.3854 -0.9275
14289TIP3   OH264281   5.835   1.847   3.877  0.5168  0.0217  0.0107
14289TIP3    H164282   5.786   1.918   3.836  0.7195  1.2706  1.8201
14289TIP3    H264283   5.927   1.871   3.867  0.6201 -0.3918 -0.0559
14290TIP3   OH264284   3.016   5.850  14.915 -0.2744 -0.0450 -0.4444
14290TIP3    H164285   2.970   5.804  14.845  3.8976 -1.7965 -2.3691
14290TIP3    H264286   3.022   5.785  14.986  0.1712 -0.2418 -0.6575
14291TIP3   OH264287   1.428   5.279   5.325 -0.2813  0.7382 -0.1692
14291TIP3    H164288   1.499   5.244   5.271 -1.5164 -0.3427 -1.1375
14291TIP3    H264289   1.353   5.286   5.265 -0.7679  2.7798  0.5832
14292TIP3   OH264290   4.609   6.662   4.124 -0.7862 -0.3167 -0.5607
14292TIP3    H164291   4.550   6.735   4.106  0.4625  0.6511 -0.8767
14292TIP3    H264292   4.626   6.622   4.038  1.1080  1.1037 -0.9163
14293TIP3   OH264293   1.401   3.701   0.263  0.0250  0.0224 -0.2565
14293TIP3    H164294   1.410   3.606   0.273 -2.6956 -0.0868  2.9235
14293TIP3    H264295   1.487   3.735   0.287  0.7170 -1.5928 -0.2753
14294TIP3   OH264296   3.480   5.814  13.726  0.2992  0.2218 -0.2778
14294TIP3    H164297   3.489   5.795  13.820  1.7728 -0.6935 -0.5723
14294TIP3    H264298   3.386   5.822  13.713  0.0050 -0.5194  1.1290
14295TIP3   OH264299   0.936   1.198   5.077  0.3194 -0.5089  0.3247
14295TIP3    H164300   0.960   1.152   4.997  0.1396  2.4810 -1.5904
14295TIP3    H264301   1.019   1.206   5.125  0.5365 -1.8055  0.2082
14296TIP3   OH264302   1.584   6.255   0.514  0.5076  0.1856  0.3161
14296TIP3    H164303   1.510   6.314   0.502  1.5455  1.6860  0.8742
14296TIP3    H264304   1.579   6.193   0.442  0.3642  2.0814 -1.3781
14297TIP3   OH264305   3.499   0.591   6.512 -0.3493  0.7174 -0.1749
14297TIP3    H164306   3.565   0.522   6.522 -1.6452 -0.4649  0.5856
14297TIP3    H264307   3.537   0.667   6.554  0.5278  0.0558  0.2612
14298TIP3   OH264308   1.063   5.233  16.476 -0.7987  0.3459  0.8540
14298TIP3    H164309   1.012   5.284  16.538 -1.3425 -1.5966  2.0601
14298TIP3    H264310   1.143   5.211  16.523 -0.1763  0.7753  0.0374
14299TIP3   OH264311   5.793   4.563   1.578  0.1771 -0.3375 -0.5085
14299TIP3    H164312   5.793   4.484   1.525  1.3680 -0.9593  0.3819
14299TIP3    H264313   5.703   4.570   1.610 -0.2596 -0.5985 -1.6181
14300TIP3   OH264314   5.007   4.509   5.642  0.5002 -0.8298 -0.9322
14300TIP3    H164315   5.028   4.481   5.731 -2.2143 -1.8329 -0.5236
14300TIP3    H264316   4.918   4.543   5.648  0.5762 -0.0934 -3.1271
14301TIP3   OH264317   1.508   4.386  17.086 -0.1005 -0.3659  0.2239
14301TIP3    H164318   1.578   4.324  17.064 -1.1344 -1.3179 -0.4950
14301TIP3    H264319   1.428   4.334  17.082 -1.1480  1.2690 -1.6243
14302TIP3   OH264320   1.229   4.690   5.616  0.1357  0.2296  0.2455
14302TIP3    H164321   1.280   4.679   5.536  0.8551 -1.0704  0.8485
14302TIP3    H264322   1.231   4.604   5.657  0.2126  0.9930  1.9137
14303TIP3   OH264323   4.875   2.591   4.777 -0.4699 -0.2581  0.3047
14303TIP3    H164324   4.929   2.578   4.855 -0.5126 -1.7473  0.1099
14303TIP3    H264325   4.789   2.557   4.802 -0.6106 -0.3002 -0.2311
14304TIP3   OH264326   3.150   2.289   1.286 -0.5267 -0.6091  0.1110
14304TIP3    H164327   3.093   2.223   1.326 -1.2507 -0.4645 -0.6679
14304TIP3    H264328   3.168   2.351   1.357 -2.3845  0.0434  0.0683
14305TIP3   OH264329   2.505   4.466   4.080  0.2292 -0.4003 -0.2030
14305TIP3    H164330   2.458   4.456   3.997 -0.9219 -2.4108  0.6172
14305TIP3    H264331   2.579   4.523   4.059 -1.2334  0.9050 -2.0923
14306TIP3   OH264332   6.658   0.623   1.060  0.4928  0.2792  0.5431
14306TIP3    H164333   6.746   0.610   1.096  0.9394  0.0872 -0.5505
14306TIP3    H264334   6.619   0.536   1.062  0.9957  0.0037 -0.5788
14307TIP3   OH264335   2.095   6.173  13.765 -0.1380  0.1635  0.0724
14307TIP3    H164336   2.129   6.262  13.752 -0.9725  0.4610 -0.1122
14307TIP3    H264337   2.037   6.180  13.841 -0.3247 -0.1875 -0.0334
14308TIP3   OH264338   6.110   6.628  12.101 -0.2476  0.2413 -0.6805
14308TIP3    H164339   6.195   6.585  12.106 -0.5147 -0.2083  0.6058
14308TIP3    H264340   6.064   6.597  12.180 -0.9083  1.9158 -0.3742
14309TIP3   OH264341   3.755   6.623  11.647 -0.3191  0.5368 -0.4418
14309TIP3    H164342   3.778   6.625  11.555  0.4114 -0.0821 -0.2861
14309TIP3    H264343   3.660   6.614  11.648 -0.3075  0.2827 -1.1381
14310TIP3   OH264344   4.424   5.792  15.490 -0.9117 -0.5891 -0.7213
14310TIP3    H164345   4.431   5.881  15.525  2.0528 -1.8451  2.4995
14310TIP3    H264346   4.501   5.782  15.435  0.0625 -1.7891  0.7931
14311TIP3   OH264347   6.781   1.818   6.158 -0.4383  0.0007  0.2422
14311TIP3    H164348   6.810   1.727   6.166 -2.3195 -0.6351  0.3105
14311TIP3    H264349   6.694   1.812   6.120  0.3885  1.9369 -2.2440
14312TIP3   OH264350   2.826   6.289  14.548  0.1498 -0.7890 -0.4522
14312TIP3    H164351   2.741   6.272  14.588  0.5773 -0.0115  0.8828
14312TIP3    H264352   2.869   6.349  14.609  0.7896  0.6217 -2.1927
14313TIP3   OH264353   3.559   5.137  11.947 -0.3212  0.5345 -0.1776
14313TIP3    H164354   3.482   5.132  11.890 -1.0370 -2.1450  0.8727
14313TIP3    H264355   3.627   5.091  11.898  0.2206  1.6235 -0.4768
14314TIP3   OH264356   3.631   1.771  12.243 -0.4618  0.3455 -0.6356
14314TIP3    H164357   3.586   1.687  12.245  1.0013 -0.4653  0.3955
14314TIP3    H264358   3.709   1.754  12.189 -0.7383  1.3793 -1.3919
14315TIP3   OH264359   6.331   4.263  10.796 -0.7685  0.6855 -0.1758
14315TIP3    H164360   6.243   4.226  10.806  0.0072 -1.9240 -2.0815
14315TIP3    H264361   6.337   4.284  10.703  0.8977  0.0336 -0.2426
14316TIP3   OH264362   3.430   0.032   4.158 -0.0940  0.1606 -0.4900
14316TIP3    H164363   3.492   0.040   4.231  0.6446  2.2816 -1.2642
14316TIP3    H264364   3.347   0.009   4.199  0.7344 -0.6791  0.7880
14317TIP3   OH264365   6.054   6.553   2.791  0.1718 -0.2311 -0.2141
14317TIP3    H164366   6.096   6.469   2.771  0.6212 -0.1863  0.5143
14317TIP3    H264367   6.122   6.619   2.776  0.8620 -0.2624  2.2955
14318TIP3   OH264368   0.756   3.686  16.136 -0.2895 -0.4570  0.3541
14318TIP3    H164369   0.746   3.618  16.070 -0.8511  0.9337 -1.0506
14318TIP3    H264370   0.759   3.768  16.086 -2.9228  0.8429  2.1373
14319TIP3   OH264371   2.395   5.195   2.891 -0.2486  0.1026 -0.1196
14319TIP3    H164372   2.489   5.211   2.888 -0.0247 -1.2209 -2.2338
14319TIP3    H264373   2.355   5.281   2.878  0.6914  0.4901 -0.5207
14320TIP3   OH264374   4.547   5.801  12.774 -0.8131  0.0928 -0.6007
14320TIP3    H164375   4.597   5.763  12.846 -0.5272 -0.4377 -1.0624
14320TIP3    H264376   4.584   5.889  12.763  0.5229 -0.5308 -1.3745
14321TIP3   OH264377   3.225   5.842  13.329 -0.0856  0.4382 -0.0635
14321TIP3    H164378   3.237   5.930  13.292 -2.2283  0.4316 -0.9043
14321TIP3    H264379   3.311   5.818  13.362  0.8061  2.4048 -0.8169
14322TIP3   OH264380   2.870   4.219   5.815 -0.2830  0.2128  0.3003
14322TIP3    H164381   2.901   4.223   5.724  1.0343  0.6265  0.7381
14322TIP3    H264382   2.939   4.172   5.861 -0.0828  1.5277  1.4049
14323TIP3   OH264383   0.445   2.892   1.612 -0.3159 -0.1244 -0.5451
14323TIP3    H164384   0.409   2.879   1.699 -0.5178  2.2446 -0.2052
14323TIP3    H264385   0.516   2.828   1.605 -0.8032 -0.8737  1.0329
14324TIP3   OH264386   0.062   4.834   6.506  0.0605  0.0140 -0.1361
14324TIP3    H164387   0.093   4.864   6.592  2.6086 -1.4084 -0.4538
14324TIP3    H264388   0.077   4.739   6.507 -1.4455 -0.2879 -1.5725
14325TIP3   OH264389   0.437   6.327   1.440  0.0870  0.0076  0.2206
14325TIP3    H164390   0.374   6.265   1.477  0.4402 -1.9142 -2.1708
14325TIP3    H264391   0.384   6.383   1.382  0.4729 -1.7263 -1.9344
14326TIP3   OH264392   3.193   5.297   2.108  0.1453  0.0158  0.2223
14326TIP3    H164393   3.112   5.334   2.072  1.7422  0.7582 -3.0108
14326TIP3    H264394   3.233   5.370   2.156 -0.1108  0.3039  0.0023
14327TIP3   OH264395   6.407   2.673   3.115 -0.4462  0.1276  0.7446
14327TIP3    H164396   6.486   2.718   3.147  0.0305  0.4199 -0.7411
14327TIP3    H264397   6.407   2.590   3.161 -0.1883  0.7968  2.0039
14328TIP3   OH264398   3.746   1.375   0.745 -0.4146 -0.1357 -0.3155
14328TIP3    H164399   3.724   1.467   0.732 -1.2221 -0.0281  1.5170
14328TIP3    H264400   3.831   1.377   0.789 -1.0888 -0.1758  1.0389
14329TIP3   OH264401   6.353   3.377  12.822 -0.6423  0.6548 -0.0614
14329TIP3    H164402   6.376   3.298  12.773 -0.4450  0.4019  0.4318
14329TIP3    H264403   6.413   3.444  12.788  0.1430  0.2513  0.4896
14330TIP3   OH264404   6.011   0.470  13.383  0.1123 -0.4967  0.5244
14330TIP3    H164405   6.045   0.381  13.391 -0.2974 -0.5299  2.1413
14330TIP3    H264406   5.916   0.460  13.389 -0.4638 -0.4301 -4.1506
14331TIP3   OH264407   5.690   5.220   4.667  0.6131  0.1342 -0.3947
14331TIP3    H164408   5.725   5.273   4.596 -0.6718  0.8945 -0.4886
14331TIP3    H264409   5.693   5.130   4.635  0.1961  0.4568 -1.3569
14332TIP3   OH264410   3.186   4.574   2.999  0.6733 -0.4689  0.1728
14332TIP3    H164411   3.093   4.584   2.981  1.1221 -0.6944 -2.7114
14332TIP3    H264412   3.225   4.655   2.965  1.6373 -0.6858  0.7201
14333TIP3   OH264413   0.714   1.752  14.292  0.0000 -0.2425  0.0435
14333TIP3    H164414   0.700   1.841  14.326  0.7155  0.4181 -1.3057
14333TIP3    H264415   0.726   1.765  14.198  0.6722 -1.7177 -0.0890
14334TIP3   OH264416   4.335   3.059   2.576 -0.5531 -1.3084 -0.7638
14334TIP3    H164417   4.429   3.040   2.566 -0.2994  0.3890 -2.0252
14334TIP3    H264418   4.310   3.012   2.655  2.0244  0.3529  1.2304
14335TIP3   OH264419   5.829   0.591   4.866  0.0443 -0.4883 -0.3742
14335TIP3    H164420   5.894   0.522   4.852 -1.0351 -1.2984 -1.6241
14335TIP3    H264421   5.859   0.663   4.810  0.1164 -0.6828 -0.5880
14336TIP3   OH264422   5.852   2.085   5.013 -0.9199 -0.6175  0.3774
14336TIP3    H164423   5.801   2.148   5.065 -0.6948 -0.1040 -0.0147
14336TIP3    H264424   5.915   2.048   5.075 -1.7154 -1.2012  0.8467
14337TIP3   OH264425   0.793   1.920  16.504  0.4692 -0.5121  0.2799
14337TIP3    H164426   0.845   1.935  16.426  2.2435 -1.3691  1.2377
14337TIP3    H264427   0.722   1.984  16.499  2.0512  1.2493 -0.6919
14338TIP3   OH264428   5.105   3.568  12.943 -0.6412 -0.3895  0.8408
14338TIP3    H164429   5.141   3.509  12.877  0.6489 -0.0755  1.2421
14338TIP3    H264430   5.047   3.513  12.995  1.8509 -1.8119  2.3105
14339TIP3   OH264431   6.583   6.283  12.885 -0.0863 -0.1642  0.4111
14339TIP3    H164432   6.613   6.240  12.965  0.1443 -1.2019 -0.2136
14339TIP3    H264433   6.590   6.215  12.817  1.7568  1.2719 -0.9420
14340TIP3   OH264434   4.395   6.099   0.081  0.1271  0.1778  1.0231
14340TIP3    H164435   4.454   6.174   0.089  1.1595 -0.7281  2.7093
14340TIP3    H264436   4.446   6.026   0.116 -0.4636 -1.5494 -1.4720
14341TIP3   OH264437   6.144   4.446   0.162  0.7266  0.6871 -0.1843
14341TIP3    H164438   6.169   4.459   0.070  1.4974  0.9859  0.0629
14341TIP3    H264439   6.199   4.507   0.211  0.1313  0.7148  0.4576
14342TIP3   OH264440   4.541   1.269  15.411  0.7269  0.2064 -0.1603
14342TIP3    H164441   4.457   1.225  15.403  0.1981  1.2640 -0.7543
14342TIP3    H264442   4.589   1.221  15.478  0.6038 -1.8842 -1.4969
14343TIP3   OH264443   0.992   2.943  14.952 -0.4434  0.5469  0.7165
14343TIP3    H164444   1.073   2.971  14.909  1.1827 -0.2631  3.0810
14343TIP3    H264445   0.955   2.878  14.892  0.4702  1.1295 -0.5393
14344TIP3   OH264446   4.396   5.625   3.699 -0.1182 -0.1496  0.4704
14344TIP3    H164447   4.378   5.535   3.672 -1.2950  0.3699 -0.5879
14344TIP3    H264448   4.412   5.619   3.794  2.1256 -1.7549  0.0888
14345TIP3   OH264449   1.116   4.369   1.830  0.0419 -0.2574  0.1781
14345TIP3    H164450   1.187   4.305   1.827 -1.3288 -1.8501 -0.3978
14345TIP3    H264451   1.122   4.415   1.747 -0.2968 -1.2279 -0.4038
14346TIP3   OH264452   0.229   2.875   6.614  0.0406 -0.2015  0.0942
14346TIP3    H164453   0.291   2.923   6.559  0.8728 -0.5902  0.6724
14346TIP3    H264454   0.235   2.785   6.584 -0.1641 -0.2558  0.2170
14347TIP3   OH264455   2.720   3.200  14.291  0.0472 -0.7135 -0.3092
14347TIP3    H164456   2.664   3.221  14.215  1.3389  0.2697 -1.0239
14347TIP3    H264457   2.805   3.181  14.252  0.4399 -1.3478  0.8379
14348TIP3   OH264458   2.936   5.427   2.837  0.5971 -0.0874 -0.0906
14348TIP3    H164459   2.993   5.475   2.898  0.1764 -1.3098  1.3285
14348TIP3    H264460   2.959   5.335   2.850 -2.7648 -0.8170  1.8135
14349TIP3   OH264461   1.230   1.549  16.993  0.0220  0.2366  0.3535
14349TIP3    H164462   1.238   1.630  16.942 -0.9059 -1.7728 -3.3181
14349TIP3    H264463   1.305   1.551  17.053  2.0007  2.2455 -1.9722
14350TIP3   OH264464   4.231   3.384   0.427  0.5368 -0.5684  0.3406
14350TIP3    H164465   4.200   3.456   0.372  1.4794 -0.4804 -0.0963
14350TIP3    H264466   4.223   3.306   0.371 -0.1569 -0.7554  0.6934
14351TIP3   OH264467   1.447   3.914  14.506  0.1542  0.2758  0.0915
14351TIP3    H164468   1.356   3.937  14.526 -0.1496  0.4296 -1.2973
14351TIP3    H264469   1.484   3.994  14.467  0.5781 -0.0726 -0.2336
14352TIP3   OH264470   6.157   6.593  15.450 -0.5826  0.2160 -0.1749
14352TIP3    H164471   6.107   6.662  15.406 -0.5688 -0.3067 -1.0127
14352TIP3    H264472   6.093   6.525  15.471 -0.4433  0.1054 -0.1011
14353TIP3   OH264473   4.180   4.919  13.088  0.2550  0.0321 -0.0585
14353TIP3    H164474   4.104   4.931  13.031  0.1533 -1.7533 -0.3628
14353TIP3    H264475   4.244   4.982  13.057 -0.2901 -0.0062 -1.2989
14354TIP3   OH264476   0.945   6.200  14.430 -0.4319  0.6378  0.3068
14354TIP3    H164477   1.010   6.238  14.370  1.7727  1.0081  2.7000
14354TIP3    H264478   0.864   6.199  14.381  1.2642  0.6761 -2.7205
14355TIP3   OH264479   2.869   3.499  10.430  0.6009  0.1543  0.2424
14355TIP3    H164480   2.884   3.578  10.378  2.5868  0.2611  0.9096
14355TIP3    H264481   2.935   3.503  10.499 -0.8549 -0.8708  1.7564
14356TIP3   OH264482   5.169   1.922  15.645  0.1353 -0.2173  0.0194
14356TIP3    H164483   5.239   1.902  15.707 -0.0780 -2.3121 -0.3211
14356TIP3    H264484   5.106   1.973  15.695  1.9110  1.8926  0.2933
14357TIP3   OH264485   6.425   5.838  11.793 -0.0440 -1.2072 -0.5024
14357TIP3    H164486   6.381   5.805  11.715  0.7311  1.9008 -2.4586
14357TIP3    H264487   6.516   5.810  11.784  0.6874  1.3656 -2.3275
14358TIP3   OH264488   3.840   3.915   3.819  0.2854 -0.7023  0.6267
14358TIP3    H164489   3.822   3.957   3.735 -0.8736  1.2029  1.7631
14358TIP3    H264490   3.755   3.880   3.846  0.5076 -0.7209  1.3112
14359TIP3   OH264491   6.413   0.980   4.364  0.6070  0.3504 -0.1317
14359TIP3    H164492   6.365   1.063   4.370 -0.9322 -0.6240  2.7365
14359TIP3    H264493   6.504   1.007   4.352 -0.1501  2.3439 -2.1191
14360TIP3   OH264494   0.269   3.955  16.858 -0.3193 -0.2691 -0.2688
14360TIP3    H164495   0.304   4.044  16.861  0.0874 -0.4032  3.0453
14360TIP3    H264496   0.175   3.965  16.873 -0.5378 -0.3490 -1.4886
14361TIP3   OH264497   1.497   0.371  12.994  0.4204  0.0602  0.0941
14361TIP3    H164498   1.537   0.346  13.078  0.4300  0.5477  0.2365
14361TIP3    H264499   1.429   0.306  12.981 -1.7981  1.7951  2.1097
14362TIP3   OH264500   4.464   1.574  16.465  0.0823 -0.2712  0.0642
14362TIP3    H164501   4.537   1.585  16.405 -0.2926 -1.3120 -0.6040
14362TIP3    H264502   4.448   1.662  16.500 -0.8954  0.7760 -2.7427
14363TIP3   OH264503   1.652   2.031  11.780  0.3281 -0.3391 -0.0169
14363TIP3    H164504   1.630   2.053  11.689 -1.2268 -1.4708  0.0452
14363TIP3    H264505   1.575   1.983  11.812 -0.1820  1.9774  2.6344
14364TIP3   OH264506   4.616   6.283   5.960 -0.1895  0.3777 -0.0341
14364TIP3    H164507   4.654   6.336   6.030 -1.6310  0.3014  0.8528
14364TIP3    H264508   4.685   6.277   5.894  0.2735  2.8037  0.1236
14365TIP3   OH264509   0.959   0.073  11.553 -0.1704  0.3130  0.2895
14365TIP3    H164510   0.937   0.095  11.462 -1.3053  0.1517  0.5038
14365TIP3    H264511   1.036   0.017  11.546 -0.5444 -0.1231 -0.6169
14366TIP3   OH264512   3.962   2.989   4.772 -0.3877  0.1904 -0.1653
14366TIP3    H164513   3.977   2.916   4.713  0.5572 -0.5320  0.9389
14366TIP3    H264514   4.020   2.974   4.846 -1.2126  1.3028  0.7659
14367TIP3   OH264515   1.537   1.398  16.847  0.4548  0.0048 -0.1153
14367TIP3    H164516   1.608   1.414  16.910  0.7936  3.0755 -1.0882
14367TIP3    H264517   1.457   1.401  16.899  0.7210  2.6224  0.2595
14368TIP3   OH264518   2.759   1.563  16.232 -0.0270 -0.1775 -0.6371
14368TIP3    H164519   2.780   1.481  16.277 -1.6140 -0.8185 -1.0052
14368TIP3    H264520   2.833   1.579  16.174  0.1394 -1.5331 -0.8155
14369TIP3   OH264521   1.443   4.182  15.983 -0.3029  0.0551 -0.6196
14369TIP3    H164522   1.408   4.155  16.069 -0.3737 -0.0520 -0.6810
14369TIP3    H264523   1.386   4.255  15.956  1.3583  1.9262  0.6453
14370TIP3   OH264524   4.173   1.131  11.689  0.0429  0.4093 -0.3106
14370TIP3    H164525   4.208   1.042  11.694 -0.9299  0.0769  1.3218
14370TIP3    H264526   4.132   1.135  11.603 -1.9855 -1.5923  0.4430
14371TIP3   OH264527   0.972   3.034   3.974 -0.0443  0.0601 -0.1028
14371TIP3    H164528   0.898   2.994   3.928 -0.1233 -0.0548  0.1244
14371TIP3    H264529   0.931   3.088   4.042  0.0992 -0.5738  0.4946
14372TIP3   OH264530   1.539   6.671  13.536  0.2124  0.1783 -0.6888
14372TIP3    H164531   1.610   6.714  13.584 -0.7588  0.2562  0.7290
14372TIP3    H264532   1.568   6.581  13.527  1.0994  0.5103 -1.3693
14373TIP3   OH264533   2.096   3.245  13.793 -0.2044  0.2222 -0.1449
14373TIP3    H164534   2.163   3.183  13.823 -0.0126  0.1444 -0.7026
14373TIP3    H264535   2.146   3.317  13.755 -0.4180 -0.2010 -1.2875
14374TIP3   OH264536   3.838   3.991   3.547  0.7067  0.4202 -0.7633
14374TIP3    H164537   3.802   3.946   3.470 -0.1508  2.1704 -1.4488
14374TIP3    H264538   3.924   3.951   3.561 -0.4643 -2.2269 -0.5717
14375TIP3   OH264539   0.903   1.988  13.239  0.3735  0.7930  0.5668
14375TIP3    H164540   0.944   1.915  13.192 -0.4491 -0.4847  1.7252
14375TIP3    H264541   0.972   2.024  13.294  0.3460 -0.4043  1.4311
14376TIP3   OH264542   5.892   2.224  14.113  0.3680 -0.1319 -0.4781
14376TIP3    H164543   5.898   2.148  14.172 -0.5982  0.1294 -0.0165
14376TIP3    H264544   5.983   2.248  14.095  0.6899 -1.3310 -0.5501
14377TIP3   OH264545   6.296   1.016  12.326  0.0263 -0.0297 -0.6280
14377TIP3    H164546   6.307   0.985  12.416 -2.3579  2.5087  0.7010
14377TIP3    H264547   6.217   0.971  12.295  0.5163 -0.4692 -1.2399
14378TIP3   OH264548   5.178   4.958  11.769  0.2404 -0.4988 -0.2100
14378TIP3    H164549   5.253   4.898  11.773  1.3449  0.5894 -2.6764
14378TIP3    H264550   5.136   4.938  11.686 -1.7988 -0.5258  0.7652
14379TIP3   OH264551   4.067   4.972  11.911  0.0094 -0.0752 -0.1190
14379TIP3    H164552   4.152   4.983  11.952 -0.5479  0.7014  0.8677
14379TIP3    H264553   4.020   4.911  11.967 -1.2753  2.0896  1.3110
14380TIP3   OH264554   1.478   2.687   3.518 -0.1776  0.4249  0.5617
14380TIP3    H164555   1.477   2.644   3.433  0.1676  1.6108 -0.0599
14380TIP3    H264556   1.520   2.623   3.576  0.3648 -0.0617 -0.3432
14381TIP3   OH264557   3.834   1.017  14.557  0.1318  0.0114 -0.0547
14381TIP3    H164558   3.900   1.025  14.626 -0.8441  0.2105  0.8832
14381TIP3    H264559   3.764   0.964  14.596 -0.1189 -0.4824 -1.1416
14382TIP3   OH264560   2.521   4.971   2.284 -0.4960  0.0858 -0.2147
14382TIP3    H164561   2.455   5.040   2.270 -0.9692 -0.3865 -0.3544
14382TIP3    H264562   2.538   4.937   2.196 -0.8240 -0.4783 -0.0671
14383TIP3   OH264563   4.101   5.812  10.864 -0.6011  0.2181 -0.2808
14383TIP3    H164564   4.051   5.735  10.839 -0.3483 -0.2329  0.5602
14383TIP3    H264565   4.066   5.882  10.810 -0.9005 -0.4620 -0.9868
14384TIP3   OH264566   4.835   5.208  16.781  0.0464  0.0034 -0.2207
14384TIP3    H164567   4.901   5.222  16.849  0.7708 -0.3144 -0.8347
14384TIP3    H264568   4.753   5.235  16.820  0.6178  0.8664  0.4114
14385TIP3   OH264569   3.733   4.025   1.155 -0.0643 -0.2750  0.2717
14385TIP3    H164570   3.715   4.046   1.064 -0.9408 -0.8162  0.3110
14385TIP3    H264571   3.656   4.055   1.203  0.5476  0.3372  0.8862
14386TIP3   OH264572   6.020   6.027  15.848  0.3288  0.1986 -0.5110
14386TIP3    H164573   6.100   6.050  15.800  0.4611  0.8712  0.0019
14386TIP3    H264574   5.962   6.102  15.835 -0.6026 -0.6886 -1.6515
14387TIP3   OH264575   1.797   1.566   3.391  0.4200  0.0964 -0.8762
14387TIP3    H164576   1.752   1.633   3.442 -1.5946 -1.3321 -0.6574
14387TIP3    H264577   1.762   1.574   3.303 -0.0721 -0.8469 -0.7776
14388TIP3   OH264578   1.140   4.842   1.243 -0.7372  0.2645  0.0978
14388TIP3    H164579   1.077   4.910   1.265 -1.2865 -0.1774 -0.0957
14388TIP3    H264580   1.196   4.881   1.176  0.4007  1.3180  1.6077
14389TIP3   OH264581   2.541   2.530   4.283 -0.5667 -0.1514 -1.0211
14389TIP3    H164582   2.542   2.624   4.263 -0.7869  0.3817  1.2027
14389TIP3    H264583   2.570   2.488   4.203 -2.2453  1.6862 -2.7096
14390TIP3   OH264584   1.385   0.004  11.270  0.4168 -0.2385  0.0841
14390TIP3    H164585   1.413  -0.023  11.357  0.5862 -1.1534 -0.2385
14390TIP3    H264586   1.319  -0.061  11.245  0.6331 -0.1981 -0.6115
14391TIP3   OH264587   2.547   5.281  15.692  0.4973 -0.1621  0.0937
14391TIP3    H164588   2.570   5.299  15.783  0.5766 -0.2507  0.0914
14391TIP3    H264589   2.569   5.362  15.646  0.6866 -0.2013  0.1136
14392TIP3   OH264590   3.971   0.886  13.387 -0.4802 -0.0662  0.2810
14392TIP3    H164591   3.960   0.924  13.474  0.7511 -0.8704  0.8193
14392TIP3    H264592   4.014   0.802  13.403 -0.0527 -0.1371 -1.1168
14393TIP3   OH264593   2.100   2.290  16.327  0.4892  0.4162  0.0159
14393TIP3    H164594   2.058   2.315  16.245  1.6671 -1.7836 -1.3757
14393TIP3    H264595   2.189   2.325  16.320  0.6810 -0.0185  0.1903
14394TIP3   OH264596   0.386   6.249  13.169  0.0157 -0.2529  0.1611
14394TIP3    H164597   0.348   6.207  13.247 -1.1904 -0.6045 -0.5839
14394TIP3    H264598   0.319   6.312  13.142  0.3923 -0.1927 -0.6376
14395TIP3   OH264599   0.236   6.254  11.606 -0.3303 -0.6755  0.0712
14395TIP3    H164600   0.286   6.315  11.553 -1.3328  0.5209  0.4444
14395TIP3    H264601   0.153   6.299  11.624  0.1044 -0.8093  2.9884
14396TIP3   OH264602   4.100   4.189   3.938 -0.0456 -0.4132 -0.0399
14396TIP3    H164603   4.144   4.223   4.016 -0.0643  1.3631 -0.7457
14396TIP3    H264604   4.010   4.220   3.945 -0.2177 -0.8038 -0.4495
14397TIP3   OH264605   4.042   5.374   4.957 -0.0263 -0.0474  0.0407
14397TIP3    H164606   3.989   5.426   4.897 -1.1096 -0.5225  0.5588
14397TIP3    H264607   4.131   5.381   4.922 -0.4674  0.5107 -1.0323
14398TIP3   OH264608   6.331   6.357  11.863  0.1098 -0.1202  0.0734
14398TIP3    H164609   6.351   6.265  11.844  0.7603 -0.0738  0.4779
14398TIP3    H264610   6.361   6.370  11.953 -0.8651  0.2402  0.3583
14399TIP3   OH264611   1.221   2.466  11.517 -0.2601  0.0870 -0.0943
14399TIP3    H164612   1.249   2.388  11.469 -0.2822 -0.1389  0.2574
14399TIP3    H264613   1.216   2.535  11.450 -2.7099 -0.7864 -0.9472
14400TIP3   OH264614   5.959   1.453  16.844 -0.4564  0.6849 -0.3107
14400TIP3    H164615   5.961   1.491  16.756 -1.3340  0.2203 -0.5422
14400TIP3    H264616   5.920   1.367  16.832  0.6663  0.0621  0.3522
14401TIP3   OH264617   3.140   3.715  13.322  0.1531  0.5669  0.9777
14401TIP3    H164618   3.183   3.752  13.245  1.0782  1.3360  1.8249
14401TIP3    H264619   3.114   3.627  13.296  2.0272  0.1648  0.3269
14402TIP3   OH264620   2.824   5.323   3.760  0.3096 -0.1313  0.2421
14402TIP3    H164621   2.833   5.357   3.849 -0.9139  2.1857 -0.4167
14402TIP3    H264622   2.914   5.315   3.728  0.7139  0.3561  1.2156
14403TIP3   OH264623   4.964   2.632  11.400 -0.4210 -0.1952 -0.5776
14403TIP3    H164624   4.879   2.671  11.385 -1.1592 -0.7869  1.7191
14403TIP3    H264625   4.961   2.548  11.353 -1.5524 -0.7140  0.3797
14404TIP3   OH264626   3.046   1.428   3.530  0.1389  0.3840 -0.2357
14404TIP3    H164627   3.136   1.398   3.520  0.1530 -0.3424  1.6242
14404TIP3    H264628   3.054   1.516   3.567  0.1823 -0.6466  2.4581
14405TIP3   OH264629   1.919   5.653   3.978 -0.1080  0.2208  0.3143
14405TIP3    H164630   1.852   5.702   3.930  0.6947  2.2149  1.1306
14405TIP3    H264631   2.000   5.701   3.960  0.5830 -0.3462  1.8014
14406TIP3   OH264632   6.701   2.183  13.684  0.1790  0.3568  0.2832
14406TIP3    H164633   6.764   2.114  13.662 -0.3088 -0.0412  0.1219
14406TIP3    H264634   6.726   2.257  13.629 -0.9150 -0.5643 -1.5242
14407TIP3   OH264635   4.814   3.760   3.346 -0.1129  0.1749  0.1992
14407TIP3    H164636   4.897   3.792   3.380  0.3584 -2.5946  1.8978
14407TIP3    H264637   4.756   3.837   3.349  1.8181  1.6767  0.8146
14408TIP3   OH264638   6.747   2.466   1.790  0.0141  0.3865  0.0070
14408TIP3    H164639   6.796   2.385   1.775 -0.4464 -0.4701  2.5845
14408TIP3    H264640   6.746   2.509   1.705  0.2168 -2.3430 -1.5219
14409TIP3   OH264641   0.736   2.380  12.871 -0.2139 -0.1637 -0.6336
14409TIP3    H164642   0.786   2.349  12.795 -1.7454 -1.4865 -1.1514
14409TIP3    H264643   0.802   2.388  12.941  1.1333  0.6001 -1.9359
14410TIP3   OH264644   0.655   6.159   3.769 -0.0857 -0.3507  0.1537
14410TIP3    H164645   0.635   6.124   3.856 -0.7755 -0.8458 -0.1920
14410TIP3    H264646   0.743   6.194   3.778  0.0311 -0.7943  0.9387
14411TIP3   OH264647   4.986   1.734  14.514  0.3889  0.5125  0.3271
14411TIP3    H164648   4.913   1.681  14.547 -0.5240  1.2976 -0.3521
14411TIP3    H264649   4.993   1.807  14.575  0.5214  0.5019  0.3242
14412TIP3   OH264650   2.735   2.799   0.179  0.5145 -0.0343 -0.5260
14412TIP3    H164651   2.645   2.768   0.171 -0.0074  1.2174  0.2004
14412TIP3    H264652   2.789   2.723   0.157 -0.6820 -1.6436  1.6661
14413TIP3   OH264653   2.186   5.798   4.980  0.2296  0.5074  0.0361
14413TIP3    H164654   2.187   5.710   4.943 -0.1466  0.7160 -0.4914
14413TIP3    H264655   2.103   5.803   5.027  1.0488 -0.0136  1.5737
14414TIP3   OH264656   4.782   6.219   4.233 -0.0771  0.1421 -0.6797
14414TIP3    H164657   4.795   6.180   4.319  0.5209  0.7907 -0.4735
14414TIP3    H264658   4.799   6.147   4.172 -0.0290 -0.1917 -0.2783
14415TIP3   OH264659   5.796   6.577   2.787 -0.1296 -0.6703  0.3967
14415TIP3    H164660   5.775   6.616   2.702 -1.8580 -2.5584 -0.1138
14415TIP3    H264661   5.891   6.563   2.784 -0.3838 -2.4045 -2.0390
14416TIP3   OH264662   2.039   1.178  12.761 -0.2975  0.5992  0.0282
14416TIP3    H164663   2.025   1.220  12.676 -1.3487  1.6971  0.7148
14416TIP3    H264664   2.125   1.136  12.754 -0.1636  1.0745 -1.4019
14417TIP3   OH264665   4.723   4.714   5.421  0.3187 -0.6352 -0.4961
14417TIP3    H164666   4.782   4.774   5.466 -1.6960  1.5569 -0.5746
14417TIP3    H264667   4.691   4.656   5.490 -0.5381  0.8300  0.3860
14418TIP3   OH264668   0.557   0.502   4.820 -0.5225  0.0075  0.3456
14418TIP3    H164669   0.534   0.514   4.912  2.0599  0.5189  1.0127
14418TIP3    H264670   0.626   0.566   4.804  1.6410 -2.4043 -0.8786
14419TIP3   OH264671   4.473   2.423   3.815 -0.0366  0.1016 -0.5833
14419TIP3    H164672   4.548   2.410   3.757  0.3846 -3.3522  0.4947
14419TIP3    H264673   4.396   2.406   3.759  0.3068 -1.7689 -0.5666
14420TIP3   OH264674   1.171   4.418   3.572  0.1451 -0.4278  0.3859
14420TIP3    H164675   1.206   4.506   3.583  0.1208 -0.5080  1.1072
14420TIP3    H264676   1.228   4.378   3.505 -1.1630  0.8432 -1.6070
14421TIP3   OH264677   1.460   4.964   1.442  0.1462  0.0006 -0.5831
14421TIP3    H164678   1.445   5.033   1.377  4.0139 -1.4703 -3.4648
14421TIP3    H264679   1.552   4.939   1.429 -1.0781 -6.2132 -0.3874
14422TIP3   OH264680   1.860   5.065  13.002 -0.3933  0.2204 -0.1657
14422TIP3    H164681   1.785   5.013  13.030 -0.5455 -0.1656 -1.2190
14422TIP3    H264682   1.931   5.002  12.993 -0.3877  0.2997 -0.7488
14423TIP3   OH264683   0.661   6.582   2.510  0.0933 -0.1217  0.2851
14423TIP3    H164684   0.614   6.544   2.436 -0.6342 -0.4037  0.8844
14423TIP3    H264685   0.673   6.509   2.570 -0.8137  0.4612  1.1963
14424TIP3   OH264686   4.540   1.558   1.688 -0.2668  0.3956 -0.1023
14424TIP3    H164687   4.484   1.566   1.766  0.2996 -1.8861  0.6101
14424TIP3    H264688   4.481   1.570   1.614 -1.2678  0.3069  0.6692
14425TIP3   OH264689   5.650   5.342  12.027 -0.7638 -0.4878 -0.4301
14425TIP3    H164690   5.727   5.323  12.081 -0.7620 -0.5331 -0.4490
14425TIP3    H264691   5.596   5.400  12.082 -0.5363 -0.1446 -0.5621
14426TIP3   OH264692   6.577   5.133   5.023  0.4973  0.3776 -0.0563
14426TIP3    H164693   6.647   5.068   5.030 -0.3106 -0.5535 -0.2895
14426TIP3    H264694   6.505   5.085   4.982  0.0465  1.5744 -0.7020
14427TIP3   OH264695   5.923   1.100   5.629  0.5978 -0.4084 -0.0813
14427TIP3    H164696   5.893   1.177   5.678 -1.6755 -1.1354 -0.1929
14427TIP3    H264697   5.988   1.134   5.568  0.2465  1.2859  0.4388
14428TIP3   OH264698   6.218   2.726  16.818  0.3663  0.0840 -0.4735
14428TIP3    H164699   6.203   2.639  16.780 -0.8071 -0.1563  0.4786
14428TIP3    H264700   6.258   2.708  16.903  2.4541  0.5965 -1.2844
14429TIP3   OH264701   3.419   0.834   5.885  0.5683  0.3256 -0.2844
14429TIP3    H164702   3.349   0.833   5.951 -1.4201  0.6047 -2.2715
14429TIP3    H264703   3.472   0.910   5.909 -0.0945  0.4281  0.9839
14430TIP3   OH264704   5.865   2.073  16.560  0.4041  0.2060  0.2477
14430TIP3    H164705   5.923   2.001  16.537 -0.8285 -0.3155 -1.4597
14430TIP3    H264706   5.923   2.146  16.582  1.6716 -0.8038  0.3111
14431TIP3   OH264707   0.247   5.285  11.286 -0.1622  0.0647 -0.7466
14431TIP3    H164708   0.224   5.206  11.334 -1.8317  0.5431 -0.6643
14431TIP3    H264709   0.342   5.281  11.275 -0.1594 -1.6966 -0.3411
14432TIP3   OH264710   0.575   4.132   6.297 -0.0991 -0.3150 -0.1037
14432TIP3    H164711   0.643   4.195   6.320 -0.6456  0.0739  0.4953
14432TIP3    H264712   0.594   4.056   6.353  0.2796 -0.5044 -0.4828
14433TIP3   OH264713   3.767   6.051  11.415 -0.0330  0.1695  0.4998
14433TIP3    H164714   3.757   5.979  11.353  1.1597  1.2808 -1.0760
14433TIP3    H264715   3.734   6.017  11.498 -2.4043 -1.1300 -0.8819
14434TIP3   OH264716   1.467   5.743  16.253 -0.1138 -0.0203  0.1466
14434TIP3    H164717   1.441   5.651  16.248  0.0769 -0.0174 -1.1174
14434TIP3    H264718   1.436   5.772  16.339 -0.9007 -1.0388  0.2216
14435TIP3   OH264719   5.304   5.827   0.187 -0.0078 -0.0548  0.4772
14435TIP3    H164720   5.308   5.812   0.093 -1.6337 -1.2307  0.5552
14435TIP3    H264721   5.243   5.900   0.196  2.8970  2.6058  0.4943
14436TIP3   OH264722   4.888   6.415  16.822  0.4945 -0.3564  0.3666
14436TIP3    H164723   4.845   6.470  16.888 -2.1438 -2.1731  0.3126
14436TIP3    H264724   4.925   6.342  16.872  1.4390 -0.0349  0.1513
14437TIP3   OH264725   3.145   2.797   5.270 -0.1834  0.2482 -0.2394
14437TIP3    H164726   3.215   2.757   5.218  1.3331 -0.0167  1.8707
14437TIP3    H264727   3.169   2.890   5.274 -1.7229  0.7712 -2.1143
14438TIP3   OH264728   4.955   0.394  16.402  0.9895 -0.7306 -0.3171
14438TIP3    H164729   5.041   0.373  16.438  1.5108  0.9003 -0.5194
14438TIP3    H264730   4.950   0.345  16.321  2.7663  0.9388 -1.5274
14439TIP3   OH264731   0.451   4.262  14.199 -0.1493  0.4186  0.6925
14439TIP3    H164732   0.357   4.280  14.207 -0.1079  0.5369  0.9178
14439TIP3    H264733   0.459   4.214  14.116 -0.4889 -0.1644  0.9917
14440TIP3   OH264734   5.716   3.053  12.105 -0.7148 -0.9622  0.0633
14440TIP3    H164735   5.785   3.029  12.167 -1.7273 -1.4006  1.0632
14440TIP3    H264736   5.714   2.981  12.042 -0.0291 -0.7704 -0.1868
14441TIP3   OH264737   3.355   0.070   4.470  0.2316  0.6099  0.5779
14441TIP3    H164738   3.405   0.036   4.544  0.2976  0.9860  0.7092
14441TIP3    H264739   3.420   0.114   4.416  0.1351  0.5929  0.4483
14442TIP3   OH264740   6.402   2.467  12.908  0.8851  0.2348 -0.2426
14442TIP3    H164741   6.437   2.497  12.991 -0.7182 -0.3418  0.6929
14442TIP3    H264742   6.414   2.372  12.909  0.5285  0.1827 -0.4998
14443TIP3   OH264743   2.579   5.097  15.188  0.3279  0.2385  0.0393
14443TIP3    H164744   2.655   5.040  15.176 -1.0837 -1.6008 -0.5480
14443TIP3    H264745   2.547   5.076  15.276 -1.0047 -0.9555 -0.6923
14444TIP3   OH264746   3.657   2.696   0.036 -0.1820 -0.2247  0.2251
14444TIP3    H164747   3.643   2.607   0.066  2.5677 -0.4256  1.2629
14444TIP3    H264748   3.692   2.742   0.112 -0.8320  1.5698 -0.4846
14445TIP3   OH264749   5.017   5.244  15.502 -0.0004  0.1920 -0.8111
14445TIP3    H164750   5.047   5.294  15.425 -0.3184  2.7206  0.5752
14445TIP3    H264751   4.971   5.169  15.465 -1.4276  2.0607 -3.1689
14446TIP3   OH264752   2.183   0.661   1.480  0.3439  0.2957 -0.3259
14446TIP3    H164753   2.273   0.695   1.488 -0.4568  2.4787  0.0431
14446TIP3    H264754   2.151   0.659   1.570  0.4486 -1.8694 -0.2873
14447TIP3   OH264755   2.563   0.213  10.365  0.6571  0.1800  0.0540
14447TIP3    H164756   2.586   0.154  10.437  0.5663  0.1945  0.0948
14447TIP3    H264757   2.469   0.200  10.351  0.9649 -0.9615 -1.0994
14448TIP3   OH264758   3.806   5.639  15.891  0.0308 -0.2253  0.1950
14448TIP3    H164759   3.890   5.595  15.905 -0.5099 -1.4630 -0.2825
14448TIP3    H264760   3.818   5.688  15.810  1.1931  1.9792  1.6105
14449TIP3   OH264761   4.546   2.807   6.300 -0.7213  0.1675  0.1438
14449TIP3    H164762   4.568   2.742   6.366 -0.4638 -0.4119 -0.5004
14449TIP3    H264763   4.613   2.798   6.232  0.0430  1.9408  0.5941
14450TIP3   OH264764   6.419   2.876   6.201 -0.0370 -0.5008 -0.2942
14450TIP3    H164765   6.362   2.891   6.277 -0.3013 -1.3475 -0.3173
14450TIP3    H264766   6.499   2.925   6.221 -0.6277  0.4093 -0.0977
14451TIP3   OH264767   1.730   1.967   4.378 -0.2058  0.0392  0.2553
14451TIP3    H164768   1.668   1.899   4.351  1.1447 -1.2104  0.1657
14451TIP3    H264769   1.793   1.972   4.305 -0.0927  1.1580  0.4139
14452TIP3   OH264770   0.245   6.484  16.235  0.3399 -0.0612 -0.0519
14452TIP3    H164771   0.166   6.433  16.251  1.2123 -1.0668  1.1831
14452TIP3    H264772   0.316   6.432  16.272  1.3681  1.6675  0.5186
14453TIP3   OH264773   5.847   2.583  11.212  0.4173 -0.2342  0.1038
14453TIP3    H164774   5.794   2.582  11.292  0.1358 -0.8631 -0.0825
14453TIP3    H264775   5.782   2.589  11.141  0.6822  0.7935 -0.0720
14454TIP3   OH264776   5.905   3.490   4.271 -0.1931  0.2651 -0.0005
14454TIP3    H164777   5.848   3.567   4.275 -2.7060 -1.4883 -0.0060
14454TIP3    H264778   5.866   3.428   4.332  1.1910 -1.3823 -0.7115
14455TIP3   OH264779   5.451   0.633   1.522  0.1421 -0.7840  0.1090
14455TIP3    H164780   5.399   0.703   1.482  0.5180 -1.5287 -1.7893
14455TIP3    H264781   5.454   0.656   1.615  1.3942  2.4903 -0.5798
14456TIP3   OH264782   2.462   5.703  11.719  0.1171 -0.9825 -0.0273
14456TIP3    H164783   2.387   5.643  11.722  0.3234 -1.2734 -0.5102
14456TIP3    H264784   2.427   5.787  11.746 -0.4852 -1.0127 -0.6847
14457TIP3   OH264785   1.962   4.049   2.016 -0.7055 -0.1054  0.4636
14457TIP3    H164786   2.023   4.061   2.088 -0.0029  0.1646 -0.1622
14457TIP3    H264787   1.916   3.968   2.037  0.4347 -0.7490  0.5624
14458TIP3   OH264788   5.894   2.119   4.739  0.0433 -0.0441  0.4875
14458TIP3    H164789   5.862   2.105   4.828  1.2412  0.2832  0.9877
14458TIP3    H264790   5.988   2.136   4.749 -0.2230  2.5852 -0.5772
14459TIP3   OH264791   5.946   2.565   2.917 -0.0530  0.5786 -0.6831
14459TIP3    H164792   6.039   2.547   2.928 -0.0325  0.2954 -1.2537
14459TIP3    H264793   5.909   2.481   2.889 -0.3497  0.8701 -1.1743
14460TIP3   OH264794   0.086   0.392  12.556 -0.5737 -0.4137 -0.2037
14460TIP3    H164795   0.146   0.400  12.629  2.2067 -1.8510 -2.1407
14460TIP3    H264796   0.119   0.453  12.490 -2.5503  0.3070 -0.6148
14461TIP3   OH264797   4.547   4.284   1.893 -0.1802 -0.1040  0.2446
14461TIP3    H164798   4.527   4.351   1.958 -0.4681  1.7276 -1.6150
14461TIP3    H264799   4.490   4.211   1.915 -1.1772  0.9474  1.2867
14462TIP3   OH264800   2.375   5.149  14.822  0.3473 -0.6087 -0.4759
14462TIP3    H164801   2.457   5.158  14.871 -0.2433 -2.4383  0.9889
14462TIP3    H264802   2.312   5.121  14.888 -1.2390 -0.1964 -1.7643
14463TIP3   OH264803   1.948   2.769   0.420  0.5770  0.0302 -0.3739
14463TIP3    H164804   1.899   2.687   0.412  0.2132  0.2116 -0.0377
14463TIP3    H264805   1.883   2.832   0.452  1.0393  0.2710  0.0952
14464TIP3   OH264806   5.191   6.705  11.546 -0.1885 -0.1714  1.0464
14464TIP3    H164807   5.140   6.632  11.510  0.3318  0.9673 -2.3137
14464TIP3    H264808   5.273   6.665  11.575  0.6760 -0.8918 -2.0292
14465TIP3   OH264809   5.276   0.435   6.397  0.3589  0.0046 -0.8483
14465TIP3    H164810   5.311   0.474   6.477 -1.9910 -1.9296  1.2996
14465TIP3    H264811   5.337   0.364   6.377 -1.0140 -2.0837  1.7109
14466TIP3   OH264812   1.295   3.334   3.984  0.0395 -0.7573 -0.3957
14466TIP3    H164813   1.251   3.419   3.977 -0.0088 -0.5490  1.8202
14466TIP3    H264814   1.388   3.354   3.973  0.1261 -0.2293  1.1006
14467TIP3   OH264815   0.863   2.264   4.620  0.2410  0.5262 -0.0288
14467TIP3    H164816   0.911   2.181   4.620  0.3597  0.5007  2.7626
14467TIP3    H264817   0.775   2.241   4.651  0.2410  1.4058  0.6515
14468TIP3   OH264818   0.324   2.393   0.904  0.5865 -0.2467 -0.4008
14468TIP3    H164819   0.264   2.319   0.894 -1.3212  1.2334 -0.3939
14468TIP3    H264820   0.315   2.443   0.824 -1.6639  2.3706  1.3101
14469TIP3   OH264821   0.221   5.727  16.175 -0.1510 -0.0188  0.0115
14469TIP3    H164822   0.246   5.640  16.143 -1.8108 -0.7326  0.5064
14469TIP3    H264823   0.302   5.778  16.174  0.3444 -0.6664 -3.0431
14470TIP3   OH264824   1.514   5.258   3.095  0.1968 -0.7815 -0.1699
14470TIP3    H164825   1.421   5.280   3.088  0.0138 -1.3053  0.4999
14470TIP3    H264826   1.558   5.322   3.039 -0.5510 -0.4261 -0.3658
14471TIP3   OH264827   1.767   5.320   4.482  0.4874  0.0519  0.5849
14471TIP3    H164828   1.837   5.368   4.437  0.0767 -0.2395 -0.3899
14471TIP3    H264829   1.809   5.241   4.516  0.4317 -0.6470 -0.9097
14472TIP3   OH264830   3.948   5.973  16.506 -0.4475  0.1975 -0.1487
14472TIP3    H164831   3.997   6.046  16.468 -0.4344  1.6352  2.4209
14472TIP3    H264832   3.993   5.954  16.588 -0.9866 -2.1650 -0.3521
14473TIP3   OH264833   1.502   2.711   2.649 -0.3855 -0.7430 -0.9145
14473TIP3    H164834   1.588   2.669   2.649  0.7544  1.3842 -2.3333
14473TIP3    H264835   1.504   2.769   2.573 -2.7422  0.0805 -0.4370
14474TIP3   OH264836   3.636   2.130  12.287 -0.2018 -0.0067 -0.0550
14474TIP3    H164837   3.729   2.132  12.311 -0.5178  2.2634  1.3081
14474TIP3    H264838   3.627   2.195  12.218 -0.3937 -2.1259 -2.1343
14475TIP3   OH264839   2.801   2.150  12.495  0.3787 -0.3546 -0.0956
14475TIP3    H164840   2.791   2.239  12.530 -1.4768 -0.3323 -0.5529
14475TIP3    H264841   2.733   2.100  12.539  0.6933 -1.2896 -0.6531
14476TIP3   OH264842   5.313   0.678  12.836  0.2168 -0.0997  0.5276
14476TIP3    H164843   5.393   0.667  12.784 -0.0633  0.2552  0.0186
14476TIP3    H264844   5.342   0.665  12.927  0.8665  0.1136  0.3566
14477TIP3   OH264845   3.729   6.796  13.888  0.0528 -0.1245 -0.2279
14477TIP3    H164846   3.774   6.787  13.804 -0.8172 -1.2393 -0.5918
14477TIP3    H264847   3.793   6.838  13.945  1.4345 -1.3583 -0.8208
14478TIP3   OH264848   2.601   0.926   3.012 -0.3518  0.1499 -0.1097
14478TIP3    H164849   2.568   0.975   2.937 -0.2062 -0.6829 -0.7425
14478TIP3    H264850   2.558   0.966   3.088  2.2884  3.4873 -0.1624
14479TIP3   OH264851   1.012   2.584   2.410  0.4005  0.4223  0.0994
14479TIP3    H164852   1.099   2.596   2.448 -0.5706 -0.3602  2.8574
14479TIP3    H264853   0.956   2.643   2.460 -1.3029 -2.0996  1.3845
14480TIP3   OH264854   3.728   4.494  15.643 -0.3164 -0.2224 -0.4342
14480TIP3    H164855   3.665   4.469  15.711  0.2668  1.7340  0.9361
14480TIP3    H264856   3.797   4.428  15.649 -0.0253  0.1802  1.3106
14481TIP3   OH264857   1.371   4.786   1.892 -0.3082  0.0525 -0.1798
14481TIP3    H164858   1.456   4.800   1.850 -0.6203 -1.0208 -1.2358
14481TIP3    H264859   1.377   4.696   1.926 -0.7452  0.2490  0.4128
14482TIP3   OH264860   4.966   6.477  13.773  0.1306  0.2913 -0.3070
14482TIP3    H164861   5.028   6.536  13.816  0.8296 -0.3183 -0.4733
14482TIP3    H264862   4.986   6.390  13.808  1.8812 -0.5385 -3.0554
14483TIP3   OH264863   1.699   4.081  13.946 -0.6672  0.0279 -0.4083
14483TIP3    H164864   1.702   4.031  13.865 -0.7731  0.5999 -0.7721
14483TIP3    H264865   1.610   4.067  13.979 -1.5822  2.0138 -1.8476
14484TIP3   OH264866   3.977   3.427  16.935 -0.3091  0.0936 -0.0684
14484TIP3    H164867   3.990   3.516  16.900 -2.1557  1.0300  1.4443
14484TIP3    H264868   3.924   3.383  16.869 -1.2978  0.8797  0.1803
14485TIP3   OH264869   5.095   0.730   4.628 -0.2106  0.1274  0.1318
14485TIP3    H164870   5.187   0.755   4.620 -0.3249  0.6669  0.4181
14485TIP3    H264871   5.084   0.704   4.719 -0.8674  2.4015  0.7784
14486TIP3   OH264872   4.907   0.495  16.653 -0.1937  0.2319  0.0245
14486TIP3    H164873   4.894   0.421  16.712 -0.4187  0.5749  0.4142
14486TIP3    H264874   4.931   0.455  16.569 -1.4780 -0.3277 -0.0894
14487TIP3   OH264875   5.357   5.314   2.391 -0.7968  0.2690  0.2711
14487TIP3    H164876   5.345   5.222   2.369 -0.7020  0.0166  1.2470
14487TIP3    H264877   5.447   5.319   2.424 -0.1858  1.0446 -1.4125
14488TIP3   OH264878   3.769   0.471  12.842  1.0191 -0.1987  0.0366
14488TIP3    H164879   3.715   0.396  12.868  0.5301  0.6279  1.5855
14488TIP3    H264880   3.830   0.482  12.915  1.5988  0.4364 -0.5389
14489TIP3   OH264881   2.220   4.066   1.120 -0.5816 -0.6622  0.0957
14489TIP3    H164882   2.145   4.051   1.062 -0.9664 -1.2353  0.7318
14489TIP3    H264883   2.182   4.082   1.206 -0.1695  2.8357 -0.2187
14490TIP3   OH264884   0.799   4.144  14.849  0.6273  0.3867  0.1733
14490TIP3    H164885   0.744   4.081  14.803 -0.7999  1.0801  0.8727
14490TIP3    H264886   0.886   4.104  14.850  0.4492 -0.1982 -2.0274
14491TIP3   OH264887   3.880   0.466   5.133  0.5063  0.3467  0.2816
14491TIP3    H164888   3.947   0.412   5.176  2.3980  2.5655  0.2998
14491TIP3    H264889   3.929   0.537   5.092 -1.8663  2.3245  0.6429
14492TIP3   OH264890   5.158   4.359   4.903  0.4463  0.0898  0.5269
14492TIP3    H164891   5.086   4.299   4.886  1.2930 -1.1018  1.0349
14492TIP3    H264892   5.162   4.365   4.999  0.2544  1.1186  0.4813
14493TIP3   OH264893   0.425   4.609  11.346 -0.7651 -0.4529  0.0777
14493TIP3    H164894   0.509   4.581  11.381 -0.5539 -0.3460 -0.3338
14493TIP3    H264895   0.436   4.701  11.325  0.0022 -1.0887 -2.7411
14494TIP3   OH264896   4.590   0.089  12.356 -0.2895  0.6865 -0.4908
14494TIP3    H164897   4.541   0.075  12.275  1.4183 -0.8394 -1.3311
14494TIP3    H264898   4.656   0.154  12.335  1.3286 -1.0215 -0.9169
14495TIP3   OH264899   0.295   2.626   1.337 -0.6996 -0.2169 -0.0393
14495TIP3    H164900   0.318   2.541   1.300  0.3731 -0.5145  1.2491
14495TIP3    H264901   0.348   2.689   1.288  0.3099 -0.5523  0.5903
14496TIP3   OH264902   4.322   1.138  11.999  0.3119 -0.0477  0.0313
14496TIP3    H164903   4.364   1.198  12.060  1.1000 -0.8287  0.2761
14496TIP3    H264904   4.290   1.066  12.054 -1.4894  0.5686 -0.1287
14497TIP3   OH264905   2.290   0.238   3.576 -0.3174 -0.0271  0.0123
14497TIP3    H164906   2.238   0.159   3.561  0.2626 -0.2253 -1.0856
14497TIP3    H264907   2.357   0.211   3.638 -0.4852 -0.2448  0.0985
14498TIP3   OH264908   2.699   2.540  13.303 -0.0790  0.2688 -0.2537
14498TIP3    H164909   2.706   2.456  13.257  0.2521  0.1364  0.0333
14498TIP3    H264910   2.695   2.605  13.232  1.2169  0.1286 -0.4925
14499TIP3   OH264911   1.981   3.732  16.509 -0.3759 -0.2998  0.3694
14499TIP3    H164912   2.059   3.689  16.545 -0.0468 -1.2462 -1.3945
14499TIP3    H264913   2.013   3.779  16.433 -1.3308  0.3606  0.3586
14500TIP3   OH264914   1.015   3.908   1.368 -0.1048 -0.3939 -0.0238
14500TIP3    H164915   1.107   3.936   1.372  0.1189 -1.1750  0.5358
14500TIP3    H264916   1.011   3.849   1.293 -0.9429  2.3145 -2.2757
14501TIP3   OH264917   0.661   0.670   2.858  0.0781 -0.8287  0.2255
14501TIP3    H164918   0.718   0.747   2.852  1.3867 -1.4545  2.9593
14501TIP3    H264919   0.617   0.680   2.943 -4.2869 -0.2409 -1.8278
14502TIP3   OH264920   4.801   4.193  14.090  0.5773  0.0031 -0.5395
14502TIP3    H164921   4.859   4.260  14.125  0.8952 -0.3711 -0.3427
14502TIP3    H264922   4.855   4.146  14.026 -0.2242  1.1919 -2.1723
14503TIP3   OH264923   0.749   2.514   6.180 -0.0276 -0.4714  0.3903
14503TIP3    H164924   0.832   2.487   6.141 -0.0194 -0.6357  0.5186
14503TIP3    H264925   0.768   2.597   6.223  0.2440 -0.8442  1.0137
14504TIP3   OH264926   2.665   1.073   6.170 -0.2627 -0.2269 -0.1408
14504TIP3    H164927   2.623   1.113   6.246 -2.5527  1.6603 -2.2146
14504TIP3    H264928   2.717   1.144   6.132  1.3422 -1.3162 -0.0397
14505TIP3   OH264929   4.488   5.063  11.761  0.0954  0.0589  0.1297
14505TIP3    H164930   4.574   5.085  11.797  0.5963 -0.7398 -0.5427
14505TIP3    H264931   4.464   4.980  11.804  0.2920 -0.4315 -0.6776
14506TIP3   OH264932   0.759   5.657   4.381 -0.2739  0.2381 -0.0179
14506TIP3    H164933   0.772   5.727   4.445  1.7398 -1.1882  1.2534
14506TIP3    H264934   0.664   5.643   4.379 -0.5534  1.8092  0.9786
14507TIP3   OH264935   5.878   0.692  15.101 -0.0549  0.2312  0.6539
14507TIP3    H164936   5.799   0.694  15.155 -0.2012  1.9367  0.4440
14507TIP3    H264937   5.939   0.751  15.145  0.5550  0.0943  0.0160
14508TIP3   OH264938   4.050   4.091   0.956 -0.0063  0.2053 -0.4262
14508TIP3    H164939   4.044   4.164   0.895 -2.8575  2.9015  2.5993
14508TIP3    H264940   4.134   4.104   1.001  1.1639 -0.6208 -2.2681
14509TIP3   OH264941   3.712   5.805   2.083 -0.0278 -0.1548 -0.0535
14509TIP3    H164942   3.661   5.881   2.056 -0.3261  0.0679  1.0630
14509TIP3    H264943   3.716   5.812   2.178 -1.9617 -2.6694  0.3437
14510TIP3   OH264944   2.012   3.160   1.274  0.2071 -0.8225 -0.0901
14510TIP3    H164945   2.000   3.159   1.179  1.4381 -0.8327 -0.2740
14510TIP3    H264946   2.097   3.203   1.286 -0.8521  1.0529  1.1416
14511TIP3   OH264947   6.291   5.036  13.402  0.6883  0.5158 -0.4296
14511TIP3    H164948   6.382   5.061  13.390  0.6460 -0.3650 -3.3558
14511TIP3    H264949   6.284   5.013  13.494  2.9197  2.3943  0.3059
14512TIP3   OH264950   3.118   6.109   3.660 -0.1763 -0.1868  0.0764
14512TIP3    H164951   3.083   6.188   3.619 -0.5259  1.1028  2.6539
14512TIP3    H264952   3.194   6.086   3.607 -0.2741  1.6627 -0.9581
14513TIP3   OH264953   5.727   4.105  13.623 -0.1083 -0.0903 -0.4094
14513TIP3    H164954   5.724   4.173  13.690 -1.2786  0.7790 -1.3039
14513TIP3    H264955   5.674   4.140  13.551 -0.0277 -1.5865 -1.2293
14514TIP3   OH264956   4.039   3.300  10.930 -0.7112 -0.4069 -0.3423
14514TIP3    H164957   3.951   3.261  10.932 -0.8777 -0.0147  0.0680
14514TIP3    H264958   4.032   3.371  10.867 -0.5898 -0.6116 -0.5855
14515TIP3   OH264959   6.615   2.998   0.811 -0.0462 -0.1460  0.4399
14515TIP3    H164960   6.579   3.086   0.818 -1.6258 -0.4190 -2.6964
14515TIP3    H264961   6.693   3.009   0.756 -0.1848 -0.6752  0.1337
14516TIP3   OH264962   6.362   3.672  14.572 -0.4304  0.1530  0.4326
14516TIP3    H164963   6.350   3.758  14.612  2.5246  0.4910  0.7958
14516TIP3    H264964   6.378   3.613  14.646  2.6230  0.3201  0.0094
14517TIP3   OH264965   0.787   0.952   2.037 -0.4952  0.2589 -0.3121
14517TIP3    H164966   0.803   1.033   2.084 -0.8543 -0.8826  1.8864
14517TIP3    H264967   0.695   0.956   2.012 -0.2594  0.9422 -1.1441
14518TIP3   OH264968   2.903   6.648   5.995  0.1002  0.3184  0.7193
14518TIP3    H164969   2.897   6.685   5.907 -0.4928  1.5718  1.2572
14518TIP3    H264970   2.887   6.722   6.053 -0.0568 -0.5908  1.8767
14519TIP3   OH264971   4.253   0.793   2.112  0.0362  0.5477 -0.0661
14519TIP3    H164972   4.254   0.710   2.065  2.3626  0.4429  0.0722
14519TIP3    H264973   4.192   0.848   2.062  0.6380 -0.3174 -1.8280
14520TIP3   OH264974   2.197   6.381  10.962  0.3226  0.0444  0.2719
14520TIP3    H164975   2.208   6.308  11.023 -0.5198 -1.2502 -1.0605
14520TIP3    H264976   2.131   6.351  10.900  1.2584  1.2456 -1.3883
14521TIP3   OH264977   6.086   5.432  13.476  0.0398 -0.4525  0.3590
14521TIP3    H164978   6.078   5.412  13.382  1.3099  1.2281 -0.1531
14521TIP3    H264979   6.035   5.512  13.487 -1.8232 -1.7096  1.5890
14522TIP3   OH264980   1.883   3.588  10.375 -0.6497 -0.1792 -0.0691
14522TIP3    H164981   1.953   3.630  10.325 -2.3590  1.6800 -1.0481
14522TIP3    H264982   1.924   3.510  10.413  2.5892  1.9899  1.3611
14523TIP3   OH264983   4.094   6.625   3.731  0.2774  0.3790  0.2920
14523TIP3    H164984   4.182   6.598   3.758  0.8325  1.2242 -0.6074
14523TIP3    H264985   4.100   6.634   3.635 -1.1847 -0.9556  0.0252
14524TIP3   OH264986   0.774   1.735   5.278  0.4207  0.1100 -0.0643
14524TIP3    H164987   0.697   1.779   5.242 -0.1206 -1.2139 -0.5611
14524TIP3    H264988   0.800   1.790   5.352 -0.8648  0.6993 -0.0223
14525TIP3   OH264989   0.114   3.068  11.884 -0.1676  0.6787  0.3136
14525TIP3    H164990   0.167   3.127  11.831 -0.7966  0.2395 -0.8426
14525TIP3    H264991   0.113   2.986  11.835 -0.1858  0.0329  1.3653
14526TIP3   OH264992   1.800   5.519   6.176  0.2290 -0.6736 -0.4461
14526TIP3    H164993   1.795   5.487   6.086  0.7585  1.6621 -1.3575
14526TIP3    H264994   1.860   5.458   6.219  1.1490 -0.9799 -2.0819
14527TIP3   OH264995   6.679   2.628  11.528 -0.2462  0.5527  0.4759
14527TIP3    H164996   6.692   2.722  11.523 -1.8975  0.7605 -0.7451
14527TIP3    H264997   6.765   2.593  11.552  1.5941  2.0616 -3.0851
14528TIP3   OH264998   0.230   3.304   3.595  0.5424 -0.2599  0.2066
14528TIP3    H164999   0.316   3.325   3.557  1.0785 -0.5631  1.2069
14528TIP3    H265000   0.249   3.238   3.662 -0.4041  0.0291  0.7777
14529TIP3   OH265001   4.293   0.908  14.672 -0.0815 -0.0253  0.2834
14529TIP3    H165002   4.338   0.832  14.710 -0.1750 -0.1407  0.1681
14529TIP3    H265003   4.310   0.900  14.578 -0.4169 -0.1200  0.2297
14530TIP3   OH265004   2.257   1.033  16.461 -0.2477  0.4517 -0.3206
14530TIP3    H165005   2.249   1.032  16.557 -0.7435  0.3598 -0.3608
14530TIP3    H265006   2.269   1.125  16.439 -0.7131  0.5391 -0.2163
14531TIP3   OH265007   4.303   4.688  11.235  0.1107  0.2670 -0.2535
14531TIP3    H165008   4.224   4.641  11.208 -0.1628  0.3995  0.3087
14531TIP3    H265009   4.276   4.739  11.311  0.3214  1.5936 -1.0340
14532TIP3   OH265010   2.739   5.788  13.382  0.3473  0.0403 -0.4262
14532TIP3    H165011   2.699   5.703  13.400  1.2609 -0.5647 -1.1044
14532TIP3    H265012   2.833   5.773  13.395  0.6073  0.6934 -1.4087
14533TIP3   OH265013   6.797   3.147  12.451 -0.0383  0.2318 -0.0559
14533TIP3    H165014   6.738   3.072  12.454 -0.7798  0.6201 -2.7423
14533TIP3    H265015   6.744   3.218  12.417  1.7822  0.7391 -2.0394
14534TIP3   OH265016   1.490   2.727  11.452 -0.1559 -0.3571 -0.2238
14534TIP3    H165017   1.509   2.790  11.522 -1.2131 -2.1089  1.7716
14534TIP3    H265018   1.401   2.748  11.423 -0.0032 -0.1078 -0.5180
14535TIP3   OH265019   4.782   4.844   6.590  0.3029 -0.4369  0.1512
14535TIP3    H165020   4.689   4.833   6.569  0.6455 -3.0406 -0.3429
14535TIP3    H265021   4.783   4.910   6.659 -1.9153 -0.3286  0.1637
14536TIP3   OH265022   1.324   6.426   3.152 -0.5732 -0.1240  0.0973
14536TIP3    H165023   1.234   6.425   3.119  0.0496 -1.4811 -1.6941
14536TIP3    H265024   1.377   6.451   3.077  0.5309  1.7036  1.3870
14537TIP3   OH265025   4.332   1.202  12.720 -0.4592  0.2696  0.0529
14537TIP3    H165026   4.282   1.261  12.777  2.3315  4.5884 -1.4866
14537TIP3    H265027   4.304   1.224  12.631  0.9186 -0.4963 -0.6132
14538TIP3   OH265028   0.182   0.915   2.114  0.6074  0.1640  0.1144
14538TIP3    H165029   0.108   0.972   2.093 -0.4383 -0.8036  1.0617
14538TIP3    H265030   0.234   0.966   2.177  1.0344  1.0381 -0.9117
14539TIP3   OH265031   1.997   0.644   4.897  0.9939 -0.1424 -0.2899
14539TIP3    H165032   2.068   0.708   4.892 -0.6848  1.9022  0.5299
14539TIP3    H265033   1.926   0.683   4.846 -0.5627 -0.6170  1.3850
14540TIP3   OH265034   6.043   4.172  15.539  0.0268 -0.0498  0.0058
14540TIP3    H165035   6.018   4.111  15.469 -0.4990 -1.2519  1.2059
14540TIP3    H265036   6.138   4.178  15.532 -0.0307  0.0101 -0.9340
14541TIP3   OH265037   3.169   6.021  16.531 -0.3187 -0.3202 -0.5992
14541TIP3    H165038   3.194   5.945  16.479 -0.2177 -1.0045  0.4220
14541TIP3    H265039   3.078   6.005  16.554 -0.2559 -0.1999 -0.2626
14542TIP3   OH265040   2.931   0.775  16.349 -0.0050 -0.0225  0.9500
14542TIP3    H165041   3.017   0.809  16.373 -0.2301  1.8000 -0.6064
14542TIP3    H265042   2.873   0.851  16.355 -0.8051 -0.3842 -1.3353
14543TIP3   OH265043   5.378   0.192  12.122 -0.2071  0.4123  0.7143
14543TIP3    H165044   5.391   0.137  12.046 -1.3209  0.0782  0.7447
14543TIP3    H265045   5.461   0.188  12.170  0.7869  1.2456 -0.8464
14544TIP3   OH265046   3.481   1.741  14.177  0.1697  0.4065 -0.4972
14544TIP3    H165047   3.481   1.683  14.100  0.3298 -0.3074  0.0313
14544TIP3    H265048   3.393   1.780  14.177 -0.0801 -0.1338 -0.6467
14545TIP3   OH265049   6.593   4.198  10.939  0.5350 -0.3240 -0.3772
14545TIP3    H165050   6.632   4.131  10.882 -1.5327 -2.2198  0.2798
14545TIP3    H265051   6.506   4.213  10.901  0.0021  0.0621  0.9569
14546TIP3   OH265052   3.598   0.193  15.953  0.3472  0.1329  0.1219
14546TIP3    H165053   3.677   0.141  15.938 -0.8054 -1.2045 -1.8903
14546TIP3    H265054   3.547   0.141  16.014  1.0735  1.1201  1.6247
14547TIP3   OH265055   1.119   0.122  15.825  0.3539  0.1279  0.2818
14547TIP3    H165056   1.187   0.136  15.759  0.5337  0.0888  0.4580
14547TIP3    H265057   1.087   0.033  15.808  0.1565  0.2476  0.0264
14548TIP3   OH265058   1.581   5.351   3.924  0.6390 -0.2818  0.0788
14548TIP3    H165059   1.606   5.399   4.002  0.0029  1.6532 -0.8420
14548TIP3    H265060   1.589   5.414   3.853  0.1957 -1.6749 -1.2789
14549TIP3   OH265061   0.448   1.094   0.174  0.4289 -0.1135  0.2985
14549TIP3    H165062   0.359   1.125   0.154  0.2141 -0.7367  0.2530
14549TIP3    H265063   0.439   0.998   0.178  1.2835 -0.2557 -0.6741
14550TIP3   OH265064   4.008   1.680  12.995 -0.0747  0.1331  1.2693
14550TIP3    H165065   3.980   1.596  12.958  1.3983 -0.6426  1.8435
14550TIP3    H265066   3.934   1.708  13.048 -0.7533 -0.6011  0.7359
14551TIP3   OH265067   0.125   0.056   1.430 -0.0809 -0.5180  0.0504
14551TIP3    H165068   0.134  -0.036   1.404 -1.2992 -1.0161  1.2637
14551TIP3    H265069   0.042   0.059   1.478 -0.6628  1.4706 -0.9875
14552TIP3   OH265070   6.324   4.756   3.549  0.6827  0.1853  0.1241
14552TIP3    H165071   6.361   4.673   3.579 -0.9131 -0.7809 -0.3990
14552TIP3    H265072   6.345   4.760   3.456  0.9584  0.4816  0.1994
14553TIP3   OH265073   0.350   4.190   2.234 -0.2654  0.1687  0.2952
14553TIP3    H165074   0.372   4.226   2.148  0.9738 -0.9448  0.1065
14553TIP3    H265075   0.381   4.255   2.297  1.0852 -0.1071 -0.0551
14554TIP3   OH265076   6.097   5.570   2.796  0.0568 -0.4751  0.4596
14554TIP3    H165077   6.129   5.577   2.885  0.2798  1.2024  0.2652
14554TIP3    H265078   6.160   5.619   2.743 -0.0530 -1.4663 -0.6364
14555TIP3   OH265079   1.316   4.315  13.281 -0.1802 -0.1307 -0.1690
14555TIP3    H165080   1.404   4.294  13.251 -0.2782  2.1559 -2.3315
14555TIP3    H265081   1.259   4.252  13.235  0.2206 -1.5144  1.1236
14556TIP3   OH265082   3.913   6.020  12.651 -0.4504 -0.7277 -0.4618
14556TIP3    H165083   3.921   6.094  12.711 -0.7810  0.3987 -1.7420
14556TIP3    H265084   3.818   6.005  12.644 -0.4611 -0.3827 -1.2098
14557TIP3   OH265085   1.298   4.840   0.195  0.4529  0.1220 -0.0422
14557TIP3    H165086   1.327   4.930   0.210  1.4233 -0.3722  1.2964
14557TIP3    H265087   1.301   4.829   0.100 -0.8281  1.8438 -0.3366
14558TIP3   OH265088   2.021   0.722   1.251  0.3439 -0.3325 -0.7481
14558TIP3    H165089   2.098   0.691   1.299 -0.2449 -0.2313  0.2838
14558TIP3    H265090   2.031   0.817   1.251 -0.1065 -0.2808 -0.0426
14559TIP3   OH265091   4.901   4.443   3.011 -0.3202  0.4821  0.8208
14559TIP3    H165092   4.982   4.490   2.994 -0.5843  1.2448  1.5923
14559TIP3    H265093   4.892   4.383   2.937  0.9175  0.4169  0.6984
14560TIP3   OH265094   4.754   0.196   6.077 -0.2758 -1.2554  0.0195
14560TIP3    H165095   4.667   0.200   6.117 -0.4112  2.1465 -0.3481
14560TIP3    H265096   4.738   0.168   5.987 -0.7827 -2.1366  0.3763
14561TIP3   OH265097   3.113   4.091  15.574  0.5452 -0.1040  0.6473
14561TIP3    H165098   3.058   4.168  15.591 -0.0723 -0.3152 -0.3327
14561TIP3    H265099   3.085   4.060  15.488  1.4038 -0.9109  0.6455
14562TIP3   OH265100   2.509   5.799   1.052 -0.1365  0.8747  0.2640
14562TIP3    H165101   2.601   5.800   1.025 -0.3660  1.4683 -0.5536
14562TIP3    H265102   2.512   5.796   1.147  0.7036 -1.7475  0.2358
14563TIP3   OH265103   5.764   4.547  14.483 -0.2756 -0.1351 -0.0579
14563TIP3    H165104   5.706   4.472  14.495 -1.4784  0.7436 -0.2507
14563TIP3    H265105   5.777   4.582  14.571 -1.2325  0.5257 -0.1651
14564TIP3   OH265106   4.390   3.575   1.175 -0.6483  0.4805  0.2299
14564TIP3    H165107   4.467   3.536   1.135 -0.7347 -1.0627  1.4964
14564TIP3    H265108   4.423   3.621   1.252 -0.6989  1.9944 -0.6215
14565TIP3   OH265109   2.675   4.375  15.674  0.2442 -0.2887 -0.2369
14565TIP3    H165110   2.694   4.391  15.766 -1.8769 -0.9588  0.3530
14565TIP3    H265111   2.716   4.449  15.628  1.9504 -0.3337  1.1329
14566TIP3   OH265112   5.425   1.320   0.367 -0.1494  0.1059 -0.7441
14566TIP3    H165113   5.481   1.359   0.300  1.8154 -1.7977 -0.3505
14566TIP3    H265114   5.399   1.235   0.330 -1.2615  0.1621 -0.1427
14567TIP3   OH265115   2.436   1.515  13.290 -0.1775  0.0659  0.1813
14567TIP3    H165116   2.374   1.486  13.357 -0.5546  0.4104 -0.0169
14567TIP3    H265117   2.479   1.434  13.261 -0.5009 -0.1711  0.3540
14568TIP3   OH265118   0.541   6.415   5.058 -0.1319  0.3057  0.1182
14568TIP3    H165119   0.495   6.366   4.989  0.4386 -1.0081  0.6452
14568TIP3    H265120   0.474   6.431   5.125 -0.2664  0.0645  0.0405
14569TIP3   OH265121   4.507   2.862  11.484  0.4283 -0.1630 -0.2163
14569TIP3    H165122   4.461   2.938  11.448  1.0113  1.2293  1.7649
14569TIP3    H265123   4.446   2.789  11.473 -0.8629  0.9464 -0.6600
14570TIP3   OH265124   0.361   5.996  13.756 -0.7729 -0.6440 -0.3651
14570TIP3    H165125   0.347   5.901  13.762 -1.3969 -0.6179 -1.1845
14570TIP3    H265126   0.276   6.031  13.728 -0.7828  0.2566  0.7358
14571TIP3   OH265127   0.372   1.368   2.456  0.1196 -0.7370 -0.6580
14571TIP3    H165128   0.318   1.401   2.384 -0.9873 -1.3292 -0.1282
14571TIP3    H265129   0.310   1.355   2.528  0.9279 -1.7180 -0.1159
14572TIP3   OH265130   0.964   3.492  12.692  0.0044  0.0240  0.0477
14572TIP3    H165131   1.058   3.477  12.686  0.1912  1.2368 -0.2530
14572TIP3    H265132   0.925   3.411  12.660  0.9023 -1.4110  2.3144
14573TIP3   OH265133   5.829   2.531  14.358  0.2761 -0.3740  0.2571
14573TIP3    H165134   5.764   2.494  14.298  0.7227  0.5013 -0.8078
14573TIP3    H265135   5.862   2.456  14.407  0.8701 -1.3619 -1.5525
14574TIP3   OH265136   4.143   1.521  13.851  0.4175  0.4279 -0.5391
14574TIP3    H165137   4.234   1.496  13.866  0.6260  0.7574 -1.2340
14574TIP3    H265138   4.135   1.527  13.756 -0.0202  1.5608 -0.4429
14575TIP3   OH265139   1.467   5.399  14.174 -0.5909 -0.3430  0.0156
14575TIP3    H165140   1.500   5.462  14.238 -1.3371  0.4281 -0.3328
14575TIP3    H265141   1.535   5.394  14.108 -1.7312  2.4861 -1.5557
14576TIP3   OH265142   4.499   5.306  12.008 -0.7982  0.0735  0.1259
14576TIP3    H165143   4.485   5.393  12.047  0.2109 -0.1548  1.0438
14576TIP3    H265144   4.411   5.269  12.001 -1.3063  1.3879 -0.8242
14577TIP3   OH265145   3.421   5.696  13.474  0.1253  0.0559 -0.7232
14577TIP3    H165146   3.465   5.754  13.537 -1.6394  1.9790 -1.1391
14577TIP3    H265147   3.435   5.608  13.509 -0.2471  0.9894  2.0753
14578TIP3   OH265148   5.506   4.212   6.398  0.4352  0.3231  0.0798
14578TIP3    H165149   5.411   4.201   6.397  0.3610  0.6957  1.1458
14578TIP3    H265150   5.528   4.218   6.491  1.3261  1.5719 -0.1835
14579TIP3   OH265151   2.861   3.850  13.743  0.1556  0.1602 -0.2968
14579TIP3    H165152   2.902   3.872  13.659  0.4444  1.2798  0.1287
14579TIP3    H265153   2.922   3.788  13.784  1.6393  2.0252  0.4638
14580TIP3   OH265154   1.266   1.968   5.124  0.5480  0.7120  0.8093
14580TIP3    H165155   1.257   2.058   5.154 -1.4299  0.8575 -0.0824
14580TIP3    H265156   1.343   1.970   5.067 -1.2466  2.6405 -1.7712
14581TIP3   OH265157   3.248   2.103   5.451  0.4148 -0.1037 -0.0211
14581TIP3    H165158   3.264   2.194   5.472 -0.6227  0.3484 -1.0681
14581TIP3    H265159   3.175   2.077   5.507  1.5258 -0.6978  1.2008
14582TIP3   OH265160   5.896   4.426  11.783 -0.0219 -0.1223  0.6084
14582TIP3    H165161   5.832   4.376  11.834 -1.9233  0.3978 -1.0986
14582TIP3    H265162   5.903   4.510  11.828  0.1685 -0.5115  1.3156
14583TIP3   OH265163   2.796   3.492   1.358 -0.4910 -0.6781 -0.5464
14583TIP3    H165164   2.858   3.468   1.289  1.8129  1.4678  0.6083
14583TIP3    H265165   2.774   3.583   1.339  0.3792  0.0350  1.6035
14584TIP3   OH265166   5.405   2.403  12.597 -0.2988 -0.3157 -0.2593
14584TIP3    H165167   5.315   2.376  12.579 -0.3406  0.5117 -1.3632
14584TIP3    H265168   5.458   2.326  12.574 -0.4655  0.2274 -2.7934
14585TIP3   OH265169   4.913   6.538   0.772  0.1852  0.4072 -0.0578
14585TIP3    H165170   4.887   6.564   0.860  0.4924 -0.6053  0.3379
14585TIP3    H265171   4.988   6.594   0.752  2.3097 -1.6471  1.6879
14586TIP3   OH265172   5.164   6.698   5.725 -0.3733  0.0157  0.6435
14586TIP3    H165173   5.129   6.610   5.740 -1.8969  0.5580  0.4337
14586TIP3    H265174   5.113   6.754   5.784 -0.1400  0.8923  0.0272
14587TIP3   OH265175   0.897   0.328  15.783 -0.5068 -0.4153  0.3325
14587TIP3    H165176   0.920   0.403  15.729  0.3525 -0.6513  0.3474
14587TIP3    H265177   0.979   0.279  15.793 -1.2901 -2.0888 -0.8275
14588TIP3   OH265178   0.512   0.307   1.265 -0.2123 -0.2941  0.3874
14588TIP3    H165179   0.519   0.382   1.206  1.5483 -0.2045  0.6583
14588TIP3    H265180   0.470   0.342   1.344 -0.0773  0.2328  0.2291
14589TIP3   OH265181   2.361   5.024   1.013  0.3747  0.1449 -0.1020
14589TIP3    H165182   2.406   5.099   0.974 -0.0595 -0.2348 -1.3629
14589TIP3    H265183   2.281   5.014   0.962 -0.1092 -0.5037  0.7591
14590TIP3   OH265184   1.418   1.411   6.324 -0.0124 -0.4966  1.2684
14590TIP3    H165185   1.400   1.503   6.346  0.1350 -0.0650 -0.2875
14590TIP3    H265186   1.502   1.393   6.366 -0.4118 -0.1644  2.2298
14591TIP3   OH265187   4.771   2.875  13.037  0.2662 -0.3949  0.5184
14591TIP3    H165188   4.837   2.913  13.095 -1.2099  1.4305  1.0928
14591TIP3    H265189   4.815   2.800  12.997  2.2688  0.0162  1.7989
14592TIP3   OH265190   5.235   2.380  16.518 -0.5116  0.2130 -0.4771
14592TIP3    H165191   5.276   2.466  16.503  0.1532 -0.1673 -0.9276
14592TIP3    H265192   5.285   2.321  16.461  0.3696 -0.8371  1.3166
14593TIP3   OH265193   2.619   1.770  15.756 -0.6178 -0.4366  0.4687
14593TIP3    H165194   2.669   1.690  15.773  3.0661  1.3344 -0.9656
14593TIP3    H265195   2.568   1.749  15.677  0.1820 -1.4454  0.1901
14594TIP3   OH265196   2.708   1.051   5.116  0.1066 -0.2968 -0.4514
14594TIP3    H165197   2.660   0.975   5.148  0.8595 -0.8588 -0.6350
14594TIP3    H265198   2.649   1.125   5.132 -0.2054 -0.7716  0.6892
14595TIP3   OH265199   2.291   2.375  17.094 -0.0509 -0.1643 -0.4458
14595TIP3    H165200   2.211   2.412  17.057  0.0874  0.9542  0.3125
14595TIP3    H265201   2.334   2.332  17.020 -1.9266 -1.9018 -0.6160
14596TIP3   OH265202   0.339   1.897   1.835  0.8145  0.0163  0.5957
14596TIP3    H165203   0.405   1.963   1.816 -0.1282  0.7342 -0.2946
14596TIP3    H265204   0.389   1.816   1.846  1.9148  0.7177  0.9061
14597TIP3   OH265205   4.108   4.698   2.242 -0.4084  0.3454  0.6882
14597TIP3    H165206   4.201   4.717   2.244 -0.5248  1.4554 -1.4995
14597TIP3    H265207   4.095   4.643   2.165 -1.4383 -0.7913  1.6135
14598TIP3   OH265208   3.990   4.318   0.816 -0.1829  0.3143  0.1974
14598TIP3    H165209   3.975   4.396   0.870  0.8169  0.9747 -0.4277
14598TIP3    H265210   3.919   4.318   0.753 -0.1602  0.7680  0.1645
14599TIP3   OH265211   1.081   3.635   5.611  0.3336  1.0731  0.3331
14599TIP3    H165212   1.091   3.601   5.700  2.4599  0.4073 -0.1219
14599TIP3    H265213   1.041   3.563   5.562 -0.5817  1.3434  0.6602
14600TIP3   OH265214   5.464   3.262   0.310 -0.6403 -0.1324 -0.3278
14600TIP3    H165215   5.478   3.344   0.263 -0.8103 -0.1346 -0.3835
14600TIP3    H265216   5.418   3.288   0.390  0.7533  0.0269  0.4484
14601TIP3   OH265217   3.970   6.424   1.359 -0.0716 -0.0205  0.1673
14601TIP3    H165218   3.911   6.422   1.435 -0.2534 -2.4061  0.0139
14601TIP3    H265219   3.914   6.452   1.286 -0.9675 -1.8650  0.1017
14602TIP3   OH265220   1.718   0.221  14.951  0.0138  0.1251  0.3056
14602TIP3    H165221   1.646   0.203  15.011 -0.1611  0.7723  0.2933
14602TIP3    H265222   1.797   0.209  15.003 -0.1564  2.5566  1.2180
14603TIP3   OH265223   0.611   3.841   3.651 -0.0322  0.2829  0.3996
14603TIP3    H165224   0.667   3.763   3.643 -0.8429 -0.1690 -1.1892
14603TIP3    H265225   0.665   3.912   3.616 -0.1101  0.0112 -0.2897
14604TIP3   OH265226   6.519   0.517   3.239  0.2686 -0.4178  0.8690
14604TIP3    H165227   6.568   0.436   3.224 -0.0625 -0.6664  1.1071
14604TIP3    H265228   6.427   0.491   3.231  0.1177  0.6330 -2.7294
14605TIP3   OH265229   1.787   2.829   1.040  0.0760  0.3509 -0.1545
14605TIP3    H165230   1.794   2.787   1.126  0.5797  1.6196  0.4612
14605TIP3    H265231   1.770   2.758   0.979 -0.6632 -0.5477  1.0482
14606TIP3   OH265232   1.177   1.085   4.924 -0.4903 -0.0000 -0.4248
14606TIP3    H165233   1.175   1.165   4.871 -1.0802  0.2531 -0.0367
14606TIP3    H265234   1.098   1.037   4.897 -0.0965 -0.4946 -0.7173
14607TIP3   OH265235   3.363   6.318  14.553  0.1649  0.6402  0.4277
14607TIP3    H165236   3.346   6.308  14.459 -0.4114  0.2700  0.5688
14607TIP3    H265237   3.441   6.265  14.569 -0.8414 -0.8772  0.5115
14608TIP3   OH265238   2.274   4.022   0.090 -0.2242 -0.7348 -0.2895
14608TIP3    H165239   2.256   3.965   0.015 -0.7567  0.5502 -1.1882
14608TIP3    H265240   2.280   4.110   0.052  2.5227 -0.3608  0.7465
14609TIP3   OH265241   1.855   0.820  12.482 -0.0167  0.1249  0.0414
14609TIP3    H165242   1.917   0.748  12.467 -0.2387  0.3486 -2.3178
14609TIP3    H265243   1.776   0.793  12.436 -0.4148  1.4919 -0.1042
14610TIP3   OH265244   6.277   5.121  11.015  0.1392  0.3234 -0.3094
14610TIP3    H165245   6.266   5.215  11.029 -1.5759 -0.1308  2.1081
14610TIP3    H265246   6.291   5.112  10.921  1.4024  3.0433 -0.4902
14611TIP3   OH265247   5.798   1.302  12.330 -0.3079 -0.3247  0.3055
14611TIP3    H165248   5.714   1.266  12.299 -1.2881  0.7828  1.5541
14611TIP3    H265249   5.855   1.226  12.339 -0.9624 -1.0276 -1.2005
14612TIP3   OH265250   1.414   4.522   2.005  0.2972 -0.1412 -0.2333
14612TIP3    H165251   1.495   4.489   1.968  1.0636  1.2181  0.1765
14612TIP3    H265252   1.441   4.587   2.070 -1.0659 -0.8558  1.1333
14613TIP3   OH265253   4.456   1.174   3.472  0.3519  0.0237  0.5804
14613TIP3    H165254   4.485   1.256   3.513  1.6045 -0.7140  1.2669
14613TIP3    H265255   4.475   1.185   3.379  1.3576  0.2030  0.7907
14614TIP3   OH265256   0.863   6.738  13.766 -0.6053  0.4512  0.1208
14614TIP3    H165257   0.816   6.811  13.806 -0.6169  0.2968  0.3929
14614TIP3    H265258   0.911   6.777  13.694  1.1482  1.1659  1.5905
14615TIP3   OH265259   4.897   5.698   0.937  0.4737 -0.1106  0.3253
14615TIP3    H165260   4.946   5.730   0.861  1.2896 -0.9913  0.4616
14615TIP3    H265261   4.828   5.763   0.950  0.6176  0.3055 -0.8686
14616TIP3   OH265262   5.163   1.573   0.680 -0.2178  0.3094  0.2848
14616TIP3    H165263   5.220   1.590   0.604  0.9444  0.7802  1.2254
14616TIP3    H265264   5.125   1.487   0.662  1.3635 -0.3584 -0.0635
14617TIP3   OH265265   5.831   3.020  13.221  0.0631  0.1512  0.0904
14617TIP3    H165266   5.920   3.049  13.200 -0.2837  1.8883  0.8083
14617TIP3    H265267   5.781   3.037  13.141  0.2120 -0.1391 -0.0686
14618TIP3   OH265268   2.481   0.301  13.946  0.9315  1.1204  0.2815
14618TIP3    H165269   2.521   0.289  14.032  0.0301 -0.7277  0.4942
14618TIP3    H265270   2.452   0.214  13.921 -1.0745  2.0281 -0.7852
14619TIP3   OH265271   4.672   4.812   1.124  0.3689 -0.2650  0.3484
14619TIP3    H165272   4.748   4.792   1.069  0.2010 -1.3251  0.4734
14619TIP3    H265273   4.705   4.878   1.186  1.0595 -0.3770  0.1155
14620TIP3   OH265274   3.753   2.793  12.007  0.4741  0.3787  0.0255
14620TIP3    H165275   3.787   2.865  11.954  2.8363 -0.1631  0.6755
14620TIP3    H265276   3.820   2.779  12.074 -0.3402 -1.8344  0.4671
14621TIP3   OH265277   2.903   3.456   3.601  0.0730  0.1002 -0.1575
14621TIP3    H165278   2.941   3.528   3.551  0.4700  0.2367  0.3398
14621TIP3    H265279   2.886   3.493   3.688 -0.5975 -0.1409 -0.1781
14622TIP3   OH265280   4.332   2.535   5.797 -0.0722 -0.2287 -0.2034
14622TIP3    H165281   4.343   2.514   5.705  0.9341 -0.2950 -0.0841
14622TIP3    H265282   4.354   2.454   5.843  2.1411  0.5245  0.1837
14623TIP3   OH265283   1.099   1.186   0.659 -0.2547  0.2719 -0.6880
14623TIP3    H165284   1.118   1.188   0.752 -2.1936  0.5170 -0.2572
14623TIP3    H265285   1.112   1.276   0.629  1.4313 -0.0234 -0.9170
14624TIP3   OH265286   1.214   2.713  15.238 -0.3228 -0.2503 -0.3590
14624TIP3    H165287   1.269   2.750  15.307 -0.3395  1.4991 -1.2414
14624TIP3    H265288   1.178   2.633  15.277  1.5647 -0.6085  0.8006
14625TIP3   OH265289   4.057   5.016   0.176 -0.0012 -0.1767 -0.1456
14625TIP3    H165290   4.000   4.946   0.142  1.4369 -0.6529 -1.7093
14625TIP3    H265291   4.103   4.976   0.250 -2.4907  0.5861  1.9646
14626TIP3   OH265292   3.093   0.767  12.376  0.6111 -0.3331  0.4757
14626TIP3    H165293   3.014   0.716  12.360  0.5718 -0.0492 -0.2935
14626TIP3    H265294   3.065   0.837  12.434  0.3385 -0.3516  0.3701
14627TIP3   OH265295   5.204   1.066   0.997 -0.3111 -0.1540 -0.7795
14627TIP3    H165296   5.244   1.097   1.078 -0.2795  0.8070 -1.1440
14627TIP3    H265297   5.117   1.036   1.023 -0.4188  0.4494 -0.4322
14628TIP3   OH265298   5.223   5.518  13.722  0.0190 -0.0329 -0.3376
14628TIP3    H165299   5.172   5.439  13.705  0.4513 -0.4039  0.0526
14628TIP3    H265300   5.166   5.590  13.695  0.0712 -0.5116 -1.8130
14629TIP3   OH265301   1.322   1.283   5.091  0.2337 -0.0744 -0.3741
14629TIP3    H165302   1.245   1.257   5.041  0.1167 -0.8518  0.1903
14629TIP3    H265303   1.288   1.336   5.163  0.3755  0.8014 -0.9342
14630TIP3   OH265304   5.065   3.805  17.058  0.3355  0.6086  0.4040
14630TIP3    H165305   5.038   3.749  17.130 -1.2658  0.0016 -0.5968
14630TIP3    H265306   5.108   3.880  17.100 -2.3771  1.3295  2.1853
14631TIP3   OH265307   5.362   5.413  14.429 -0.5464  0.1978 -0.0250
14631TIP3    H165308   5.306   5.343  14.463 -2.1847  0.9169 -1.1357
14631TIP3    H265309   5.367   5.397  14.335  1.5582 -0.1087  0.0895
14632TIP3   OH265310   3.837   0.612   3.664  0.5430 -0.0238 -0.0191
14632TIP3    H165311   3.828   0.706   3.649  0.6699 -0.0820 -0.4838
14632TIP3    H265312   3.779   0.593   3.738  1.7912  0.7100  1.1997
14633TIP3   OH265313   4.446   5.279  12.684  0.1182  0.2429  0.6242
14633TIP3    H165314   4.359   5.297  12.720  0.0491  0.6463  0.2695
14633TIP3    H265315   4.431   5.265  12.590  0.3273 -0.5490  0.7013
14634TIP3   OH265316   3.437   2.094  11.060  0.2480  0.1659 -0.3367
14634TIP3    H165317   3.458   2.127  11.147  3.8324  1.3717 -1.4480
14634TIP3    H265318   3.395   2.167  11.015 -0.7858 -0.1596  0.0793
14635TIP3   OH265319   2.766   4.905  12.639 -0.0310  0.0668  0.8972
14635TIP3    H165320   2.676   4.934  12.654 -0.4052 -1.0056  0.8285
14635TIP3    H265321   2.777   4.910  12.544 -0.4291 -0.8910  0.7816
14636TIP3   OH265322   1.390   5.086  14.918 -0.1052 -0.7472  0.1757
14636TIP3    H165323   1.457   5.120  14.857  0.0896 -0.3916  0.5810
14636TIP3    H265324   1.308   5.124  14.887 -0.2029 -1.5740 -0.6180
14637TIP3   OH265325   4.664   4.935  16.393 -0.0412  0.2343  0.2571
14637TIP3    H165326   4.601   4.922  16.463 -0.7298  2.6264  0.1612
14637TIP3    H265327   4.633   5.013  16.347  1.6977  0.1011 -1.2588
14638TIP3   OH265328   6.371   3.053  11.110  0.5376 -0.5424  0.1347
14638TIP3    H165329   6.401   3.032  11.021 -2.0194 -0.7660 -0.7814
14638TIP3    H265330   6.342   3.144  11.104 -2.0436 -1.3061 -0.0585
14639TIP3   OH265331   6.720   4.038   1.990  0.3910  0.2480  0.2394
14639TIP3    H165332   6.658   4.008   1.924 -0.2720 -0.5502  1.1877
14639TIP3    H265333   6.802   4.050   1.943  0.0511 -0.7595 -0.6422
14640TIP3   OH265334   1.773   1.141  16.310 -0.0644  0.2967 -1.2424
14640TIP3    H165335   1.740   1.108  16.227 -2.7080 -0.4794  0.0370
14640TIP3    H265336   1.829   1.071  16.344  1.5113  0.8470 -2.5385
14641TIP3   OH265337   0.762   4.832   5.038 -0.1415 -0.1656  0.5220
14641TIP3    H165338   0.710   4.840   5.118 -1.1108 -0.3369 -0.0750
14641TIP3    H265339   0.743   4.744   5.006  1.6943 -0.8241  1.0602
14642TIP3   OH265340   1.704   6.601  14.736  0.4722  0.3420  0.1756
14642TIP3    H165341   1.615   6.570  14.753  0.4531  1.0693  1.5386
14642TIP3    H265342   1.694   6.671  14.671 -0.0043  0.6721  0.5971
14643TIP3   OH265343   6.269   6.151  12.074 -0.2026  0.0566  0.4952
14643TIP3    H165344   6.279   6.056  12.084 -1.1926 -0.1774 -0.4778
14643TIP3    H265345   6.177   6.167  12.094 -0.2799  0.6641 -0.3250
14644TIP3   OH265346   4.465   1.938  12.162  0.1382  0.0220  0.0800
14644TIP3    H165347   4.452   1.874  12.233  2.5217 -0.0856  0.4825
14644TIP3    H265348   4.547   1.981  12.183  1.1457 -0.2823 -2.8300
14645TIP3   OH265349   3.252   4.479   6.073 -0.2140 -1.0690  0.4488
14645TIP3    H165350   3.262   4.539   6.146  0.6325  0.7090 -1.0575
14645TIP3    H265351   3.305   4.516   6.003  0.8406 -3.8903 -0.4024
14646TIP3   OH265352   0.809   0.681   1.671  0.5412 -0.5694 -0.1495
14646TIP3    H165353   0.849   0.603   1.709  0.2413 -0.4049  0.5157
14646TIP3    H265354   0.763   0.723   1.744  0.3179 -0.0147 -0.5986
14647TIP3   OH265355   3.471   4.039   3.407 -0.2709  0.1954  0.2131
14647TIP3    H165356   3.523   4.119   3.415 -0.9068  0.5215  1.4111
14647TIP3    H265357   3.448   4.018   3.498 -2.6357  0.3588 -0.2943
14648TIP3   OH265358   3.334   4.927  16.614 -0.0189  0.0256  0.1901
14648TIP3    H165359   3.270   4.974  16.667  0.9317  0.7029  0.7674
14648TIP3    H265360   3.307   4.835  16.621 -1.4005  0.3728 -0.2618
14649TIP3   OH265361   1.636   0.816  14.872 -0.2023 -0.3110  0.3323
14649TIP3    H165362   1.700   0.770  14.927  0.5640  1.0677  0.6444
14649TIP3    H265363   1.640   0.770  14.787  1.6708  0.1040  0.1504
14650TIP3   OH265364   2.715   1.197   0.856  0.3728  0.2960  0.0625
14650TIP3    H165365   2.734   1.179   0.764 -0.9105 -0.8456 -0.0136
14650TIP3    H265366   2.627   1.234   0.855  0.8859  1.5913  0.7344
14651TIP3   OH265367   3.970   6.427   0.690 -0.0041  0.7799 -0.1100
14651TIP3    H165368   3.957   6.497   0.754  0.1881  0.6818  0.0366
14651TIP3    H265369   4.064   6.430   0.670 -0.2322  1.5102 -1.1811
14652TIP3   OH265370   2.373   2.230  16.275 -0.2696  0.4340 -0.9217
14652TIP3    H165371   2.453   2.208  16.228 -0.5568 -0.5982 -0.9489
14652TIP3    H265372   2.379   2.179  16.356  0.3353  2.3656  0.3094
14653TIP3   OH265373   6.502   6.427  15.936  0.5845  0.4551  0.2922
14653TIP3    H165374   6.431   6.464  15.988 -0.4460  1.9542 -1.9937
14653TIP3    H265375   6.464   6.347  15.898  2.0610 -1.9312  3.4072
14654TIP3   OH265376   4.294   1.404  13.263 -0.3342  0.1107  0.0089
14654TIP3    H165377   4.358   1.338  13.236  0.7882  1.0779  0.2184
14654TIP3    H265378   4.221   1.353  13.300  0.2812 -1.0165 -0.2731
14655TIP3   OH265379   1.757   2.719   5.346 -0.5222 -0.4041 -0.3861
14655TIP3    H165380   1.662   2.715   5.339 -0.5443 -0.1366 -0.2573
14655TIP3    H265381   1.783   2.631   5.371 -0.8414 -0.1789  0.7794
14656TIP3   OH265382   0.005   3.098   2.493 -0.4829  0.5306 -0.4827
14656TIP3    H165383  -0.057   3.129   2.558 -0.0095 -0.5220  0.4968
14656TIP3    H265384  -0.027   3.134   2.410 -1.6161  1.1134  0.1928
14657TIP3   OH265385   1.746   4.890   5.990 -0.2734  0.3833  0.5209
14657TIP3    H165386   1.690   4.967   5.998  1.6624  1.9354 -0.2366
14657TIP3    H265387   1.725   4.854   5.904 -1.6447 -0.3754  1.1370
14658TIP3   OH265388   1.011   2.686  13.662  0.1062 -0.0552  0.2438
14658TIP3    H165389   0.942   2.632  13.624 -0.1989 -0.4872  1.3549
14658TIP3    H265390   0.965   2.739  13.728  0.8457 -0.4192  1.0664
14659TIP3   OH265391   0.821   4.077   5.492  0.0483 -0.2552 -0.2114
14659TIP3    H165392   0.878   4.000   5.487 -0.6627 -0.7250 -1.3064
14659TIP3    H265393   0.776   4.080   5.408 -2.3171 -0.4905  0.9504
14660TIP3   OH265394   3.155   6.000  14.332  0.2294  0.0368 -0.1252
14660TIP3    H165395   3.209   6.076  14.311  0.7776  0.1680  1.5818
14660TIP3    H265396   3.069   6.036  14.351  0.1252  0.0756 -0.6668
14661TIP3   OH265397   3.728   6.131  15.667 -0.2717  0.4481 -0.2073
14661TIP3    H165398   3.747   6.101  15.578 -0.2132 -0.3206  0.0557
14661TIP3    H265399   3.733   6.052  15.720  1.1056  1.1104  0.7122
14662TIP3   OH265400   4.592   0.544   4.347 -0.1388 -0.8701 -0.0728
14662TIP3    H165401   4.500   0.525   4.332  0.3450 -2.9940 -0.7442
14662TIP3    H265402   4.634   0.526   4.263  0.6555  2.2461 -0.4556
14663TIP3   OH265403   3.371   5.210   1.302  0.3366 -0.3129  0.3693
14663TIP3    H165404   3.400   5.265   1.375  0.3926  1.5591 -0.9631
14663TIP3    H265405   3.292   5.167   1.333  0.4909  0.2685  1.6009
14664TIP3   OH265406   2.472   3.311  17.129 -0.6995  0.4256 -0.4899
14664TIP3    H165407   2.497   3.289  17.039 -0.2615  0.5198 -0.3976
14664TIP3    H265408   2.502   3.237  17.182 -1.0689  0.3134 -0.4345
14665TIP3   OH265409   6.537   5.719   3.978 -0.2724  0.0361  0.2565
14665TIP3    H165410   6.561   5.808   3.953  1.8420 -0.7593 -0.7630
14665TIP3    H265411   6.570   5.710   4.067  0.5386 -0.0670 -0.0444
14666TIP3   OH265412   2.399   6.165  14.609 -0.4342  0.6565  0.0157
14666TIP3    H165413   2.370   6.232  14.547  1.1150  0.1774 -1.2790
14666TIP3    H265414   2.481   6.200  14.645 -1.0787  0.7230  1.5047
14667TIP3   OH265415   0.228   2.749  13.649  0.4099  0.3151 -0.1628
14667TIP3    H165416   0.256   2.814  13.714 -0.1129  1.6268 -1.2121
14667TIP3    H265417   0.228   2.666  13.697  1.2633  1.0486  1.1679
14668TIP3   OH265418   1.155   2.848  12.125 -0.2214  0.4521 -0.0745
14668TIP3    H165419   1.113   2.778  12.074 -0.4136 -0.6274  1.4887
14668TIP3    H265420   1.101   2.925  12.110 -0.8470 -0.1007 -0.7061
14669TIP3   OH265421   1.624   6.572   3.271  0.3011  0.3391  0.5245
14669TIP3    H165422   1.684   6.591   3.199  0.6469  0.1617  0.7572
14669TIP3    H265423   1.583   6.489   3.246 -1.8772  1.7689 -0.9147
14670TIP3   OH265424   3.780   1.721  15.520 -0.1998  0.4075  0.4087
14670TIP3    H165425   3.844   1.744  15.587 -0.4262 -0.2626  0.8740
14670TIP3    H265426   3.695   1.747  15.557 -0.2083  1.2280 -0.1737
14671TIP3   OH265427   3.541   0.131  11.277 -0.6004 -0.3912 -0.6103
14671TIP3    H165428   3.498   0.088  11.203  0.9063  1.1953 -2.4956
14671TIP3    H265429   3.507   0.221  11.275  1.7413  0.5359 -1.3516
14672TIP3   OH265430   4.416   5.221  12.397  0.5475 -0.0267  0.3022
14672TIP3    H165431   4.322   5.214  12.378  0.8107 -1.8948 -0.6179
14672TIP3    H265432   4.458   5.191  12.316  1.9888  1.9939  0.2491
14673TIP3   OH265433   2.060   5.362   4.604 -0.1237  0.1030  0.0922
14673TIP3    H165434   2.026   5.451   4.609 -1.5393 -0.4541  0.8721
14673TIP3    H265435   2.086   5.351   4.512 -0.1898  1.2226 -0.0646
14674TIP3   OH265436   2.246   1.695   2.783 -0.5903 -0.4120 -0.6050
14674TIP3    H165437   2.154   1.700   2.807 -0.5570  0.7052 -0.7012
14674TIP3    H265438   2.258   1.762   2.716  0.5488  0.2670  0.2524
14675TIP3   OH265439   0.488   3.752   4.750  0.3485 -0.1571 -0.0440
14675TIP3    H165440   0.573   3.730   4.712 -0.8299  0.9934 -3.8311
14675TIP3    H265441   0.457   3.671   4.789  1.7203 -1.5554 -1.7132
14676TIP3   OH265442   2.281   4.367  14.029 -0.1675 -0.5839  0.0407
14676TIP3    H165443   2.354   4.327  14.076  0.1144  0.0813  0.1774
14676TIP3    H265444   2.224   4.294  14.006 -0.0466 -0.9838  0.9685
14677TIP3   OH265445   3.862   0.561   6.011 -0.0379  0.6417  0.1124
14677TIP3    H165446   3.809   0.625   5.965 -0.0799 -0.4805 -1.4992
14677TIP3    H265447   3.823   0.476   5.988  1.9306 -0.1640 -0.4614
14678TIP3   OH265448   0.777   5.934  13.850  0.2727 -0.6181  0.3132
14678TIP3    H165449   0.702   5.994  13.847  0.4238 -0.2671  2.1695
14678TIP3    H265450   0.837   5.967  13.784 -0.4560  0.1715  0.0267
14679TIP3   OH265451   3.611   5.676   1.268  0.0474 -0.3202 -0.1106
14679TIP3    H165452   3.619   5.675   1.363  1.4930  1.2850 -0.1604
14679TIP3    H265453   3.597   5.585   1.243 -0.1753 -0.7858  1.6099
14680TIP3   OH265454   4.067   2.562  13.105 -0.7274 -0.0664 -0.1448
14680TIP3    H165455   4.026   2.600  13.182 -1.9782 -0.5039 -0.5715
14680TIP3    H265456   4.124   2.494  13.139 -0.2323  0.6357  0.4690
14681TIP3   OH265457   3.134   4.161  16.596  0.3126 -0.4447  0.5441
14681TIP3    H165458   3.092   4.141  16.680 -2.2717  2.2503  0.0361
14681TIP3    H265459   3.084   4.110  16.532  1.0114 -0.9699  0.4024
14682TIP3   OH265460   3.118   4.643  16.883  0.1622  0.3752  0.4224
14682TIP3    H165461   3.169   4.564  16.865 -0.1182  0.5008 -1.1219
14682TIP3    H265462   3.141   4.703  16.812  0.5634  1.8020  1.7106
14683TIP3   OH265463   5.290   1.046  15.842  0.7028 -0.0646 -0.3444
14683TIP3    H165464   5.215   1.005  15.800  1.2601 -1.2769 -0.2083
14683TIP3    H265465   5.259   1.133  15.868 -0.7588 -0.6628  0.0166
14684TIP3   OH265466   6.383   2.458  16.544 -0.5479  0.3591 -0.4293
14684TIP3    H165467   6.408   2.531  16.487 -0.1637 -1.5199 -2.8262
14684TIP3    H265468   6.460   2.402  16.546 -1.2666 -0.6343  0.3122
14685TIP3   OH265469   0.691   5.987   0.740 -0.2573  0.0714  0.0820
14685TIP3    H165470   0.667   6.003   0.831 -0.2749 -0.6051  0.2023
14685TIP3    H265471   0.729   5.899   0.741 -0.5619 -0.0723 -0.6187
14686TIP3   OH265472   5.868   5.618  13.465 -0.2497 -0.7291 -0.4526
14686TIP3    H165473   5.788   5.645  13.511  1.6637  1.0039  2.1539
14686TIP3    H265474   5.881   5.686  13.398  0.4021  0.5803  0.9377
14687TIP3   OH265475   1.164   1.427   4.819  0.6505  0.7708 -0.1368
14687TIP3    H165476   1.092   1.489   4.829  1.4337  1.3751  2.6861
14687TIP3    H265477   1.217   1.462   4.746 -1.5259  0.5900 -1.9074
14688TIP3   OH265478   1.186   3.262  13.932  0.7121  0.4449 -0.8201
14688TIP3    H165479   1.137   3.263  14.014  1.0971  1.1919 -0.5919
14688TIP3    H265480   1.277   3.248  13.958  0.5175 -2.2626 -1.3315
14689TIP3   OH265481   3.307   3.777  16.676 -0.2485  0.2671 -0.3326
14689TIP3    H165482   3.358   3.774  16.757 -0.9334 -0.1890  0.0967
14689TIP3    H265483   3.307   3.869  16.651 -0.7174  0.5478  0.6444
14690TIP3   OH265484   6.536   3.750   0.984  0.5403 -0.0839 -0.2338
14690TIP3    H165485   6.576   3.833   1.010  0.9091 -0.6973  1.2665
14690TIP3    H265486   6.608   3.686   0.988 -0.1403 -0.8248  0.5072
14691TIP3   OH265487   2.081   5.714  15.198 -0.3583  0.6557  0.0541
14691TIP3    H165488   2.037   5.753  15.123 -0.6641 -1.4084 -0.9007
14691TIP3    H265489   2.024   5.643  15.226  1.4061 -0.8547  0.0143
14692TIP3   OH265490   1.958   4.648   5.627  0.0841 -0.7633 -0.0010
14692TIP3    H165491   1.938   4.706   5.701  4.6894 -0.4158  1.2938
14692TIP3    H265492   1.992   4.707   5.560 -0.8146 -1.4454 -1.0873
14693TIP3   OH265493   5.409   5.665  15.321  0.4130  0.3096  0.6833
14693TIP3    H165494   5.388   5.724  15.393  1.6824  0.4937  0.9154
14693TIP3    H265495   5.391   5.577  15.356  1.0452  0.3957  1.2383
14694TIP3   OH265496   4.273   6.352   4.744  0.3307  0.3685 -0.0481
14694TIP3    H165497   4.358   6.320   4.770  0.2807  1.4665  1.5809
14694TIP3    H265498   4.261   6.318   4.655  1.4880 -1.6159  0.5027
14695TIP3   OH265499   6.803   2.623   0.010 -0.4966 -0.3037  0.1281
14695TIP3    H165500   6.851   2.546   0.041  1.8652  1.3416  0.8598
14695TIP3    H265501   6.828   2.631  -0.082 -1.3931 -0.8161 -0.1792
14696TIP3   OH265502   0.132   3.845  14.892 -0.0617  0.0527  0.3563
14696TIP3    H165503   0.134   3.867  14.986  0.9728 -1.3271  0.6924
14696TIP3    H265504   0.111   3.927  14.849  3.5928  1.8235  1.5271
14697TIP3   OH265505   5.315   4.461  14.512 -0.1035  0.5372 -0.1021
14697TIP3    H165506   5.228   4.497  14.493  0.0620  0.7699 -0.4357
14697TIP3    H265507   5.299   4.390  14.573 -0.2840  2.5256  2.3453
14698TIP3   OH265508   4.165   5.344  15.174 -0.5902  0.1007 -0.1096
14698TIP3    H165509   4.073   5.346  15.197 -0.5321  0.4664  0.1013
14698TIP3    H265510   4.178   5.258  15.133 -0.9012 -0.1694  0.3488
14699TIP3   OH265511   0.466   5.955   6.391  0.3985 -0.6687 -0.3263
14699TIP3    H165512   0.521   6.009   6.448 -0.7766  0.4833 -0.2176
14699TIP3    H265513   0.476   5.866   6.425  1.0274 -0.2514  0.6226
14700TIP3   OH265514   5.816   1.632  11.739  0.4873 -0.0293 -0.8157
14700TIP3    H165515   5.765   1.616  11.659  1.3220 -0.6878 -1.2370
14700TIP3    H265516   5.797   1.557  11.794 -0.7296  0.8230 -0.0260
14701TIP3   OH265517   6.470   5.914   0.800  0.3315  0.2309  0.0362
14701TIP3    H165518   6.466   5.854   0.875 -1.8342 -0.0493 -0.2230
14701TIP3    H265519   6.485   6.000   0.839 -1.2210  0.1563  0.8765
14702TIP3   OH265520   0.768   4.197   2.203  0.4839  0.6089 -0.3208
14702TIP3    H165521   0.708   4.225   2.272  0.6056 -3.0896  1.5221
14702TIP3    H265522   0.842   4.158   2.249  2.5741  1.5875 -2.5819
14703TIP3   OH265523   4.605   0.385  14.988  0.1055 -0.6898  0.0657
14703TIP3    H165524   4.583   0.466  15.034 -2.1180 -0.1901 -1.7387
14703TIP3    H265525   4.700   0.387  14.980  0.0371  2.5027 -1.2173
14704TIP3   OH265526   0.227   5.135  14.788 -0.3196  0.6856  0.3805
14704TIP3    H165527   0.253   5.065  14.848  2.3311 -0.5680 -1.9805
14704TIP3    H265528   0.147   5.103  14.747  0.7614 -0.9981 -0.5519
14705TIP3   OH265529   2.008   3.169   4.533 -0.3418 -0.5440  0.3102
14705TIP3    H165530   2.018   3.263   4.519 -0.4094 -0.3218  1.5858
14705TIP3    H265531   1.913   3.155   4.532 -0.3193 -0.6915 -0.3523
14706TIP3   OH265532   4.342   3.049  12.962  0.2071 -0.1368 -0.2759
14706TIP3    H165533   4.281   3.002  12.905  0.3766 -0.9556  0.1998
14706TIP3    H265534   4.415   3.073  12.904 -1.2663  2.3882 -1.2659
14707TIP3   OH265535   6.332   6.494   4.253 -0.5345  0.0840 -0.4226
14707TIP3    H165536   6.310   6.472   4.344 -1.9125  1.8654 -0.2651
14707TIP3    H265537   6.275   6.438   4.200 -1.7846  0.9751 -0.0882
14708TIP3   OH265538   2.001   6.057  15.642  0.2770 -0.1123 -0.1292
14708TIP3    H165539   1.963   5.977  15.606  0.5475 -0.2228 -0.1684
14708TIP3    H265540   2.089   6.032  15.670 -0.3930 -0.3983  1.9104
14709TIP3   OH265541   5.101   2.417   4.921 -0.0078 -0.2452  0.3977
14709TIP3    H165542   5.195   2.405   4.931  0.1766  1.3880  0.7837
14709TIP3    H265543   5.067   2.424   5.010 -0.4487 -0.4281  0.2486
14710TIP3   OH265544   0.316   3.011   0.613 -0.1961 -0.3042  0.0614
14710TIP3    H165545   0.365   2.937   0.577  1.8866  0.0020  2.0441
14710TIP3    H265546   0.298   3.066   0.537 -0.0296 -1.8559 -1.1673
14711TIP3   OH265547   6.749   6.085  11.257 -0.2541  0.0431 -0.7638
14711TIP3    H165548   6.784   6.173  11.266 -1.8921  0.6161  0.4473
14711TIP3    H265549   6.794   6.049  11.180 -0.6749  2.4806 -2.2534
14712TIP3   OH265550   3.625   5.874   3.821 -0.0072 -0.5022  0.5460
14712TIP3    H165551   3.580   5.814   3.761 -0.1168 -0.6508  0.7711
14712TIP3    H265552   3.558   5.896   3.886  0.7239 -2.1827  1.9638
14713TIP3   OH265553   1.311   5.546  12.715  0.0190  0.1161  0.2217
14713TIP3    H165554   1.300   5.596  12.796 -2.2065  0.2219 -0.0836
14713TIP3    H265555   1.222   5.527  12.686  0.7760 -2.0344 -0.9275
14714TIP3   OH265556   5.803   2.033   2.675 -0.0528  0.0715 -0.1075
14714TIP3    H165557   5.824   2.093   2.604  0.2917  0.2787  0.1634
14714TIP3    H265558   5.867   2.053   2.743 -1.5355  1.2196  1.0400
14715TIP3   OH265559   5.329   0.124   3.233  0.7056  0.2874 -0.2950
14715TIP3    H165560   5.369   0.073   3.163 -0.8415  0.3378 -1.2553
14715TIP3    H265561   5.313   0.210   3.194  0.2648  0.4608  0.2554
14716TIP3   OH265562   1.875   0.876  13.373 -0.1032  0.1329 -0.2596
14716TIP3    H165563   1.863   0.782  13.361  0.4798 -0.2188  1.5457
14716TIP3    H265564   1.929   0.903  13.299 -2.3577 -0.4190 -2.2061
14717TIP3   OH265565   3.729   1.170   3.834 -0.1660  0.5614 -0.1038
14717TIP3    H165566   3.719   1.256   3.876 -0.4020  1.3195 -1.6626
14717TIP3    H265567   3.642   1.131   3.839 -0.3783  0.9641 -0.5179
14718TIP3   OH265568   1.361   2.577  17.148 -0.5796  0.0208  0.1300
14718TIP3    H165569   1.371   2.672  17.137 -2.0525  0.3730  1.6255
14718TIP3    H265570   1.269   2.564  17.170 -0.7956 -1.9455 -1.6010
14719TIP3   OH265571   3.927   2.637  11.355  0.8528 -0.3066  0.2176
14719TIP3    H165572   4.022   2.642  11.345  0.7626 -0.0063 -0.6182
14719TIP3    H265573   3.895   2.616  11.267  0.1172  0.0659  0.3886
14720TIP3   OH265574   1.137   4.647  12.598  0.6288  0.3087  0.0425
14720TIP3    H165575   1.185   4.685  12.672 -0.0840  2.7564 -0.6688
14720TIP3    H265576   1.180   4.563  12.583  1.3583  0.1120  2.6551
14721TIP3   OH265577   4.076   1.938  17.160 -0.7673 -0.5207 -0.2095
14721TIP3    H165578   4.121   1.877  17.102 -0.3118 -0.1876 -0.2187
14721TIP3    H265579   4.128   2.019  17.154 -1.9880  0.2314 -1.0692
14722TIP3   OH265580   1.133   2.434   1.885  0.0197 -0.4227  0.1240
14722TIP3    H165581   1.123   2.529   1.892  0.8210 -0.2725 -0.5051
14722TIP3    H265582   1.224   2.422   1.856 -0.1373 -1.3708 -0.0137
14723TIP3   OH265583   2.853   1.803  15.132 -0.2545  0.2970 -0.5915
14723TIP3    H165584   2.839   1.738  15.064  0.5914  0.7843 -1.2469
14723TIP3    H265585   2.804   1.770  15.207 -2.0703  0.2560 -1.7248
14724TIP3   OH265586   2.034   4.983  14.005 -0.0229 -0.1790 -0.3385
14724TIP3    H165587   2.074   5.062  13.968 -0.0238  0.5804  1.2031
14724TIP3    H265588   2.101   4.947  14.063 -0.4024 -0.7216 -0.2286
14725TIP3   OH265589   6.500   5.914   5.874 -0.1476  0.0531 -0.0237
14725TIP3    H165590   6.488   5.923   5.969  0.5698  0.9507 -0.0133
14725TIP3    H265591   6.428   5.965   5.836  0.6772  1.3216  0.0527
14726TIP3   OH265592   5.017   1.412  11.467  0.3198  0.1074  0.2258
14726TIP3    H165593   5.006   1.325  11.505 -1.0419  0.0831 -0.1724
14726TIP3    H265594   4.995   1.401  11.375  4.4402 -0.0340 -0.9465
14727TIP3   OH265595   5.942   5.463   0.085  0.4559  0.1329 -1.0520
14727TIP3    H165596   6.028   5.494   0.056 -0.0077  0.3904 -2.2072
14727TIP3    H265597   5.938   5.372   0.056  0.9390 -0.3812  0.3927
14728TIP3   OH265598   5.252   6.644  15.127 -0.5638  0.1801 -0.3841
14728TIP3    H165599   5.175   6.701  15.123 -0.1120  0.7369 -1.5835
14728TIP3    H265600   5.304   6.680  15.199 -0.2472  1.3482 -1.1768
14729TIP3   OH265601   4.118   4.900   2.711  0.2673 -0.0540 -0.4882
14729TIP3    H165602   4.112   4.821   2.658 -1.3345 -0.5142  0.3137
14729TIP3    H265603   4.097   4.870   2.800  2.3627  0.7812  0.3685
14730TIP3   OH265604   4.553   3.495   4.379  0.6194 -0.0431 -0.2492
14730TIP3    H165605   4.508   3.571   4.342  0.9294  0.1115 -0.3087
14730TIP3    H265606   4.595   3.528   4.458  2.3632  0.3292 -1.2663
14731TIP3   OH265607   5.112   6.101  12.592  1.1719  0.1635 -0.1529
14731TIP3    H165608   5.034   6.087  12.538  2.4437  0.1431 -2.0886
14731TIP3    H265609   5.129   6.016  12.632 -0.3640  0.4263  1.1741
14732TIP3   OH265610   5.677   3.834   2.119  0.5027 -0.1323  0.1962
14732TIP3    H165611   5.717   3.749   2.101 -0.4435 -0.4908 -0.2317
14732TIP3    H265612   5.653   3.830   2.212 -1.2816 -1.0926 -0.2629
14733TIP3   OH265613   0.279   2.259  12.823 -0.3502  0.3459 -0.1005
14733TIP3    H165614   0.219   2.187  12.804 -0.2362 -0.0012  0.7986
14733TIP3    H265615   0.349   2.218  12.875  1.4550  0.4212 -2.3099
14734TIP3   OH265616   1.761   6.368  15.015  0.2277  0.0001  0.1348
14734TIP3    H165617   1.739   6.459  15.032 -0.9650 -0.2380 -0.0160
14734TIP3    H265618   1.803   6.369  14.929 -0.3096  0.3426 -0.1294
14735TIP3   OH265619   4.662   5.810   1.300  0.7445 -0.4524 -0.0226
14735TIP3    H165620   4.651   5.863   1.379 -0.3742  0.3297 -0.6919
14735TIP3    H265621   4.730   5.855   1.250  1.4200 -0.9222  0.4378
14736TIP3   OH265622   1.331   1.532  15.605 -0.4044 -0.2314  0.0069
14736TIP3    H165623   1.351   1.607  15.661  0.5401 -0.1014 -0.4883
14736TIP3    H265624   1.398   1.535  15.536 -3.1364  1.3175 -2.8332
14737TIP3   OH265625   0.199   5.233   0.349  0.4568  0.2562  0.1870
14737TIP3    H165626   0.218   5.257   0.440 -2.0459 -0.8084  1.0639
14737TIP3    H265627   0.106   5.250   0.338 -0.3437 -3.6964 -0.7697
14738TIP3   OH265628   4.831   5.248   2.917 -0.0760  0.2349 -0.1897
14738TIP3    H165629   4.793   5.231   3.004 -0.5736 -0.7614 -0.5858
14738TIP3    H265630   4.900   5.312   2.933  0.7711 -0.9453  1.1682
14739TIP3   OH265631   4.761   0.660  11.815  0.1275  0.4646  0.0266
14739TIP3    H165632   4.746   0.651  11.721 -0.7737  0.2986  0.1814
14739TIP3    H265633   4.728   0.578  11.853  1.4623  0.0707  0.3894
14740TIP3   OH265634   2.219   1.267  12.467  0.3765  0.4879 -0.2819
14740TIP3    H165635   2.286   1.326  12.433  0.7939  1.6409  2.3210
14740TIP3    H265636   2.235   1.184  12.421  3.1903  0.9002 -0.2345
14741TIP3   OH265637   0.742   1.952   4.945 -0.2042 -0.2675 -0.2668
14741TIP3    H165638   0.831   1.919   4.959  0.0767  0.3478 -0.5632
14741TIP3    H265639   0.708   1.899   4.873 -0.2060 -0.7316  0.0672
14742TIP3   OH265640   0.798   2.758   6.299  1.3484  0.5215  0.2178
14742TIP3    H165641   0.858   2.781   6.370  1.2224  0.3831  0.3716
14742TIP3    H265642   0.763   2.842   6.269 -0.3028  0.4621  1.8207
14743TIP3   OH265643   4.056   4.893  14.927  0.5541  0.8679  0.1300
14743TIP3    H165644   4.099   4.853  14.852 -2.0523 -0.0366 -0.9921
14743TIP3    H265645   4.041   4.821  14.988 -0.2473  0.9454  0.0417
14744TIP3   OH265646   6.128   1.975   0.995 -0.3085  0.3710  0.5059
14744TIP3    H165647   6.061   1.922   0.952 -0.2220  1.7067 -1.3988
14744TIP3    H265648   6.091   2.063   0.999  0.9439  0.9324  0.2864
14745TIP3   OH265649   3.450   3.279   1.646  0.4483 -0.4196  0.1499
14745TIP3    H165650   3.373   3.244   1.691  0.4959  1.1297  1.5130
14745TIP3    H265651   3.429   3.273   1.553 -0.7124 -1.3418  0.4552
14746TIP3   OH265652   1.019   4.300  12.579 -0.3573 -0.3088 -0.5258
14746TIP3    H165653   1.051   4.337  12.661  0.3673  1.6639 -1.6252
14746TIP3    H265654   0.990   4.212  12.601  0.0933  0.0759  1.7693
14747TIP3   OH265655   0.360   3.173   5.200 -0.2295  0.7122  0.1111
14747TIP3    H165656   0.350   3.250   5.256  1.0903  1.5691 -0.7673
14747TIP3    H265657   0.422   3.201   5.133 -1.4200 -0.4098 -1.5428
14748TIP3   OH265658   0.185   3.882  11.549  0.4340  0.2731 -0.4454
14748TIP3    H165659   0.158   3.816  11.613 -1.6085 -0.9978 -2.4885
14748TIP3    H265660   0.276   3.902  11.573  0.0429 -0.7747  2.2574
14749TIP3   OH265661   2.954   5.708  16.733  0.6144  0.3653  0.1741
14749TIP3    H165662   2.947   5.754  16.649 -1.5891  0.2860  0.2426
14749TIP3    H265663   2.998   5.770  16.791  0.0410  1.3695 -0.4252
14750TIP3   OH265664   3.829   1.643   6.570 -0.3765 -0.0741 -1.3000
14750TIP3    H165665   3.746   1.657   6.525 -0.9798  1.0416  0.0367
14750TIP3    H265666   3.804   1.630   6.662  0.8420 -1.2801 -1.1168
14751TIP3   OH265667   4.817   1.195  12.115  0.5538  0.0688 -0.3564
14751TIP3    H165668   4.813   1.242  12.198 -0.0865  0.7891 -0.7841
14751TIP3    H265669   4.810   1.103  12.139 -0.3499  0.3043  0.3460
14752TIP3   OH265670   5.381   1.689   4.569 -0.3465 -0.3779 -0.0020
14752TIP3    H165671   5.444   1.732   4.511 -0.7234 -0.4350 -0.4589
14752TIP3    H265672   5.296   1.723   4.541 -0.3691  1.4172  2.0663
14753TIP3   OH265673   5.353   1.286  17.157  0.4078  0.3923 -0.0812
14753TIP3    H165674   5.419   1.219  17.174 -0.4036 -0.6162 -0.7611
14753TIP3    H265675   5.271   1.248  17.189 -0.3601  0.3071 -1.9840
14754TIP3   OH265676   0.490   6.486  15.883 -0.0152 -0.1623  0.1290
14754TIP3    H165677   0.476   6.580  15.898  0.4206  0.2257 -1.7266
14754TIP3    H265678   0.476   6.447  15.969  0.6497  1.6896  1.1430
14755TIP3   OH265679   2.764   4.753   4.956 -0.6213  0.2663  0.1705
14755TIP3    H165680   2.785   4.739   5.049 -2.9974 -1.7530  0.5499
14755TIP3    H265681   2.811   4.683   4.910 -0.9344  0.0842  0.1226
14756TIP3   OH265682   4.011   4.410  13.923 -0.0994 -0.4955 -0.1922
14756TIP3    H165683   3.972   4.447  14.002  1.7629  0.2130  0.4333
14756TIP3    H265684   4.003   4.480  13.858  2.0054  0.5223  0.5539
14757TIP3   OH265685   3.984   6.563   2.849  0.0962  0.0615 -0.4791
14757TIP3    H165686   4.052   6.498   2.868  0.3116  0.4212  0.0157
14757TIP3    H265687   3.974   6.612   2.931  1.2584  1.8850 -1.3641
14758TIP3   OH265688   0.932   1.438   4.027 -0.0619 -0.6230 -0.2137
14758TIP3    H165689   1.005   1.433   3.965  0.5210  2.3299  0.1165
14758TIP3    H265690   0.855   1.453   3.973 -0.4441 -3.1794 -0.5153
14759TIP3   OH265691   0.010   4.553  10.581 -0.2718 -0.0714  0.2188
14759TIP3    H165692   0.105   4.553  10.589 -0.2414 -0.7690 -0.0398
14759TIP3    H265693  -0.011   4.467  10.544 -0.9285  0.4260 -0.6097
14760TIP3   OH265694   2.356   1.357  13.546  0.0886 -0.3481 -0.3052
14760TIP3    H165695   2.398   1.418  13.607 -1.5521  1.1710 -0.6115
14760TIP3    H265696   2.330   1.283  13.601  1.1895 -0.3143  0.2828
14761TIP3   OH265697   5.504   1.939   2.890 -0.2251  0.0730  0.0025
14761TIP3    H165698   5.555   2.012   2.925 -1.2030  1.0319 -0.5031
14761TIP3    H265699   5.527   1.936   2.797  0.7303 -1.0710  0.2578
14762TIP3   OH265700   6.749   6.022   0.049  1.2667 -0.4245  0.3333
14762TIP3    H165701   6.754   5.976   0.133 -1.0959  0.2457  0.9188
14762TIP3    H265702   6.663   5.997   0.014  0.2693  2.7356  0.2553
14763TIP3   OH265703   4.592   5.669  11.705 -0.0352 -0.0298 -0.4500
14763TIP3    H165704   4.571   5.740  11.644  0.4492 -0.9092 -1.6917
14763TIP3    H265705   4.687   5.663  11.702  0.0069  0.0298  0.5543
14764TIP3   OH265706   6.005   0.295   5.028 -0.5647  1.2653 -0.4166
14764TIP3    H165707   5.985   0.314   4.937 -0.8895 -0.4451 -0.7472
14764TIP3    H265708   5.922   0.266   5.065 -0.2912  1.3078  0.2444
14765TIP3   OH265709   4.350   0.175   1.940  0.2836 -0.3557 -0.2269
14765TIP3    H165710   4.416   0.211   1.881  2.1397  1.0020  2.4846
14765TIP3    H265711   4.400   0.121   2.002 -1.0807  0.8149  2.0009
14766TIP3   OH265712   6.075   3.613   2.240  0.1986 -0.3411 -0.5354
14766TIP3    H165713   6.123   3.541   2.199 -0.0881 -0.0499 -1.4017
14766TIP3    H265714   6.039   3.575   2.320  0.4676 -1.0226 -0.7280
14767TIP3   OH265715   3.790   4.915  16.830  0.2162 -0.0445  0.1556
14767TIP3    H165716   3.866   4.860  16.810  0.0308 -0.5310  0.7586
14767TIP3    H265717   3.720   4.879  16.776 -0.4823 -1.8365  2.0921
14768TIP3   OH265718   6.660   5.346  15.972  0.0715 -0.3172 -0.0805
14768TIP3    H165719   6.572   5.377  15.994  0.5524  0.9689  0.1180
14768TIP3    H265720   6.718   5.413  16.006  1.0426 -0.1508 -1.9642
14769TIP3   OH265721   6.800   4.122   4.627  0.2280 -0.1732  0.0752
14769TIP3    H165722   6.774   4.092   4.540  0.5191 -0.4374  0.0762
14769TIP3    H265723   6.838   4.044   4.668 -0.7063 -0.2916  0.7568
14770TIP3   OH265724   2.078   5.628  13.721  0.3086  0.3339  0.1771
14770TIP3    H165725   2.092   5.716  13.687  0.9117  0.5466  0.9581
14770TIP3    H265726   2.166   5.593  13.734  0.0801 -0.0906  0.6130
14771TIP3   OH265727   6.745   1.360   3.399  0.2017 -0.0937 -0.3386
14771TIP3    H165728   6.675   1.339   3.461 -0.3187 -1.9463 -1.4914
14771TIP3    H265729   6.756   1.280   3.347  1.9401  0.7686 -1.3755
14772TIP3   OH265730   0.133   4.897   1.349 -0.9484  0.0942  0.2058
14772TIP3    H165731   0.135   4.992   1.359  0.9079  0.2749 -1.2801
14772TIP3    H265732   0.117   4.883   1.256 -3.2822 -1.1322  0.7251
14773TIP3   OH265733   4.038   1.358   4.336  0.3708  0.0059  0.1896
14773TIP3    H165734   4.065   1.329   4.249  0.3875  1.8450 -0.4589
14773TIP3    H265735   3.959   1.307   4.355 -0.2750  0.3552 -1.3858
14774TIP3   OH265736   2.834   5.761   1.264 -0.2322  0.0292  0.0682
14774TIP3    H165737   2.897   5.791   1.330  1.0467 -0.9074 -0.6919
14774TIP3    H265738   2.877   5.687   1.221 -2.8979 -2.4465  1.3133
14775TIP3   OH265739   5.028   4.084   1.500 -0.0453  0.4529 -0.0120
14775TIP3    H165740   4.981   4.155   1.457  0.0077  0.1242 -0.6321
14775TIP3    H265741   5.063   4.031   1.428 -0.4511 -0.4491  0.4285
14776TIP3   OH265742   3.386   3.956  11.642 -0.2224  0.0960 -0.0742
14776TIP3    H165743   3.482   3.957  11.642 -0.2143 -0.4097 -0.4949
14776TIP3    H265744   3.361   4.017  11.712  0.4060 -0.1991  0.4117
14777TIP3   OH265745   0.301   6.153  13.418 -0.0540 -0.2164 -0.0080
14777TIP3    H165746   0.370   6.086  13.419 -0.4252 -0.6697 -1.6029
14777TIP3    H265747   0.333   6.221  13.478  1.3375 -0.8286 -0.0073
14778TIP3   OH265748   0.849   0.449   3.440 -0.3604 -0.0253 -0.4681
14778TIP3    H165749   0.886   0.426   3.355  1.1067  2.3199 -0.5611
14778TIP3    H265750   0.876   0.377   3.498  1.3793 -0.1041 -1.3170
14779TIP3   OH265751   6.588   5.416  12.738  0.6527 -0.4310  0.2627
14779TIP3    H165752   6.538   5.335  12.748 -0.8705  0.0589 -2.5985
14779TIP3    H265753   6.522   5.485  12.735  1.5051  0.3842 -2.0817
14780TIP3   OH265754   2.869   3.910   5.716 -0.0016 -0.0696 -0.2900
14780TIP3    H165755   2.946   3.936   5.767  0.3245 -1.7294  0.1131
14780TIP3    H265756   2.802   3.974   5.740  0.5115 -0.0715  1.3068
14781TIP3   OH265757   0.899   1.386  15.361  0.4702 -0.4620  0.3298
14781TIP3    H165758   0.835   1.338  15.308  0.8116 -0.6436  0.0792
14781TIP3    H265759   0.873   1.368  15.452 -0.2025 -0.0351  0.2299
14782TIP3   OH265760   3.001   4.728   4.124 -0.1656  0.6328  0.1676
14782TIP3    H165761   3.056   4.655   4.095 -1.1110 -0.4742  1.0393
14782TIP3    H265762   3.004   4.723   4.219 -0.3912  1.6242  0.2318
14783TIP3   OH265763   4.102   1.735  14.873  0.3253 -0.8088  0.2309
14783TIP3    H165764   4.010   1.756  14.893  0.4155 -0.8470  0.7127
14783TIP3    H265765   4.097   1.665  14.808  0.0162 -0.1978 -0.4249
14784TIP3   OH265766   0.668   0.210   3.457 -0.0618 -0.2006 -0.1832
14784TIP3    H165767   0.621   0.272   3.512 -0.0980 -0.6209  0.2684
14784TIP3    H265768   0.752   0.195   3.502 -0.9169 -2.1368  0.9058
14785TIP3   OH265769   5.133   1.810   2.418  0.2308 -0.3949 -0.6783
14785TIP3    H165770   5.144   1.732   2.473 -1.1701  0.1419  0.4302
14785TIP3    H265771   5.039   1.824   2.415  0.4824  2.2331  0.6077
14786TIP3   OH265772   3.363   0.667   0.429  1.1324  0.0792  0.5039
14786TIP3    H165773   3.437   0.712   0.389  2.2273 -0.1833  2.1112
14786TIP3    H265774   3.400   0.626   0.507 -0.3775 -1.4669  0.4522
14787TIP3   OH265775   1.073   1.473   0.097 -0.1843 -0.9141 -0.1672
14787TIP3    H165776   1.127   1.536   0.144 -0.0848 -1.7198  0.8390
14787TIP3    H265777   1.093   1.488   0.004 -2.0051  2.2062 -0.1903
14788TIP3   OH265778   3.206   4.905   2.509  0.1166 -0.0677  0.5380
14788TIP3    H165779   3.237   4.835   2.452  0.3917  1.1808 -0.8890
14788TIP3    H265780   3.184   4.861   2.591 -0.9181 -2.0165 -0.7244
14789TIP3   OH265781   6.022   5.587  14.525  0.6008 -0.3456  0.0561
14789TIP3    H165782   5.963   5.512  14.535  1.4179 -1.0391 -0.2128
14789TIP3    H265783   6.054   5.581  14.435 -0.2394  1.0236 -0.3506
14790TIP3   OH265784   6.229   0.489  13.169 -0.0303  0.9639  0.1626
14790TIP3    H165785   6.134   0.486  13.163  0.0775 -1.1675 -2.4283
14790TIP3    H265786   6.254   0.565  13.116 -0.2582 -0.9571 -2.9385
14791TIP3   OH265787   5.790   5.406  13.308 -0.1042 -0.2815 -0.2955
14791TIP3    H165788   5.821   5.461  13.379 -0.2620  0.6411 -0.9332
14791TIP3    H265789   5.714   5.452  13.272 -0.6579 -1.2412 -0.4166
14792TIP3   OH265790   3.263   3.919  13.939 -0.0514 -0.1959 -0.4550
14792TIP3    H165791   3.266   3.826  13.962  2.7230  0.1852  1.1787
14792TIP3    H265792   3.206   3.959  14.005  0.6152 -0.4344  0.2815
14793TIP3   OH265793   4.663   6.231   0.614  0.0647 -0.1909  0.2855
14793TIP3    H165794   4.608   6.235   0.692 -0.8209  0.9633 -0.3627
14793TIP3    H265795   4.604   6.252   0.542  1.1785  0.2286 -0.5388
14794TIP3   OH265796   2.290   1.639  13.092 -0.1459 -0.0292 -0.8568
14794TIP3    H165797   2.340   1.674  13.018  1.4325 -1.5240 -0.5577
14794TIP3    H265798   2.354   1.592  13.145 -1.9181 -2.3397 -0.6101
14795TIP3   OH265799   5.524   1.628   1.069 -0.0749 -0.2305 -0.2728
14795TIP3    H165800   5.457   1.639   1.001 -0.4951  0.6790  0.2664
14795TIP3    H265801   5.607   1.632   1.021 -0.3857 -0.5076 -0.8454
14796TIP3   OH265802   5.023   1.716   0.032  0.4621  0.1833 -0.1937
14796TIP3    H165803   5.037   1.807   0.005 -2.5333  1.0098  0.6154
14796TIP3    H265804   5.078   1.705   0.110 -1.0484  2.2493  1.2840
14797TIP3   OH265805   1.324   6.441   6.877 -0.2012 -0.4647 -0.4042
14797TIP3    H165806   1.262   6.368   6.881 -0.8579  0.0643 -0.8704
14797TIP3    H265807   1.283   6.505   6.820  0.0216  0.6176  0.6172
14798TIP3   OH265808   5.727   4.008   3.386 -0.1253  0.6448 -0.6446
14798TIP3    H165809   5.730   4.056   3.469  0.3492  1.4970 -1.1439
14798TIP3    H265810   5.810   3.960   3.383 -0.6248 -0.2916 -0.1177
14799TIP3   OH265811   3.310   5.307  11.845 -0.3260  0.0217 -0.2283
14799TIP3    H165812   3.397   5.337  11.819  0.9862 -2.3929  1.0943
14799TIP3    H265813   3.291   5.235  11.786 -1.9641  1.1816 -1.1975
14800TIP3   OH265814   5.427   4.656  15.444  0.1063  0.0288  0.1522
14800TIP3    H165815   5.361   4.637  15.378 -2.1278  2.2479  1.5730
14800TIP3    H265816   5.493   4.587  15.432 -0.2192  0.2079 -4.1553
14801TIP3   OH265817   2.317   0.035   4.832  0.2749 -0.2215  0.1573
14801TIP3    H165818   2.388  -0.020   4.798 -1.9205 -1.9809 -2.0329
14801TIP3    H265819   2.280   0.077   4.754 -0.3382  1.6394  1.3868
14802TIP3   OH265820   5.952   5.454  11.113  0.0381  0.1547  0.2532
14802TIP3    H165821   5.934   5.363  11.137 -0.9519  0.7443  1.9244
14802TIP3    H265822   5.918   5.462  11.023 -1.4482 -0.7149  0.6945
14803TIP3   OH265823   6.735   1.356   4.033  0.4975  0.5835  0.3783
14803TIP3    H165824   6.743   1.264   4.060 -1.6809  0.5853  1.2518
14803TIP3    H265825   6.719   1.351   3.939 -1.3876 -0.1253  0.6815
14804TIP3   OH265826   5.766   3.568  13.639  0.5518 -0.4504  0.0998
14804TIP3    H165827   5.771   3.494  13.578 -0.7163  0.3086 -0.9575
14804TIP3    H265828   5.673   3.578  13.658  0.8581 -0.1625  1.5517
14805TIP3   OH265829   6.448   6.142   3.902 -0.9864  0.0075  0.2522
14805TIP3    H165830   6.404   6.168   3.821 -0.6946  1.8452  0.6230
14805TIP3    H265831   6.377   6.117   3.961 -1.3586  0.5831  0.0606
14806TIP3   OH265832   4.476   3.996   0.456  0.3309  0.5656 -0.9434
14806TIP3    H165833   4.566   4.026   0.443  0.5469 -0.4346 -1.9114
14806TIP3    H265834   4.445   3.975   0.368  0.0272 -1.5277 -0.3930
14807TIP3   OH265835   4.690   3.754  13.871  0.3815  0.1446  0.1499
14807TIP3    H165836   4.760   3.732  13.932  0.0335  2.8160  1.6437
14807TIP3    H265837   4.612   3.711  13.908  0.8170 -1.2987 -0.5169
14808TIP3   OH265838   5.229   6.339   1.786 -0.3193  0.2428 -0.9207
14808TIP3    H165839   5.148   6.386   1.768 -0.4468 -0.0564 -1.1293
14808TIP3    H265840   5.283   6.353   1.708 -0.5369 -0.3384 -1.1736
14809TIP3   OH265841   0.192   3.030   1.632 -0.3195  0.5626 -0.3615
14809TIP3    H165842   0.254   2.963   1.659 -0.9989 -0.9161 -2.1876
14809TIP3    H265843   0.245   3.094   1.585  0.0578  0.1054 -0.5722
14810TIP3   OH265844   1.476   6.249   4.119  1.0695 -0.0064 -0.3509
14810TIP3    H165845   1.427   6.328   4.138 -1.3077 -1.4675 -0.0266
14810TIP3    H265846   1.568   6.276   4.122  0.3406  2.6488 -0.0574
14811TIP3   OH265847   1.265   3.060   0.367  0.2617 -0.0988 -0.8375
14811TIP3    H165848   1.292   2.968   0.368  1.6701  0.2830 -0.1535
14811TIP3    H265849   1.198   3.067   0.435 -1.2715 -0.9870 -2.2184
14812TIP3   OH265850   4.836   6.545  12.972  0.4721 -0.3258 -0.1223
14812TIP3    H165851   4.813   6.561  13.064 -0.1286 -0.4034 -0.2555
14812TIP3    H265852   4.806   6.623  12.926  0.7321 -0.3071 -0.2589
14813TIP3   OH265853   2.078   0.653  15.347 -0.1205  0.0391 -0.4147
14813TIP3    H165854   2.002   0.636  15.403  0.9233 -0.3274  0.9332
14813TIP3    H265855   2.109   0.567  15.321  1.3331  0.0609  1.1392
14814TIP3   OH265856   4.192   6.348   3.459  0.8211 -0.7032  0.1032
14814TIP3    H165857   4.198   6.442   3.476  1.2682 -0.6324 -0.4225
14814TIP3    H265858   4.251   6.308   3.524  0.3224 -0.6562  0.5917
14815TIP3   OH265859   3.421   1.114  16.278 -0.1318 -0.1484 -0.5002
14815TIP3    H165860   3.487   1.138  16.342 -0.1711  1.5583 -1.0526
14815TIP3    H265861   3.470   1.101  16.197 -0.4553  1.0975 -0.9056
14816TIP3   OH265862   3.187   2.595   5.465  0.1507  0.2884 -0.0366
14816TIP3    H165863   3.191   2.652   5.388 -0.0231 -1.1909 -1.1845
14816TIP3    H265864   3.187   2.506   5.429  0.5899 -0.4568  1.6992
14817TIP3   OH265865   0.409   4.268  13.522  0.8672 -0.2743 -0.4654
14817TIP3    H165866   0.500   4.249  13.542  0.3817 -0.3927  1.9093
14817TIP3    H265867   0.396   4.358  13.551 -0.3854 -1.1010  1.8188
14818TIP3   OH265868   6.456   3.771  16.620  0.9539 -0.3833 -0.1391
14818TIP3    H165869   6.380   3.717  16.598  0.6311  0.4878 -1.2496
14818TIP3    H265870   6.421   3.840  16.676  1.2800 -1.0042  0.8681
14819TIP3   OH265871   2.120   4.274  16.198  0.6717 -0.2999  0.2524
14819TIP3    H165872   2.064   4.320  16.261 -0.9511  0.1425 -1.4089
14819TIP3    H265873   2.194   4.332  16.184 -0.5866  1.1482 -0.6624
14820TIP3   OH265874   2.983   5.485  16.918  0.2394  0.3867 -0.0135
14820TIP3    H165875   3.067   5.482  16.873 -0.4771 -1.3471 -1.3174
14820TIP3    H265876   2.952   5.575  16.905  1.3692  0.7335 -0.4367
14821TIP3   OH265877   1.343   5.353  11.761  0.8750  0.3986  0.0395
14821TIP3    H165878   1.256   5.318  11.740  1.9768 -1.7177 -1.3570
14821TIP3    H265879   1.354   5.334  11.854 -0.2404  0.9014  0.2879
14822TIP3   OH265880   5.399   5.483  16.547  0.0975  0.2240  0.0368
14822TIP3    H165881   5.423   5.575  16.560  2.6354 -0.4629  0.9437
14822TIP3    H265882   5.411   5.467  16.453 -0.1932  0.7807 -0.0942
14823TIP3   OH265883   1.628   2.856  12.861  0.4258  0.4328 -0.0136
14823TIP3    H165884   1.630   2.764  12.886  2.2046  0.5343  0.3598
14823TIP3    H265885   1.690   2.862  12.788  2.3818  1.7443  1.6462
14824TIP3   OH265886   4.519   0.074  11.896 -0.2575  0.1126  0.0914
14824TIP3    H165887   4.585   0.012  11.928 -1.1553 -0.7271  0.3681
14824TIP3    H265888   4.495   0.126  11.972 -1.1290 -0.7200  0.4039
14825TIP3   OH265889   4.190   1.551  14.687  0.3287 -0.1073  0.0103
14825TIP3    H165890   4.201   1.629  14.634 -2.1309 -0.0183 -0.4857
14825TIP3    H265891   4.161   1.483  14.626  0.2215 -0.7866  0.7821
14826TIP3   OH265892   2.843   0.374  13.176 -0.4519  0.4301 -0.5035
14826TIP3    H165893   2.749   0.357  13.184 -0.4734  0.8781  0.3663
14826TIP3    H265894   2.854   0.463  13.210  0.4694 -0.1360  0.7548
14827TIP3   OH265895   5.310   5.286   4.328  0.2972  0.6940 -0.3731
14827TIP3    H165896   5.311   5.196   4.295 -0.7887  0.6264 -0.2591
14827TIP3    H265897   5.263   5.335   4.261 -0.3643  0.8931  0.2259
14828TIP3   OH265898   0.209   4.165   3.594  0.4660 -0.9392 -0.0777
14828TIP3    H165899   0.218   4.088   3.539 -0.3193 -0.6214 -0.6761
14828TIP3    H265900   0.125   4.203   3.568  1.2562  0.6271 -0.4753
14829TIP3   OH265901   6.007   6.168  12.093  0.0587  0.4190 -0.0809
14829TIP3    H165902   5.955   6.228  12.040 -0.2831  0.5842  0.4232
14829TIP3    H265903   5.942   6.126  12.151  0.2037 -0.8796 -0.8296
14830TIP3   OH265904   1.283   5.443   0.225  0.6977  0.3326  0.2726
14830TIP3    H165905   1.190   5.461   0.240  0.6156  1.0903 -0.9342
14830TIP3    H265906   1.327   5.472   0.304  0.1122  2.1065 -0.0045
14831TIP3   OH265907   4.432   2.013  13.277  0.2068 -0.2822 -0.2016
14831TIP3    H165908   4.377   1.977  13.208 -0.3117 -1.3217  0.7261
14831TIP3    H265909   4.490   1.941  13.302 -0.8170 -0.5304  1.6487
14832TIP3   OH265910   6.802   5.802   5.386  0.2267  0.1299  0.3188
14832TIP3    H165911   6.869   5.742   5.419  1.4970  0.6915 -1.1251
14832TIP3    H265912   6.817   5.805   5.292 -1.7151  0.4617 -0.0207
14833TIP3   OH265913   6.039   4.770  14.496 -0.0128 -0.5257  0.2286
14833TIP3    H165914   5.962   4.826  14.489  0.5815  0.4047  0.8746
14833TIP3    H265915   6.004   4.683  14.517 -1.0123 -0.6587 -1.7504
14834TIP3   OH265916   2.284   6.630   1.592 -0.6341  0.2582  0.8626
14834TIP3    H165917   2.277   6.536   1.572 -1.6763  0.5990 -0.5120
14834TIP3    H265918   2.209   6.649   1.648 -1.3287  0.5621 -0.1433
14835TIP3   OH265919   3.526   1.086   6.398 -0.3077  0.2946 -0.3571
14835TIP3    H165920   3.620   1.093   6.413 -0.0249 -2.0114 -0.7136
14835TIP3    H265921   3.494   1.176   6.404  2.1138  1.3466 -1.6227
14836TIP3   OH265922   2.644   2.402   1.273  0.0217 -0.2425  0.5550
14836TIP3    H165923   2.699   2.331   1.304  2.3905  0.1877 -2.2336
14836TIP3    H265924   2.676   2.480   1.318 -1.9818 -0.6857  2.9322
14837TIP3   OH265925   4.631   5.600  13.028 -0.1300  0.3715  0.0379
14837TIP3    H165926   4.603   5.535  12.964 -3.2090  0.3340  1.2398
14837TIP3    H265927   4.688   5.659  12.980  0.7009 -1.7427 -1.7312
14838TIP3   OH265928   4.248   4.109  12.156  0.4898  0.1572  0.1597
14838TIP3    H165929   4.342   4.094  12.171  0.3838 -1.5165 -0.6226
14838TIP3    H265930   4.206   4.078  12.236  0.5506  0.2852  0.2426
14839TIP3   OH265931   1.151   5.347  14.358  0.3637 -0.0198  0.2022
14839TIP3    H165932   1.072   5.382  14.400 -1.1347 -1.9380 -0.8829
14839TIP3    H265933   1.190   5.289  14.425  1.3836  1.5451  1.0347
14840TIP3   OH265934   5.944   4.976  12.835  0.2276  0.4449  0.1709
14840TIP3    H165935   5.877   4.911  12.814  0.3351 -0.2113  1.7254
14840TIP3    H265936   5.923   5.051  12.780 -0.4255 -0.5714 -1.0248
14841TIP3   OH265937   5.115   2.594  13.424  0.0833  0.4419 -0.2163
14841TIP3    H165938   5.059   2.607  13.500  0.1776 -2.1742  0.4068
14841TIP3    H265939   5.057   2.602  13.349 -0.5945  0.3535  0.2914
14842TIP3   OH265940   2.215   3.154   0.389  0.2328 -0.0501 -0.2436
14842TIP3    H165941   2.233   3.063   0.363 -0.5948 -0.5304  0.7893
14842TIP3    H265942   2.192   3.198   0.308  1.8539 -0.4419 -0.9610
14843TIP3   OH265943   0.699   0.627  11.275 -0.2591  0.0244 -0.3199
14843TIP3    H165944   0.782   0.674  11.291 -0.7583  0.5900  0.7510
14843TIP3    H265945   0.712   0.582  11.192  1.2604 -0.1821 -0.0009
14844TIP3   OH265946   5.757   1.556  11.468  0.1228 -0.6649  0.0575
14844TIP3    H165947   5.779   1.597  11.385  2.4284  0.4098  1.0945
14844TIP3    H265948   5.662   1.558  11.472  0.0308  1.4511 -1.4949
14845TIP3   OH265949   2.710   1.562  16.546  1.0657 -0.1866 -0.3486
14845TIP3    H165950   2.801   1.564  16.574  0.9166  2.7479  0.2022
14845TIP3    H265951   2.700   1.636  16.487 -1.0438 -0.1719 -0.0742
14846TIP3   OH265952   4.230   1.456  16.361  0.3066  0.2272  0.4423
14846TIP3    H165953   4.218   1.546  16.328  0.2220  0.7384  1.7805
14846TIP3    H265954   4.300   1.464  16.425 -0.6535 -0.3705  1.6117
14847TIP3   OH265955   5.572   2.611   4.823 -0.2054 -0.1545  0.1777
14847TIP3    H165956   5.603   2.688   4.775 -1.2786  0.6499  0.7299
14847TIP3    H265957   5.544   2.550   4.754  0.1327  0.1677 -0.2552
14848TIP3   OH265958   4.985   5.149   6.902 -0.2922 -0.1669  0.2800
14848TIP3    H165959   4.935   5.080   6.858 -0.5589  1.4166 -2.0983
14848TIP3    H265960   4.919   5.200   6.948 -0.3320 -0.3766  0.4604
14849TIP3   OH265961   1.106   2.130   4.280  0.4711  0.1387 -0.0538
14849TIP3    H165962   1.115   2.095   4.191  2.4957  1.0584 -0.2759
14849TIP3    H265963   1.196   2.148   4.307 -0.2921  3.2178  0.7866
14850TIP3   OH265964   4.207   6.331  11.769  0.0525 -0.5514  0.0350
14850TIP3    H165965   4.279   6.384  11.802  0.8963  0.5978 -3.2195
14850TIP3    H265966   4.139   6.395  11.747 -0.9522 -1.3696  0.7336
14851TIP3   OH265967   5.006   2.982  11.899  0.1440  0.6415  0.5764
14851TIP3    H165968   4.931   2.975  11.840  0.1092 -0.2183  0.7077
14851TIP3    H265969   4.983   2.927  11.974  0.2744  1.5481  1.3070
14852TIP3   OH265970   3.821   5.455  15.563  0.1969  0.1332 -0.7413
14852TIP3    H165971   3.818   5.551  15.557  0.2363  0.1172 -1.0354
14852TIP3    H265972   3.844   5.426  15.474 -1.9497 -0.2609 -1.2297
14853TIP3   OH265973   3.748   3.471   4.356  0.4276  0.2967  0.3353
14853TIP3    H165974   3.781   3.407   4.293  0.0848 -0.3877  0.8334
14853TIP3    H265975   3.787   3.554   4.329  2.6652 -0.4661  0.9347
14854TIP3   OH265976   5.427   2.424   0.478  0.2193 -0.7913  0.0605
14854TIP3    H165977   5.415   2.444   0.571  0.5352  0.0750 -0.0808
14854TIP3    H265978   5.429   2.328   0.475  2.8345 -0.8704  1.2949
14855TIP3   OH265979   6.363   0.493  16.243 -0.0097  0.0897  0.0719
14855TIP3    H165980   6.410   0.426  16.293 -0.1731  0.9894  1.5270
14855TIP3    H265981   6.428   0.562  16.231  0.3715 -0.5841 -2.0497
14856TIP3   OH265982   0.982   3.741  12.163  0.4630 -0.3529  0.1572
14856TIP3    H165983   0.899   3.788  12.160  1.2639  1.1159 -0.3191
14856TIP3    H265984   0.965   3.664  12.218 -0.8810  0.5435  1.0555
14857TIP3   OH265985   1.252   3.978  14.263 -0.1728  0.1240 -0.7220
14857TIP3    H165986   1.161   3.995  14.237 -0.4602  0.9482  0.6904
14857TIP3    H265987   1.245   3.934  14.348  0.7264  1.2694 -0.0183
14858TIP3   OH265988   2.930   2.072   2.742  0.0260 -0.2250  0.7322
14858TIP3    H165989   2.844   2.043   2.773  0.4274 -0.5265  1.6109
14858TIP3    H265990   2.986   2.068   2.820  0.7380  0.3628  0.2663
14859TIP3   OH265991   2.605   2.853   2.204  0.3799 -0.0598 -0.5392
14859TIP3    H165992   2.680   2.840   2.262 -0.3099 -2.0025 -0.0244
14859TIP3    H265993   2.610   2.782   2.141 -1.1234 -0.3416 -0.3859
14860TIP3   OH265994   1.589   5.896   2.132  0.3329  0.0764  0.6518
14860TIP3    H165995   1.529   5.971   2.125  1.2018  0.6627 -1.4127
14860TIP3    H265996   1.532   5.820   2.141 -0.8868  0.4656 -2.5723
14861TIP3   OH265997   2.891   2.777  12.339  0.3867  0.3232  0.4062
14861TIP3    H165998   2.860   2.855  12.293 -1.0885 -0.7839 -0.5643
14861TIP3    H265999   2.848   2.782  12.425 -0.2591  0.2298  0.0929
14862TIP3   OH266000   1.346   6.013   2.124 -0.3686 -0.3730 -0.6086
14862TIP3    H166001   1.349   6.107   2.143 -0.2083 -0.1979 -1.4476
14862TIP3    H266002   1.297   5.975   2.197  0.4819  0.2140  0.2900
14863TIP3   OH266003   1.421   6.414   1.004 -0.1472 -0.0544 -0.5756
14863TIP3    H166004   1.335   6.397   1.044  0.6519  0.3447  1.4535
14863TIP3    H266005   1.483   6.368   1.060  1.1658  1.5915 -0.5887
14864TIP3   OH266006   4.627   5.481   0.915 -0.3119 -0.4198 -0.2535
14864TIP3    H166007   4.576   5.534   0.855  0.5064  1.5451  0.6734
14864TIP3    H266008   4.716   5.483   0.879  0.8041  2.9538  2.1013
14865TIP3   OH266009   3.551   4.794  12.116  0.5958  0.2540  1.4629
14865TIP3    H166010   3.578   4.702  12.123 -1.1360 -0.4334  0.1000
14865TIP3    H266011   3.509   4.799  12.030 -0.8345  1.9338  2.2141
14866TIP3   OH266012   3.634   1.297  14.660  0.0164  0.3742  0.4424
14866TIP3    H166013   3.712   1.313  14.714  1.3833 -1.1589 -0.9466
14866TIP3    H266014   3.666   1.301  14.570 -1.3045 -1.2454 -0.1493
14867TIP3   OH266015   3.967   5.318   2.449  0.0532  0.5200 -0.2889
14867TIP3    H166016   4.001   5.244   2.500  2.4041  1.2414 -0.6644
14867TIP3    H266017   3.995   5.299   2.359 -0.3570  1.2791 -0.5796
14868TIP3   OH266018   3.029   5.271   5.901 -0.3388 -0.1458 -0.5439
14868TIP3    H166019   2.964   5.340   5.891 -0.7392 -0.6820 -1.9555
14868TIP3    H266020   2.983   5.201   5.948 -0.9132 -0.6442 -1.8048
14869TIP3   OH266021   4.007   1.359   3.860  0.4657 -0.0235  0.3046
14869TIP3    H166022   3.938   1.419   3.832  0.1851  0.3913  1.8392
14869TIP3    H266023   3.999   1.284   3.801  0.5408  1.2223 -1.3628
14870TIP3   OH266024   1.984   4.261  13.500  0.0170  0.0189  0.8458
14870TIP3    H166025   1.935   4.179  13.488 -0.2594  0.3351 -0.2718
14870TIP3    H266026   2.046   4.263  13.427 -1.5582  1.9158 -0.5447
14871TIP3   OH266027   1.686   2.581  15.093 -0.0344 -0.2390  0.3578
14871TIP3    H166028   1.781   2.572  15.094 -0.0548 -0.6539 -0.4382
14871TIP3    H266029   1.658   2.556  15.181  0.6987  1.2346  1.0428
14872TIP3   OH266030   1.089   5.873   5.957 -0.3166  0.4112  0.3974
14872TIP3    H166031   1.095   5.792   6.008 -0.0859  0.2766  0.1580
14872TIP3    H266032   0.996   5.884   5.941 -0.2994 -0.1391 -0.0968
14873TIP3   OH266033   3.747   4.024   6.517  0.2790 -0.2396 -0.4252
14873TIP3    H166034   3.666   4.051   6.475  1.4075  0.4633 -2.2421
14873TIP3    H266035   3.752   3.929   6.502 -0.1808 -0.2764 -0.3407
14874TIP3   OH266036   4.339   5.896  17.060  0.2205 -0.3611  0.1444
14874TIP3    H166037   4.358   5.978  17.107 -0.5819  0.6785 -1.2386
14874TIP3    H266038   4.243   5.894  17.054  0.2629 -1.0726 -0.3908
14875TIP3   OH266039   4.455   4.541   2.461  0.1291  0.1865 -0.1101
14875TIP3    H166040   4.421   4.455   2.436 -1.3360  0.8005 -0.3158
14875TIP3    H266041   4.458   4.590   2.380 -0.3486  0.7532  0.2063
14876TIP3   OH266042   0.510   1.159  11.972 -0.1820  0.1448 -0.4233
14876TIP3    H166043   0.431   1.199  12.007  0.1299  0.8890 -0.5424
14876TIP3    H266044   0.502   1.066  11.994 -0.0528  0.5523  1.5252
14877TIP3   OH266045   5.164   4.762   1.536  0.0577 -0.1297  0.3559
14877TIP3    H166046   5.090   4.807   1.496  0.1535 -0.7233 -0.5010
14877TIP3    H266047   5.154   4.671   1.510 -0.0533 -0.6111  1.9422
14878TIP3   OH266048   5.789   4.627   1.832  0.2492  0.4277 -0.4897
14878TIP3    H166049   5.709   4.579   1.852 -0.5280  1.9785  0.3281
14878TIP3    H266050   5.797   4.624   1.737 -1.6873  1.5822 -0.7323
14879TIP3   OH266051   5.637   0.378   4.126  0.5235 -0.0306  0.2490
14879TIP3    H166052   5.584   0.375   4.206 -1.4345 -0.8870 -1.0093
14879TIP3    H266053   5.696   0.303   4.133 -0.5315 -0.8805  0.3364
14880TIP3   OH266054   5.376   5.235   1.767 -0.3426  0.0503  0.1917
14880TIP3    H166055   5.446   5.170   1.768 -0.5793 -0.2433 -0.8971
14880TIP3    H266056   5.391   5.289   1.845  0.8587 -0.2468  0.1756
14881TIP3   OH266057   6.144   3.754  12.251 -0.3134  0.6895  0.2038
14881TIP3    H166058   6.084   3.803  12.194 -1.9370  0.3285  1.5220
14881TIP3    H266059   6.205   3.820  12.284 -0.6998  1.2980 -0.2764
14882TIP3   OH266060   2.377   6.311   3.371  0.3647  0.3088  0.4446
14882TIP3    H166061   2.409   6.223   3.391  0.0359  0.5118  2.0633
14882TIP3    H266062   2.319   6.300   3.296 -1.1595 -1.1851  1.7736
14883TIP3   OH266063   3.108   5.948   2.522  0.1236 -0.1073  0.2464
14883TIP3    H166064   3.100   6.017   2.456 -0.5119 -0.2541  0.1678
14883TIP3    H266065   3.189   5.902   2.499  1.0752  1.1896  0.8567
14884TIP3   OH266066   2.690   6.510  12.014  0.3014  0.0232 -0.4868
14884TIP3    H166067   2.650   6.586  12.057  1.2772 -0.1840  0.8491
14884TIP3    H266068   2.652   6.510  11.926 -0.6549  1.3271 -0.1136
14885TIP3   OH266069   6.775   0.649   2.304 -0.0633  0.3668  0.4333
14885TIP3    H166070   6.744   0.739   2.309 -1.6466 -0.1580  0.7064
14885TIP3    H266071   6.713   0.599   2.358 -0.5499 -1.2176 -1.4802
14886TIP3   OH266072   5.578   4.934   1.416 -0.2072  0.0152  0.6048
14886TIP3    H166073   5.637   4.913   1.489 -0.9656  0.3995  1.3507
14886TIP3    H266074   5.611   4.883   1.343 -0.3061 -1.5557  1.6119
14887TIP3   OH266075   4.215   5.671  11.788  0.0642  0.2934  0.0150
14887TIP3    H166076   4.285   5.668  11.853 -0.9689  0.9722  1.2150
14887TIP3    H266077   4.155   5.738  11.820 -1.3954 -0.6080 -0.6909
14888TIP3   OH266078   2.027   5.999  17.047  0.2729  0.3192 -0.0349
14888TIP3    H166079   1.938   5.969  17.027  0.2703  0.0403  0.3920
14888TIP3    H266080   2.042   6.072  16.986 -0.1957  0.2807 -0.1997
14889TIP3   OH266081   5.216   6.678   2.613  0.3830 -0.1167  0.6135
14889TIP3    H166082   5.245   6.613   2.678 -1.2808 -0.4571  1.0540
14889TIP3    H266083   5.178   6.749   2.665 -0.4531 -0.1323  0.0462
14890TIP3   OH266084   0.942   1.058   4.232 -0.2267 -0.6643  0.3098
14890TIP3    H166085   1.022   1.079   4.280  0.3588 -0.3278 -0.7768
14890TIP3    H266086   0.973   1.024   4.148 -1.1829  1.3040 -0.9251
14891TIP3   OH266087   4.007   3.330   2.099 -0.1501  0.6069 -0.0470
14891TIP3    H166088   3.927   3.279   2.105  0.9148 -0.9012  2.4940
14891TIP3    H266089   3.986   3.414   2.140 -1.0169  1.0930 -1.4310
14892TIP3   OH266090   1.839   1.755  14.822 -0.1180 -0.1774  0.4454
14892TIP3    H166091   1.842   1.844  14.855 -0.7280  0.0968 -0.1944
14892TIP3    H266092   1.927   1.738  14.787 -0.3093  0.5909 -0.4508
14893TIP3   OH266093   4.967   3.192  10.791  0.4624 -0.3809 -0.1076
14893TIP3    H166094   4.937   3.156  10.708  0.6443 -2.8232  0.8006
14893TIP3    H266095   4.894   3.179  10.851  0.1941  1.6800  0.1057
14894TIP3   OH266096   0.816   5.265   1.700  0.1236 -0.1366 -0.9554
14894TIP3    H166097   0.846   5.287   1.789  1.7837  1.6706 -1.8786
14894TIP3    H266098   0.814   5.169   1.699  0.9701 -0.2221  0.7454
14895TIP3   OH266099   5.867   2.702  12.432  0.5460  0.0262  0.1832
14895TIP3    H166100   5.903   2.614  12.443  1.7551  0.7982  3.5157
14895TIP3    H266101   5.777   2.696  12.464  0.4803 -0.0683 -0.0149
14896TIP3   OH266102   3.782   6.436  13.692 -0.0852 -0.0667  0.1343
14896TIP3    H166103   3.755   6.399  13.609 -0.7448  1.2000 -0.2443
14896TIP3    H266104   3.850   6.377  13.724  0.9955  0.0130 -1.8350
14897TIP3   OH266105   6.164   5.987   3.880 -0.0894  0.3330  0.1165
14897TIP3    H166106   6.210   5.975   3.797  0.6234  0.3986  0.5007
14897TIP3    H266107   6.072   5.998   3.854 -0.0613 -0.8693 -0.5873
14898TIP3   OH266108   0.333   3.434   2.003 -0.1261  0.0551  0.3094
14898TIP3    H166109   0.275   3.507   1.982 -2.1827 -1.4501  0.4190
14898TIP3    H266110   0.339   3.383   1.922  0.5872 -0.1104  0.4617
14899TIP3   OH266111   6.595   4.858   5.356 -0.0958 -0.2923  0.1100
14899TIP3    H166112   6.653   4.904   5.417 -0.6045  1.4376 -0.6511
14899TIP3    H266113   6.520   4.916   5.345 -1.0554 -1.5918 -0.4485
14900TIP3   OH266114   4.093   5.381  11.786 -0.6433  0.0631 -0.5664
14900TIP3    H166115   4.106   5.319  11.714 -1.8322 -0.4246 -0.3802
14900TIP3    H266116   4.108   5.467  11.746  1.0302 -0.3060 -0.8241
14901TIP3   OH266117   4.124   1.533  16.961  0.3708 -0.0794 -0.0409
14901TIP3    H166118   4.179   1.491  16.895  1.2942  0.1624  0.5535
14901TIP3    H266119   4.079   1.461  17.005  1.2604 -0.3906  0.3764
14902TIP3   OH266120   5.408   1.488   3.825  0.2142  0.3884  0.1172
14902TIP3    H166121   5.478   1.554   3.825 -0.2516  0.9018  0.9239
14902TIP3    H266122   5.327   1.540   3.817 -0.2154 -0.0027  1.6567
14903TIP3   OH266123   0.673   0.834   5.473 -0.4503 -0.1874  0.2654
14903TIP3    H166124   0.766   0.853   5.483 -0.7656  0.8887  1.3468
14903TIP3    H266125   0.640   0.905   5.417 -1.0337  0.7593  1.7527
14904TIP3   OH266126   0.923   2.654  16.423  0.1268  0.0452  0.0252
14904TIP3    H166127   0.942   2.692  16.337  2.7064 -2.1518 -0.5215
14904TIP3    H266128   0.991   2.691  16.480  0.2377 -0.7258  0.4018
14905TIP3   OH266129   0.617   1.120  14.980 -0.3329  0.5479  0.0629
14905TIP3    H166130   0.698   1.152  14.941 -0.1495 -0.1377 -0.1226
14905TIP3    H266131   0.590   1.048  14.924 -1.9448  1.7806 -0.8438
14906TIP3   OH266132   2.722   4.783  16.249 -0.2999 -0.1367  0.4138
14906TIP3    H166133   2.634   4.810  16.220  0.1464 -1.5064 -2.6177
14906TIP3    H266134   2.706   4.717  16.316 -1.4727  1.8702  2.2197
14907TIP3   OH266135   1.734   2.666  11.367  0.1835 -0.0998 -0.2268
14907TIP3    H166136   1.801   2.734  11.370 -0.0481  0.1066  0.5221
14907TIP3    H266137   1.664   2.698  11.424 -0.2293 -0.6522 -0.4121
14908TIP3   OH266138   3.300   1.865  12.833  0.3846 -0.3944 -0.4335
14908TIP3    H166139   3.377   1.908  12.870  0.3524 -0.3150 -0.4579
14908TIP3    H266140   3.306   1.881  12.739  0.0677  0.0570 -0.3838
14909TIP3   OH266141   0.278   4.023   3.079 -0.0262 -0.5100  0.2748
14909TIP3    H166142   0.272   4.035   2.984 -0.8529  0.2407  0.4094
14909TIP3    H266143   0.259   4.109   3.115  1.3236 -0.5395  1.1118
14910TIP3   OH266144   6.089   5.348   3.769  0.3559  0.2056 -0.0819
14910TIP3    H166145   6.160   5.347   3.833  0.6049  3.6401 -0.1366
14910TIP3    H266146   6.132   5.340   3.684  0.5600  0.7936 -0.0392
14911TIP3   OH266147   3.696   0.116  14.605 -0.3288 -0.1400 -0.1960
14911TIP3    H166148   3.607   0.082  14.591 -0.4047  0.3817 -1.1194
14911TIP3    H266149   3.682   0.202  14.647 -0.2823  0.0735 -0.6107
14912TIP3   OH266150   3.910   0.144  14.097  0.2367 -0.3382  0.6014
14912TIP3    H166151   3.913   0.132  14.192 -0.2719 -0.7289  0.5772
14912TIP3    H266152   3.846   0.213  14.084  0.8319  0.2131  0.5752
14913TIP3   OH266153   1.933   5.479  11.536 -0.3039 -0.7769  0.2078
14913TIP3    H166154   1.914   5.570  11.513  0.3558 -1.0613 -1.6462
14913TIP3    H266155   1.861   5.452  11.593 -1.5377  0.3225 -0.7925
14914TIP3   OH266156   0.085   5.991  11.030 -0.3023  0.3744 -0.4774
14914TIP3    H166157   0.003   5.990  10.980  1.1043 -0.0612 -2.9828
14914TIP3    H266158   0.128   5.908  11.006  0.4619  0.1187  1.5788
14915TIP3   OH266159   1.886   0.375  14.160  0.1980 -0.5565 -0.2056
14915TIP3    H166160   1.847   0.419  14.235 -2.2097 -0.4954 -1.4055
14915TIP3    H266161   1.818   0.315  14.129  0.8664 -0.1552 -2.6746
14916TIP3   OH266162   6.017   1.315  13.717 -0.7114  0.3297 -0.2112
14916TIP3    H166163   6.057   1.233  13.748  0.4671  1.1223  0.4732
14916TIP3    H266164   5.933   1.288  13.680 -0.5939 -1.1273  0.4768
14917TIP3   OH266165   5.259   2.437  11.417 -0.1840  0.2603 -0.7789
14917TIP3    H166166   5.248   2.532  11.414  0.1377  0.2831 -2.1759
14917TIP3    H266167   5.212   2.405  11.340  0.5396 -0.6122 -0.8776
14918TIP3   OH266168   0.884   1.071  16.784  0.6074  0.7968  0.9101
14918TIP3    H166169   0.817   1.133  16.813 -2.0818 -0.7264 -1.5530
14918TIP3    H266170   0.864   0.990  16.830 -2.0739 -0.8732 -2.7365
14919TIP3   OH266171   4.944   4.283   6.280  0.6129 -0.0049  0.0086
14919TIP3    H166172   4.869   4.226   6.265  0.2542  0.4399  0.0904
14919TIP3    H266173   4.907   4.361   6.320  1.3024 -0.4315  1.5898
14920TIP3   OH266174   5.292   4.625  15.156 -0.3288 -1.0775  0.0561
14920TIP3    H166175   5.259   4.535  15.157 -0.1055 -1.2262 -1.7835
14920TIP3    H266176   5.374   4.619  15.107  0.7932 -0.1897  1.7534
14921TIP3   OH266177   4.665   0.333   2.959 -0.2330  0.1689  0.2686
14921TIP3    H166178   4.576   0.367   2.945  0.2602  1.8221  0.8796
14921TIP3    H266179   4.652   0.248   3.001 -1.5320  0.9911  1.6425
14922TIP3   OH266180   4.950   0.800  14.413  0.7639 -0.1984  0.8700
14922TIP3    H166181   4.936   0.806  14.318  0.2581 -2.4137  0.7474
14922TIP3    H266182   4.917   0.884  14.447 -0.2082  0.1505 -0.7869
14923TIP3   OH266183   3.434   1.448  15.836 -0.2972  0.2442  0.1922
14923TIP3    H166184   3.492   1.400  15.777  1.4901  0.5699  1.5901
14923TIP3    H266185   3.379   1.380  15.876  1.0488 -0.4810  0.8860
14924TIP3   OH266186   2.054   6.174   1.243  0.3225 -0.2287 -0.0736
14924TIP3    H166187   2.049   6.267   1.262 -0.5835 -0.0877 -0.8783
14924TIP3    H266188   1.997   6.133   1.308  1.1888 -0.2907  0.6542
14925TIP3   OH266189   5.411   1.489   2.598  0.1024 -0.2148  0.5469
14925TIP3    H166190   5.456   1.502   2.514  0.4235  0.0022  0.7472
14925TIP3    H266191   5.328   1.535   2.588  0.7762  1.1286  0.8681
14926TIP3   OH266192   6.059   5.590  12.712 -0.0565  0.4769 -0.1917
14926TIP3    H166193   6.103   5.536  12.777 -1.7423  1.0309  1.5094
14926TIP3    H266194   5.998   5.530  12.668  0.7357  0.2087 -0.9436
14927TIP3   OH266195   4.658   2.487   4.889  0.0436 -0.2969 -0.1431
14927TIP3    H166196   4.583   2.430   4.873 -1.8547  1.4012  2.0847
14927TIP3    H266197   4.666   2.491   4.984  2.0174  0.7980 -0.2869
14928TIP3   OH266198   3.408   6.645  16.705 -0.1387 -0.4144  0.1981
14928TIP3    H166199   3.389   6.736  16.679 -0.7090  0.3106  2.8155
14928TIP3    H266200   3.497   6.648  16.740 -0.4872 -0.6084  1.1459
14929TIP3   OH266201   2.574   2.686   1.984 -0.1436 -0.0206  0.4091
14929TIP3    H166202   2.664   2.652   1.986 -0.0461  0.1493 -0.6293
14929TIP3    H266203   2.557   2.703   1.892 -0.6739  1.4987  0.7606
14930TIP3   OH266204   2.064   3.883   3.810  0.4475 -0.5846  0.0288
14930TIP3    H166205   2.087   3.804   3.858  0.2876 -1.8503 -1.9055
14930TIP3    H266206   2.146   3.932   3.804  0.4156 -0.2314  1.7883
14931TIP3   OH266207   3.427   6.432   4.090  0.1759 -0.1759 -0.3697
14931TIP3    H166208   3.397   6.405   4.177  0.9748 -0.6944 -0.2484
14931TIP3    H266209   3.372   6.382   4.030  0.7112 -1.0593 -0.1468
14932TIP3   OH266210   5.799   2.716  14.037 -0.2927 -0.2282  0.3704
14932TIP3    H166211   5.803   2.624  14.062 -1.6718 -0.0258  1.4584
14932TIP3    H266212   5.709   2.742  14.056 -0.6461  0.7252 -2.1870
14933TIP3   OH266213   6.081   3.654  16.036  0.3026 -0.3716  0.0408
14933TIP3    H166214   6.044   3.672  16.122  0.6272  0.4945  0.0078
14933TIP3    H266215   6.019   3.592  15.996 -2.0299  2.1974 -0.6283
14934TIP3   OH266216   4.840   0.959  12.889  0.4305  0.0468  0.0155
14934TIP3    H166217   4.826   0.989  12.979  0.0772 -1.3916  0.4775
14934TIP3    H266218   4.759   0.913  12.866  1.1557 -1.0709 -0.3951
14935TIP3   OH266219   5.358   1.966   3.851 -0.2557 -0.3863 -0.7247
14935TIP3    H166220   5.361   1.912   3.930  0.5414 -0.1652 -0.5917
14935TIP3    H266221   5.301   1.919   3.791 -2.4768  0.3830  0.6567
14936TIP3   OH266222   1.622   4.615  13.376  0.0144 -0.1666 -0.0789
14936TIP3    H166223   1.705   4.663  13.368  1.2037 -1.7121  1.8758
14936TIP3    H266224   1.638   4.532  13.330 -1.3764  0.4659 -1.8319
14937TIP3   OH266225   6.442   0.973   1.596  0.4690  0.0540  0.2749
14937TIP3    H166226   6.459   1.064   1.620  1.0177 -0.4074  1.7030
14937TIP3    H266227   6.518   0.948   1.542 -0.0189  0.6260 -0.7105
14938TIP3   OH266228   4.421   6.590   5.370 -0.6667 -0.2637 -0.3355
14938TIP3    H166229   4.452   6.500   5.374 -0.2391 -0.0734  1.1837
14938TIP3    H266230   4.358   6.591   5.297  0.5856 -1.3605 -1.4885
14939TIP3   OH266231   4.596   6.360   2.370  0.5649  0.5811  0.1175
14939TIP3    H166232   4.642   6.317   2.442 -0.9746 -1.7972 -0.2051
14939TIP3    H266233   4.504   6.336   2.383  0.1916  0.3955 -2.4098
14940TIP3   OH266234   1.559   0.414   3.638  0.4128  0.0623  0.3434
14940TIP3    H166235   1.624   0.344   3.630 -1.4961 -1.7108 -0.4087
14940TIP3    H266236   1.475   0.369   3.644 -1.1319  2.3057 -2.3023
14941TIP3   OH266237   1.491   2.469  11.620 -0.1102  0.5309  0.3106
14941TIP3    H166238   1.396   2.476  11.623 -0.0629  1.2049  0.3382
14941TIP3    H266239   1.520   2.551  11.581  0.4773  0.4529  0.5716
14942TIP3   OH266240   5.554   3.952  16.119  0.1656 -0.1058  0.2643
14942TIP3    H166241   5.600   3.916  16.043  0.7600 -0.8871  0.9879
14942TIP3    H266242   5.593   3.909  16.194 -0.8789  0.1678  0.9864
14943TIP3   OH266243   0.492   6.704  14.566 -0.1971  0.2649 -0.6312
14943TIP3    H166244   0.548   6.753  14.505 -1.0122  0.9209 -0.8793
14943TIP3    H266245   0.549   6.685  14.641  0.5786  0.2038 -1.2185
14944TIP3   OH266246   2.953   1.533   3.254 -0.2913 -0.3653 -0.2127
14944TIP3    H166247   2.860   1.518   3.235 -0.0124 -2.3460 -0.2716
14944TIP3    H266248   2.962   1.510   3.347  0.1531 -0.2352 -0.2231
14945TIP3   OH266249   4.063   0.838   3.706  0.4590 -0.6637 -0.3230
14945TIP3    H166250   3.986   0.815   3.757  1.3038  0.1573  1.3955
14945TIP3    H266251   4.137   0.822   3.764  1.4641  0.4148 -1.2413
14946TIP3   OH266252   3.335   4.559   1.889  0.1836 -0.0272 -0.0879
14946TIP3    H166253   3.264   4.530   1.945 -0.3720  1.7800  0.2077
14946TIP3    H266254   3.413   4.518   1.926 -0.4361 -0.4150  0.8194
14947TIP3   OH266255   6.489   0.251   4.177 -0.0417 -0.7399  0.3258
14947TIP3    H166256   6.482   0.301   4.259  0.2075 -0.7022  0.3264
14947TIP3    H266257   6.451   0.308   4.111  0.0736 -0.6237  0.3579
14948TIP3   OH266258   2.857   2.982  15.518 -0.1591  0.2629 -0.2834
14948TIP3    H166259   2.903   2.992  15.601  0.0303  1.4142 -0.5134
14948TIP3    H266260   2.798   2.907  15.532  2.3309 -1.8103 -0.2468
14949TIP3   OH266261   5.140   1.576   2.582  0.1187 -0.2737 -0.1707
14949TIP3    H166262   5.139   1.543   2.672  0.3514  1.1439  0.3824
14949TIP3    H266263   5.095   1.509   2.531  0.9189 -1.6051  0.8140
14950TIP3   OH266264   5.625   4.270  15.263 -0.4140 -0.5422 -0.2164
14950TIP3    H166265   5.540   4.236  15.235 -1.1071 -0.2775  1.4307
14950TIP3    H266266   5.666   4.196  15.308  0.6439 -0.9454 -1.7964
14951TIP3   OH266267   0.980   1.745  16.078  0.2066 -0.2688  0.0216
14951TIP3    H166268   1.006   1.802  16.005  0.0126  0.6984  0.6804
14951TIP3    H266269   0.887   1.728  16.063  0.5992 -1.6580 -0.9762
14952TIP3   OH266270   0.646   1.885  15.159 -0.2153 -0.4182  0.1540
14952TIP3    H166271   0.740   1.902  15.171 -0.3074 -0.1229  0.4863
14952TIP3    H266272   0.612   1.876  15.248 -0.8594  1.4946  0.1495
14953TIP3   OH266273   3.591   2.684  13.295  0.4037 -0.0074  0.1970
14953TIP3    H166274   3.547   2.767  13.276  0.2688 -0.2305 -0.5054
14953TIP3    H266275   3.640   2.700  13.376 -0.2650  0.5104  0.5093
14954TIP3   OH266276   3.505   1.729   0.111  0.4385  0.0244 -0.3894
14954TIP3    H166277   3.586   1.777   0.099  0.8034 -0.5913 -0.4246
14954TIP3    H266278   3.532   1.641   0.137 -0.2489  0.4908  2.2202
14955TIP3   OH266279   4.821   1.547   0.066 -0.2933 -0.1922  0.7920
14955TIP3    H166280   4.894   1.608   0.073 -0.3574 -0.2188  1.9032
14955TIP3    H266281   4.745   1.603   0.045 -0.0122 -0.1381 -0.1218
14956TIP3   OH266282   5.203   3.804   0.486 -0.2944  0.6298 -0.2480
14956TIP3    H166283   5.127   3.860   0.467 -0.7620  0.2193  0.3529
14956TIP3    H266284   5.187   3.724   0.435 -0.0018  0.7472 -0.5252
14957TIP3   OH266285   6.000   3.897   5.102  0.1717  0.3060 -0.2924
14957TIP3    H166286   5.986   3.894   5.008  0.9587  2.7464 -0.5580
14957TIP3    H266287   5.921   3.938   5.138 -0.2216 -0.8125  0.1626
14958TIP3   OH266288   2.964   0.788  17.065  0.4559 -0.4662  0.6244
14958TIP3    H166289   2.891   0.729  17.046  0.4015 -0.4204  0.6861
14958TIP3    H266290   3.039   0.749  17.022  0.1906  0.0229 -0.3146
14959TIP3   OH266291   6.704   6.529   2.709 -0.7230  0.9219 -0.3700
14959TIP3    H166292   6.684   6.437   2.726  0.0184  1.0709  1.5291
14959TIP3    H266293   6.644   6.555   2.640 -1.3848 -0.8187 -0.4695
14960TIP3   OH266294   5.763   4.834   1.590 -0.5904  0.0097 -0.2280
14960TIP3    H166295   5.786   4.870   1.675  1.8427  1.8487 -1.5153
14960TIP3    H266296   5.805   4.748   1.588  1.1714  0.8247 -0.2697
14961TIP3   OH266297   0.070   2.855  13.221  0.1870 -0.1599 -0.0836
14961TIP3    H166298   0.010   2.826  13.153 -2.2437  0.6525  1.6135
14961TIP3    H266299   0.090   2.946  13.199 -0.8569  0.2042  0.4218
14962TIP3   OH266300   2.606   3.458  16.525  0.2892  0.0768 -0.5353
14962TIP3    H166301   2.688   3.423  16.560 -0.6998 -1.3440  0.5052
14962TIP3    H266302   2.627   3.486  16.437  1.7422 -0.9014 -0.5252
14963TIP3   OH266303   3.957   3.285   5.446  0.3978 -0.4095  0.3882
14963TIP3    H166304   3.939   3.203   5.400 -0.8002 -0.2709  0.5629
14963TIP3    H266305   3.965   3.260   5.538 -1.8536 -0.1492  0.7165
14964TIP3   OH266306   3.713   5.901   5.783 -0.3803  0.1776 -0.1295
14964TIP3    H166307   3.725   5.809   5.809 -0.9791  0.0299 -0.3438
14964TIP3    H266308   3.791   5.946   5.815 -0.1687 -0.3737  0.1445
14965TIP3   OH266309   6.294   3.304   4.024 -0.2470 -0.5576  0.2342
14965TIP3    H166310   6.298   3.328   3.931 -2.6680  0.0653  0.2301
14965TIP3    H266311   6.235   3.229   4.026 -2.4170  1.0880  1.4931
14966TIP3   OH266312   2.917   0.855   3.299 -0.3728  0.4112 -0.3310
14966TIP3    H166313   2.974   0.931   3.308  0.5129 -0.4203  2.1082
14966TIP3    H266314   2.850   0.867   3.366  1.3671 -2.1046  2.1187
14967TIP3   OH266315   5.795   0.158   1.489  0.5118 -0.4614 -0.6480
14967TIP3    H166316   5.752   0.175   1.405  0.8796  0.3554 -0.6779
14967TIP3    H266317   5.759   0.222   1.549  0.5927 -0.7414 -0.2935
14968TIP3   OH266318   5.779   1.655  14.806 -0.7138  0.8910  0.2134
14968TIP3    H166319   5.737   1.582  14.851  2.5036 -0.1260  1.8879
14968TIP3    H266320   5.807   1.619  14.722 -1.2852  0.9494 -0.0056
14969TIP3   OH266321   5.799   1.740   3.083 -0.0785  0.1683  0.3436
14969TIP3    H166322   5.839   1.702   3.161 -1.0450 -0.9470  0.3195
14969TIP3    H266323   5.708   1.757   3.108 -0.0346  1.1684 -0.1001
14970TIP3   OH266324   5.425   3.467  13.452  0.5938  0.0897  0.7407
14970TIP3    H166325   5.373   3.531  13.404 -0.0667 -0.2117  1.0263
14970TIP3    H266326   5.436   3.505  13.539  2.5386  1.0324  0.1229
14971TIP3   OH266327   4.971   0.699  17.063 -0.1699 -0.1335  0.1781
14971TIP3    H166328   4.997   0.688  16.971  0.9631 -0.6646  0.5314
14971TIP3    H266329   4.894   0.755  17.060 -0.2533 -0.2774 -1.1086
14972TIP3   OH266330   1.330   3.093   5.718  0.0420 -0.1790  0.0507
14972TIP3    H166331   1.379   3.141   5.784 -0.5831 -1.3310  1.3983
14972TIP3    H266332   1.393   3.032   5.681  0.5338  0.8299 -0.8471
14973TIP3   OH266333   3.117   5.001   0.904  0.2576  0.5552  1.0178
14973TIP3    H166334   3.139   4.921   0.952 -1.8359 -0.4138  0.5146
14973TIP3    H266335   3.178   5.067   0.936  3.9984 -1.8528 -0.5355
14974TIP3   OH266336   6.221   2.601  13.293 -0.4297 -0.2941  0.0382
14974TIP3    H166337   6.169   2.590  13.373 -0.3621 -1.7185 -0.0954
14974TIP3    H266338   6.310   2.615  13.324 -0.5952  0.3647  0.2298
14975TIP3   OH266339   5.064   1.701  12.695 -0.3018 -0.4020 -0.2062
14975TIP3    H166340   5.060   1.732  12.786  0.8063  0.8230 -0.5367
14975TIP3    H266341   4.995   1.635  12.689 -1.4064  0.5729  1.1195
14976TIP3   OH266342   2.084   6.012  11.280  0.2732 -0.4148 -0.1489
14976TIP3    H166343   2.031   5.942  11.319 -1.2158  0.0973 -1.1925
14976TIP3    H266344   2.079   6.083  11.343  0.8085 -0.8127  0.3569
14977TIP3   OH266345   2.968   2.121   5.227 -0.0450  0.0747  0.0319
14977TIP3    H166346   3.058   2.121   5.194  0.3407  1.7650  0.9487
14977TIP3    H266347   2.965   2.046   5.286  0.5447 -0.4228 -0.5565
14978TIP3   OH266348   1.539   6.705   4.194  0.5848 -0.1295 -0.0918
14978TIP3    H166349   1.484   6.772   4.235  1.7914  0.6838  0.2711
14978TIP3    H266350   1.553   6.737   4.105  1.0323  0.0361  0.0338
14979TIP3   OH266351   2.547   6.465  11.745 -0.1288  0.2951  0.1141
14979TIP3    H166352   2.629   6.440  11.703  0.4908  2.2013  0.1127
14979TIP3    H266353   2.512   6.383  11.781  1.8589 -0.5082  0.2947
14980TIP3   OH266354   1.544   2.771  13.196 -0.1051  0.2954  0.1242
14980TIP3    H166355   1.541   2.730  13.282 -3.4508  0.1908  0.1021
14980TIP3    H266356   1.625   2.821  13.196  0.8583 -1.0888  2.6437
14981TIP3   OH266357   2.821   6.668   1.304 -0.3950 -0.2171  0.1168
14981TIP3    H166358   2.887   6.612   1.344  1.0407  0.3722 -1.2976
14981TIP3    H266359   2.871   6.740   1.265 -1.9879  0.8788  0.0057
14982TIP3   OH266360   0.633   1.458   5.459 -0.2855  0.5268  0.5071
14982TIP3    H166361   0.721   1.467   5.425 -0.9561 -0.1901 -1.5374
14982TIP3    H266362   0.596   1.382   5.413 -1.6571  0.2198  2.0080
14983TIP3   OH266363   4.836   6.423  15.702 -0.0735  0.3787 -0.2444
14983TIP3    H166364   4.768   6.490  15.697  0.1888  0.8600  1.6713
14983TIP3    H266365   4.899   6.447  15.634  0.5186  2.7392  1.0154
14984TIP3   OH266366   3.592   4.311   5.752 -0.2961 -0.4003 -0.8196
14984TIP3    H166367   3.620   4.397   5.720 -1.4111 -0.3120 -1.6157
14984TIP3    H266368   3.497   4.315   5.751 -0.3804 -1.8712 -1.4971
14985TIP3   OH266369   2.649   5.647  11.500  0.1396  0.2126  0.2558
14985TIP3    H166370   2.729   5.663  11.550  0.0220 -1.1766  0.9211
14985TIP3    H266371   2.579   5.644  11.566 -0.2658  0.0762 -0.1755
14986TIP3   OH266372   0.818   4.287   6.280 -0.1997  0.1626  0.8449
14986TIP3    H166373   0.879   4.360   6.293 -0.8283  0.6352  1.2342
14986TIP3    H266374   0.853   4.239   6.205  2.0693 -1.0877  2.5947
14987TIP3   OH266375   0.504   2.183  11.892 -0.1513 -0.1709  0.0280
14987TIP3    H166376   0.542   2.270  11.884 -0.8219  0.0046 -1.6589
14987TIP3    H266377   0.410   2.196  11.880 -0.5724 -0.8520  2.1954
14988TIP3   OH266378   4.983   2.119  15.800  0.5583 -0.5740  0.4685
14988TIP3    H166379   4.943   2.201  15.772 -0.5126 -1.3828 -0.4846
14988TIP3    H266380   4.910   2.058  15.806  1.2847 -1.3678  1.5301
14989TIP3   OH266381   2.573   3.034   1.759 -0.2833  0.5549  0.9481
14989TIP3    H166382   2.607   3.020   1.848 -0.2027 -0.3721  0.7817
14989TIP3    H266383   2.562   3.128   1.753 -0.6102  0.6051  2.0633
14990TIP3   OH266384   6.780   2.832   6.000  0.0785 -0.4452 -0.3155
14990TIP3    H166385   6.758   2.875   5.917  1.1314 -0.8007 -0.7973
14990TIP3    H266386   6.875   2.819   5.995  0.8309  2.7593  2.4567
14991TIP3   OH266387   4.270   2.966   3.297  0.0294 -0.0856 -0.6465
14991TIP3    H166388   4.200   2.956   3.363  1.0207 -1.4059  0.2550
14991TIP3    H266389   4.343   3.003   3.345  0.5581 -0.4455 -1.1640
14992TIP3   OH266390   1.735   5.863  12.172  0.0238 -0.3295 -0.8271
14992TIP3    H166391   1.810   5.837  12.118 -0.2098 -0.3607 -1.1396
14992TIP3    H266392   1.758   5.950  12.206 -0.5016  0.4090 -2.2836
14993TIP3   OH266393   2.193   2.961  16.078 -0.6869  0.0173 -0.6532
14993TIP3    H166394   2.164   2.875  16.048 -0.6701  0.1731 -1.1267
14993TIP3    H266395   2.113   3.013  16.083 -0.5245  0.4204 -1.8699
14994TIP3   OH266396   5.575   4.907   2.530 -0.7315 -0.2276 -0.1799
14994TIP3    H166397   5.608   4.825   2.491  2.9097  0.5600  0.8858
14994TIP3    H266398   5.563   4.965   2.455 -0.6825 -0.9077 -0.7263
14995TIP3   OH266399   5.361   1.191  12.095 -0.5150  0.1053  0.1123
14995TIP3    H166400   5.317   1.124  12.043  0.0718 -1.7089  1.8413
14995TIP3    H266401   5.290   1.247  12.127 -1.0875 -0.0863 -0.7993
14996TIP3   OH266402   2.657   6.240  13.858  0.0809 -0.4871  0.0888
14996TIP3    H166403   2.580   6.292  13.882 -0.4660 -1.1750 -0.1492
14996TIP3    H266404   2.621   6.159  13.822  0.8731 -2.2416  2.9274
14997TIP3   OH266405   4.462   3.431   3.676 -0.3624  0.1380  0.4057
14997TIP3    H166406   4.475   3.457   3.584 -0.0919 -1.2981  0.0200
14997TIP3    H266407   4.370   3.454   3.694 -0.9818 -1.2185 -0.8163
14998TIP3   OH266408   1.261   5.704  12.933  0.3151  0.1800 -0.0813
14998TIP3    H166409   1.314   5.775  12.897 -0.9513  0.5175 -1.3833
14998TIP3    H266410   1.173   5.742  12.942  0.0202 -0.6908  0.9399
14999TIP3   OH266411   6.525   2.275  14.668 -0.1168  0.1439 -0.7622
14999TIP3    H166412   6.587   2.291  14.739 -0.1777 -0.5616 -0.5408
14999TIP3    H266413   6.441   2.264  14.712 -0.1976 -0.0419 -0.9618
15000TIP3   OH266414   5.297   2.742  14.468 -0.6447  0.0390  0.4680
15000TIP3    H166415   5.261   2.815  14.417  0.9383  0.3901 -0.2125
15000TIP3    H266416   5.290   2.667  14.409  1.6130  0.5367 -0.5428
15001TIP3   OH266417   6.452   1.725   2.005  0.0779  0.5311  0.5549
15001TIP3    H166418   6.472   1.681   1.922  0.0301  0.9129  0.3417
15001TIP3    H266419   6.506   1.804   2.004 -0.2369  0.7483  0.6999
15002TIP3   OH266420   1.939   1.196  14.675 -0.2683 -0.6940 -0.7720
15002TIP3    H166421   1.949   1.285  14.641 -0.9706 -0.5046 -0.5120
15002TIP3    H266422   1.884   1.152  14.610 -0.3738 -0.7690 -0.6333
15003TIP3   OH266423   5.405   6.483  14.939 -0.3119 -0.2379  0.2043
15003TIP3    H166424   5.420   6.574  14.912  0.6615  0.2206  2.0816
15003TIP3    H266425   5.394   6.488  15.034 -0.2773 -2.0945  0.3447
15004TIP3   OH266426   3.865   0.769   1.277  0.3175 -0.1703 -0.3868
15004TIP3    H166427   3.899   0.704   1.339  1.0807  0.7227  0.1580
15004TIP3    H266428   3.924   0.844   1.286 -1.3647  1.1667  0.0669
15005TIP3   OH266429   0.915   5.218  14.564  0.2046  0.1962  0.1899
15005TIP3    H166430   0.887   5.295  14.614  1.3014  0.0846  1.0279
15005TIP3    H266431   0.880   5.232  14.476 -0.4352  1.1772  0.5826
15006TIP3   OH266432   3.809   5.008   6.084 -0.5539 -0.1070 -0.1112
15006TIP3    H166433   3.774   4.921   6.099 -0.5137 -0.1929 -0.5057
15006TIP3    H266434   3.732   5.064   6.072 -0.6190  0.1448  1.3427
15007TIP3   OH266435   3.565   4.846  15.107  0.4200 -0.2355 -0.1371
15007TIP3    H166436   3.574   4.793  15.028  1.5717  0.4894 -0.5079
15007TIP3    H266437   3.638   4.907  15.105 -1.1823  1.8156 -0.0429
15008TIP3   OH266438   0.862   4.700  16.808 -0.6093 -0.0414  0.4038
15008TIP3    H166439   0.954   4.699  16.784 -0.9016  1.0447 -0.8623
15008TIP3    H266440   0.855   4.768  16.875  0.0233 -2.3785  3.0751
15009TIP3   OH266441   1.560   2.708   4.437 -0.1608  0.4297 -0.4533
15009TIP3    H166442   1.531   2.618   4.454  2.1642 -0.3565 -0.2036
15009TIP3    H266443   1.518   2.732   4.354 -1.3474 -0.6156 -0.1838
15010TIP3   OH266444   3.386   6.393  14.036 -0.0710 -0.7472  0.4115
15010TIP3    H166445   3.406   6.368  13.946  0.3311 -3.7523  1.2292
15010TIP3    H266446   3.308   6.449  14.029  2.0656  2.2694 -1.9976
15011TIP3   OH266447   3.413   1.096  13.113 -0.2718 -0.0540  0.2262
15011TIP3    H166448   3.401   1.010  13.152  0.3482 -0.4519 -0.4300
15011TIP3    H266449   3.339   1.106  13.054  0.1623 -0.5685 -0.4256
15012TIP3   OH266450   1.339   5.178  12.019 -0.2541  0.1160 -0.6123
15012TIP3    H166451   1.292   5.146  12.096  0.0207  2.3408  0.5644
15012TIP3    H266452   1.431   5.182  12.047  0.1557 -0.8634 -1.7289
15013TIP3   OH266453   3.339   0.287   2.567 -0.3792  0.4336 -0.0500
15013TIP3    H166454   3.333   0.355   2.634 -0.5626  0.5133 -0.1486
15013TIP3    H266455   3.397   0.324   2.501  1.6066 -0.4855  1.0840
15014TIP3   OH266456   5.038   1.353  15.194  0.7070  0.4265 -0.1673
15014TIP3    H166457   4.954   1.331  15.236  1.5311 -1.2798  0.6671
15014TIP3    H266458   5.037   1.448  15.188  0.0835  0.7154  2.8573
15015TIP3   OH266459   4.824   5.843   5.543  0.1493 -0.0605 -0.1460
15015TIP3    H166460   4.874   5.763   5.526 -0.3859 -0.3994 -0.1633
15015TIP3    H266461   4.809   5.881   5.457  2.3390  1.2773  0.0150
15016TIP3   OH266462   3.817   2.248   2.303  0.6256 -0.0551  0.2822
15016TIP3    H166463   3.911   2.236   2.291  0.8765  1.8759 -0.0135
15016TIP3    H266464   3.803   2.238   2.397  1.1184 -0.3641  0.3231
15017TIP3   OH266465   3.322   2.641  15.128  0.8582 -0.1474 -0.8015
15017TIP3    H166466   3.398   2.593  15.160  2.0764 -0.1024 -3.3874
15017TIP3    H266467   3.257   2.574  15.109  0.4289 -0.2359  0.8335
15018TIP3   OH266468   3.363   4.145   6.205  0.1251  0.1234  0.2073
15018TIP3    H166469   3.314   4.174   6.282  1.8975  1.5178  0.8540
15018TIP3    H266470   3.302   4.160   6.132 -0.2155  2.5222  0.8929
15019TIP3   OH266471   4.613   6.073  14.396 -0.3036  0.2443  0.3973
15019TIP3    H166472   4.550   6.005  14.417  0.3633 -0.4632  0.1592
15019TIP3    H266473   4.660   6.039  14.319 -1.6928  2.0952 -1.3669
15020TIP3   OH266474   1.925   0.831  15.894 -0.2626 -0.0858  0.0094
15020TIP3    H166475   2.013   0.864  15.916  0.0183 -0.3279 -0.7053
15020TIP3    H266476   1.874   0.910  15.877 -0.1303  0.0508  0.2401
15021TIP3   OH266477   0.996   6.144  12.927  1.0523  0.2657  0.1392
15021TIP3    H166478   0.919   6.161  12.981 -1.0374 -1.3972 -2.1206
15021TIP3    H266479   0.998   6.217  12.864  1.0584  0.0565 -0.1041
15022TIP3   OH266480   1.393   1.309  17.059 -0.0341  0.2742 -0.7333
15022TIP3    H166481   1.303   1.300  17.025 -0.6402 -1.9474  1.1984
15022TIP3    H266482   1.425   1.219  17.065  2.1612  0.9919 -0.8357
15023TIP3   OH266483   2.256   4.227   5.601  0.9734  0.1126 -0.1067
15023TIP3    H166484   2.181   4.168   5.611  2.0865 -1.0730  1.9913
15023TIP3    H266485   2.225   4.311   5.635  0.8385 -0.6353  1.7355
15024TIP3   OH266486   0.792   2.575  13.501 -0.0111 -0.4177 -0.0449
15024TIP3    H166487   0.780   2.503  13.562 -0.2853 -2.2136 -2.1283
15024TIP3    H266488   0.706   2.590  13.464  0.1711  0.5843 -0.1046
15025TIP3   OH266489   5.405   5.039  14.785 -0.7480 -0.0591  0.2507
15025TIP3    H166490   5.478   5.070  14.732 -0.3744  1.3193  1.5092
15025TIP3    H266491   5.374   4.960  14.740  0.3677  0.3362 -1.2721
15026TIP3   OH266492   4.539   4.598   1.410 -0.0917  0.0873  0.2123
15026TIP3    H166493   4.533   4.584   1.505 -2.4032  0.6410  0.2125
15026TIP3    H266494   4.537   4.693   1.400  2.4231  0.1566 -0.3565
15027TIP3   OH266495   4.231   6.531  16.845  0.7268  0.0066 -0.3562
15027TIP3    H166496   4.141   6.561  16.833  0.5054 -0.0583  1.0197
15027TIP3    H266497   4.224   6.457  16.904  1.5902 -0.7564 -1.1740
15028TIP3   OH266498   0.368   4.926  16.369 -0.2617 -0.4787  0.3116
15028TIP3    H166499   0.441   4.962  16.318 -0.4189  2.8797  2.1636
15028TIP3    H266500   0.407   4.852  16.416  1.2829 -0.3179 -0.6354
15029TIP3   OH266501   1.467   0.426  15.888 -0.2639 -0.1683 -0.8406
15029TIP3    H166502   1.454   0.347  15.940 -0.9622  1.8832  2.3744
15029TIP3    H266503   1.379   0.463  15.878  0.0677  0.3241 -2.1201
15030TIP3   OH266504   3.451   3.987  15.804  0.5214  0.4675  0.2921
15030TIP3    H166505   3.395   3.921  15.762 -2.2672  2.0032  1.3320
15030TIP3    H266506   3.477   3.947  15.887  2.0686 -0.7203 -0.7055
15031TIP3   OH266507   4.105   3.938  14.611 -1.1288 -0.1109  0.1719
15031TIP3    H166508   4.111   3.858  14.558 -0.2927  0.6575 -0.9422
15031TIP3    H266509   4.144   4.006  14.555 -1.6197  1.0265  1.1901
15032TIP3   OH266510   1.002   5.398   1.542 -0.2054 -0.1264  0.1499
15032TIP3    H166511   0.946   5.355   1.607  0.7914 -0.4670  0.8049
15032TIP3    H266512   0.966   5.486   1.534 -0.5215 -0.1743  0.9409
15033TIP3   OH266513   2.244   1.521   0.189  0.0832  0.4379  0.5167
15033TIP3    H166514   2.288   1.452   0.137  0.8354  0.9048  0.5121
15033TIP3    H266515   2.316   1.573   0.224 -0.4940  1.7781 -0.2243
15034TIP3   OH266516   3.534   2.537   5.298 -0.3690  0.1718  0.3129
15034TIP3    H166517   3.503   2.488   5.222 -0.8654  0.6597  0.1958
15034TIP3    H266518   3.482   2.504   5.371 -0.9555  0.7614  0.1726
15035TIP3   OH266519   0.633   2.642   6.542 -0.6063  0.0633  0.0787
15035TIP3    H166520   0.725   2.668   6.546 -0.1684 -1.0037 -1.7296
15035TIP3    H266521   0.587   2.706   6.597  1.1899  0.6764  0.9306
15036TIP3   OH266522   6.217   6.449  10.814 -0.3701  0.3183 -0.1380
15036TIP3    H166523   6.127   6.435  10.845 -0.7746 -1.0135 -1.7595
15036TIP3    H266524   6.210   6.522  10.752 -0.6566 -0.7438 -1.4042
15037TIP3   OH266525   3.942   0.763  10.984  0.1356 -0.1585  0.2881
15037TIP3    H166526   3.921   0.670  10.982  0.3474 -0.1928 -0.6746
15037TIP3    H266527   4.038   0.766  10.977  0.0623  0.1583 -0.6578
15038TIP3   OH266528   4.184   3.179   1.962 -0.2887 -0.0078 -0.2656
15038TIP3    H166529   4.212   3.235   1.890 -1.2528  1.3482  0.3653
15038TIP3    H266530   4.115   3.228   2.006 -0.3701 -1.1943  1.0350
15039TIP3   OH266531   0.632   1.455   1.956 -0.2831  0.3916 -0.2064
15039TIP3    H166532   0.542   1.426   1.944 -0.2594  0.2015  0.0494
15039TIP3    H266533   0.636   1.484   2.048  0.0346 -0.0543 -0.0705
15040TIP3   OH266534   2.329   0.906  16.878  0.6316  0.6082 -0.2594
15040TIP3    H166535   2.244   0.929  16.916  1.3451  2.2925  0.4262
15040TIP3    H266536   2.367   0.844  16.940 -1.1788 -2.3973 -1.9555
15041TIP3   OH266537   0.350   5.356   2.153 -0.2919 -0.2052  0.3216
15041TIP3    H166538   0.416   5.308   2.103  0.5248 -1.2708  2.3341
15041TIP3    H266539   0.321   5.295   2.220 -0.2902  1.6123  2.0590
15042TIP3   OH266540   3.803   4.448   2.388  0.4770 -0.4319  0.3122
15042TIP3    H166541   3.713   4.454   2.420  0.1687 -1.7788 -0.2095
15042TIP3    H266542   3.820   4.532   2.347 -0.3514  0.0304  0.8853
15043TIP3   OH266543   1.863   3.415   2.953  0.1771  0.7098 -0.7108
15043TIP3    H166544   1.840   3.327   2.924  0.4563  0.8907 -1.4826
15043TIP3    H266545   1.930   3.444   2.892  1.0361  0.9627  0.3131
15044TIP3   OH266546   3.334   3.234   2.531  0.3436 -0.1983 -0.1316
15044TIP3    H166547   3.349   3.328   2.533 -0.9026  0.0160  2.0962
15044TIP3    H266548   3.422   3.196   2.542  0.6813  0.7425  0.5568
15045TIP3   OH266549   5.696   3.863  16.341 -0.3076  0.4497 -0.0181
15045TIP3    H166550   5.655   3.803  16.403 -0.5984  1.2538  0.5855
15045TIP3    H266551   5.732   3.933  16.395 -0.3440  1.0414 -0.7385
15046TIP3   OH266552   5.467   6.291   0.335  0.1735  0.0989  0.1987
15046TIP3    H166553   5.474   6.204   0.295  1.0680  0.3462 -0.2093
15046TIP3    H266554   5.487   6.352   0.264  0.5731  0.5903  0.7246
15047TIP3   OH266555   2.291   1.553  16.210  0.2429  0.0033 -1.0985
15047TIP3    H166556   2.197   1.542  16.198  0.0718 -1.5993  1.1244
15047TIP3    H266557   2.327   1.464  16.201  1.2285  0.2331  0.2715
15048TIP3   OH266558   6.096   5.749   0.768 -0.1588 -0.5789 -0.0152
15048TIP3    H166559   6.173   5.705   0.731 -0.2472  0.1430 -1.1098
15048TIP3    H266560   6.114   5.755   0.862 -0.1556 -2.9507  0.1988
15049TIP3   OH266561   5.598   3.558  12.186  0.0607 -0.4227  0.1694
15049TIP3    H166562   5.688   3.558  12.220  0.4308  3.5760 -0.3418
15049TIP3    H266563   5.607   3.528  12.095  0.3920 -2.5843  0.8626
15050TIP3   OH266564   5.432   0.730   2.884  1.1224  0.0395 -0.4421
15050TIP3    H166565   5.432   0.734   2.980  0.6765 -0.3423 -0.4232
15050TIP3    H266566   5.460   0.817   2.856 -0.0979  0.5954  0.0248
15051TIP3   OH266567   6.089   3.964   3.487 -0.6432 -0.6073  0.6663
15051TIP3    H166568   6.158   4.031   3.484 -0.2710 -0.9769 -2.6869
15051TIP3    H266569   6.009   4.011   3.464 -0.8700 -0.8610  0.9214
15052TIP3   OH266570   1.838   2.410  17.032  0.6762  0.2653  0.6057
15052TIP3    H166571   1.830   2.416  17.127 -0.8688  0.2025  0.5112
15052TIP3    H266572   1.753   2.374  17.003  1.0542  0.4477 -0.8038
15053TIP3   OH266573   5.290   5.553   6.469  0.0104  0.0625 -0.7874
15053TIP3    H166574   5.231   5.629   6.463  0.4636  0.6181  0.9934
15053TIP3    H266575   5.356   5.580   6.534  0.5245 -1.6367 -0.5721
15054TIP3   OH266576   4.372   0.994   1.202  0.4798  0.2356  0.3957
15054TIP3    H166577   4.452   0.984   1.151  0.8553  0.5808  0.9161
15054TIP3    H266578   4.382   1.077   1.248 -1.1435  1.4363 -1.2578
15055TIP3   OH266579   6.750   6.388   4.108 -0.2261 -0.1176  0.3461
15055TIP3    H166580   6.720   6.311   4.156 -0.1953  0.3942  1.2200
15055TIP3    H266581   6.832   6.412   4.152  0.1996 -0.0731 -0.4563
15056TIP3   OH266582   4.724   6.473   3.510 -0.6528  0.0698  0.2069
15056TIP3    H166583   4.801   6.433   3.551 -0.1274 -1.3652 -2.0088
15056TIP3    H266584   4.649   6.435   3.556 -0.0887 -0.9285  0.3188
15057TIP3   OH266585   4.464   0.026  15.835 -0.2046  0.4301  0.6333
15057TIP3    H166586   4.407   0.101  15.850  0.1541  0.6725  0.8185
15057TIP3    H266587   4.501   0.041  15.748 -0.1900  0.4300  0.6390
15058TIP3   OH266588   0.843   1.633   4.444  0.0349 -0.5393  0.0142
15058TIP3    H166589   0.867   1.668   4.359  1.4744 -1.5581 -0.0317
15058TIP3    H266590   0.894   1.684   4.507 -0.9492  0.1434  0.2795
15059TIP3   OH266591   1.851   5.589   0.600 -0.2629 -0.2259 -0.1490
15059TIP3    H166592   1.814   5.663   0.648 -1.9164 -0.5056 -0.9119
15059TIP3    H266593   1.888   5.532   0.667  0.5664  1.0127  0.4940
15060TIP3   OH266594   0.412   0.044   2.650 -0.0030  0.3252 -0.1056
15060TIP3    H166595   0.407   0.128   2.695  2.0440  0.6622 -0.4048
15060TIP3    H266596   0.442   0.066   2.562 -0.0028 -0.6812 -0.3667
15061TIP3   OH266597   0.459   5.544   2.304 -0.0372  0.1644  0.3631
15061TIP3    H166598   0.414   5.618   2.263 -1.0363 -0.1270  0.8922
15061TIP3    H266599   0.422   5.467   2.262  1.6566 -0.0441 -0.8396
15062TIP3   OH266600   6.362   5.204   4.188  0.3649  0.2225 -0.9060
15062TIP3    H166601   6.388   5.134   4.248  0.0672 -1.2011 -2.3764
15062TIP3    H266602   6.270   5.186   4.170  0.3391  0.8834 -1.4647
15063TIP3   OH266603   6.659   0.568   3.545 -0.0764 -0.1723  0.2277
15063TIP3    H166604   6.742   0.539   3.506  0.5339  1.4336  0.2910
15063TIP3    H266605   6.659   0.529   3.633  1.3950  1.1242  0.8361
15064TIP3   OH266606   5.936   4.251  16.309 -0.2486 -0.1858  0.6549
15064TIP3    H166607   5.937   4.317  16.240  2.2731 -0.5126  0.2940
15064TIP3    H266608   5.860   4.196  16.289 -0.7674  0.9423 -0.6277
15065TIP3   OH266609   6.043   1.827  15.752  0.1591 -0.2388 -0.5404
15065TIP3    H166610   6.013   1.765  15.686  0.2934 -2.2418  1.1671
15065TIP3    H266611   6.046   1.776  15.833  1.4780  1.6993  0.7175
15066TIP3   OH266612   4.423   1.125   1.821  0.0668 -0.3363  0.1967
15066TIP3    H166613   4.337   1.160   1.794 -0.3321 -0.0862  1.6972
15066TIP3    H266614   4.459   1.087   1.741 -0.8624  0.7349 -0.7786
15067TIP3   OH266615   5.268   5.898  15.198 -0.0646  0.9502 -0.3154
15067TIP3    H166616   5.298   5.879  15.109  0.3200  0.3136 -0.0554
15067TIP3    H266617   5.305   5.828  15.251 -0.9334  0.8894  0.2282
15068TIP3   OH266618   4.439   4.025   4.969  0.3439  0.1893  0.0504
15068TIP3    H166619   4.377   4.016   4.897  1.7811  0.3439 -1.2587
15068TIP3    H266620   4.428   4.116   4.998 -0.8872 -0.1381  0.6727
15069TIP3   OH266621   4.689   4.031   2.235  0.2875 -0.2604  0.4132
15069TIP3    H166622   4.729   3.976   2.167  1.3857  1.8107 -0.7013
15069TIP3    H266623   4.751   4.026   2.308 -0.9006 -2.5007  1.3808
15070TIP3   OH266624   1.920   2.121  13.011 -0.2201 -0.4775 -0.1718
15070TIP3    H166625   1.890   2.189  12.951 -0.2143  1.5946  2.0313
15070TIP3    H266626   1.840   2.090  13.053 -0.0373 -0.5497  0.1213
15071TIP3   OH266627   4.207   4.843   3.299  0.3032 -1.0130 -0.5657
15071TIP3    H166628   4.285   4.819   3.350  0.4685 -0.8331 -0.7317
15071TIP3    H266629   4.141   4.779   3.324  1.0844 -2.4078 -1.8660
15072TIP3   OH266630   3.053   4.651   4.861  0.1149 -0.6784  0.0883
15072TIP3    H166631   3.143   4.618   4.867  0.6660  0.8790  1.0776
15072TIP3    H266632   3.054   4.710   4.786 -0.0562 -0.5981  0.1503
15073TIP3   OH266633   1.322   1.943   0.725 -0.1182 -0.3976 -0.2047
15073TIP3    H166634   1.417   1.945   0.726 -0.1238 -0.0497 -0.3887
15073TIP3    H266635   1.297   1.929   0.817  0.1205 -1.3061 -0.2628
15074TIP3   OH266636   3.789   1.221   4.374  0.0530  0.4170  0.4189
15074TIP3    H166637   3.775   1.131   4.404  0.5857  0.2331  0.1403
15074TIP3    H266638   3.733   1.228   4.296 -0.6254  0.5982  0.9219
15075TIP3   OH266639   1.701   2.372   4.268  0.2270 -0.2393  0.4407
15075TIP3    H166640   1.668   2.442   4.323 -1.1456 -0.4564 -0.0578
15075TIP3    H266641   1.762   2.415   4.208 -0.3880  0.4876  0.3191
15076TIP3   OH266642   1.095   3.103  16.915 -0.2368  0.1682 -0.3550
15076TIP3    H166643   1.105   3.052  16.996 -0.0928  1.4307  0.4529
15076TIP3    H266644   1.012   3.072  16.878  0.1231 -1.0458 -0.1961
15077TIP3   OH266645   4.444   5.285   3.015 -0.0112 -0.6653  0.1634
15077TIP3    H166646   4.497   5.357   3.050 -1.6968  0.8907 -0.2834
15077TIP3    H266647   4.473   5.275   2.924 -1.1403  0.9564 -0.4337
15078TIP3   OH266648   4.155   4.686  13.267  0.2935  0.8682  0.5172
15078TIP3    H166649   4.184   4.760  13.213  1.5181  0.8595  1.1202
15078TIP3    H266650   4.222   4.619  13.254 -0.8034 -0.1633 -0.0164
15079TIP3   OH266651   0.525   4.263  13.203 -0.2952 -0.1361  0.3019
15079TIP3    H166652   0.513   4.198  13.273 -0.3955 -1.1515 -0.6296
15079TIP3    H266653   0.506   4.215  13.123  1.8014  0.4486 -0.6033
15080TIP3   OH266654   3.102   2.868  16.859  0.5801  0.8244 -0.3696
15080TIP3    H166655   3.067   2.934  16.799 -1.5665 -0.1818 -0.3043
15080TIP3    H266656   3.054   2.881  16.941  0.4234 -0.5288 -0.2252
15081TIP3   OH266657   5.585   0.670   1.144 -0.1304  0.3260  0.0984
15081TIP3    H166658   5.569   0.713   1.228  0.2789  0.1461  0.2686
15081TIP3    H266659   5.559   0.579   1.159  1.6855 -0.1384  0.5893
15082TIP3   OH266660   6.425   3.348  11.658 -0.1041  0.2503  0.5782
15082TIP3    H166661   6.411   3.438  11.690  4.2576  1.3216  0.1344
15082TIP3    H266662   6.398   3.351  11.566  0.1990  1.2025  0.5070
15083TIP3   OH266663   0.729   5.072  12.442  0.0489  0.0262  0.0993
15083TIP3    H166664   0.731   5.166  12.459 -2.9512 -0.1888  2.4195
15083TIP3    H266665   0.643   5.056  12.404 -0.1195 -1.9345  1.1648
15084TIP3   OH266666   6.772   5.786  13.650 -0.3633 -0.3487 -0.2623
15084TIP3    H166667   6.737   5.829  13.729 -1.1578  0.4124 -1.0053
15084TIP3    H266668   6.695   5.749  13.607 -0.0087 -0.3136 -0.9411
15085TIP3   OH266669   5.399   0.590  16.191 -0.0502  0.7095  0.0994
15085TIP3    H166670   5.351   0.517  16.152 -0.4412  0.2921  1.3149
15085TIP3    H266671   5.422   0.646  16.117 -2.5373  0.9953 -0.5425
15086TIP3   OH266672   2.537   4.399   4.710 -0.1886 -0.1441  0.2859
15086TIP3    H166673   2.532   4.309   4.745 -0.2256  0.3170  1.5061
15086TIP3    H266674   2.463   4.444   4.751 -1.0006  0.1154 -1.3795
15087TIP3   OH266675   2.094   3.452  12.852  0.0556  0.2027  0.0282
15087TIP3    H166676   2.024   3.405  12.806  2.7518 -2.4052 -1.7799
15087TIP3    H266677   2.050   3.493  12.926 -3.4937 -0.5999 -1.4280
15088TIP3   OH266678   6.382   2.808  11.500 -0.0973 -0.0787 -0.1588
15088TIP3    H166679   6.407   2.744  11.434 -0.1334  0.5245 -0.7628
15088TIP3    H266680   6.348   2.756  11.573 -1.3798 -0.6997 -1.1713
15089TIP3   OH266681   6.243   1.828   5.927 -0.0033  0.1284 -0.4481
15089TIP3    H166682   6.185   1.796   5.858  0.3076 -3.1298  0.6222
15089TIP3    H266683   6.187   1.838   6.003  0.3782 -0.5955 -0.0602
15090TIP3   OH266684   3.744   3.558  11.402 -0.0524  0.3293 -0.2585
15090TIP3    H166685   3.780   3.510  11.476  0.3949 -0.8680 -1.2101
15090TIP3    H266686   3.758   3.650  11.424 -1.9332  0.1280  2.1031
15091TIP3   OH266687   0.890   3.911  11.637  0.7462 -0.4678 -0.1447
15091TIP3    H166688   0.801   3.897  11.670  1.2810  0.0621  1.6162
15091TIP3    H266689   0.946   3.861  11.697  1.7795  0.6606 -0.1383
15092TIP3   OH266690   1.547   0.084  11.691  0.0859  0.3315  0.2432
15092TIP3    H166691   1.606   0.009  11.696  1.0929  1.1244  0.6344
15092TIP3    H266692   1.481   0.058  11.628  0.7252 -0.6775 -0.0372
15093TIP3   OH266693   5.864   1.351   2.030 -0.4254 -0.2388 -0.2269
15093TIP3    H166694   5.858   1.437   2.072 -0.5691  0.5407 -1.7851
15093TIP3    H266695   5.952   1.349   1.993  0.4374 -1.7266  1.7121
15094TIP3   OH266696   4.064   1.376  12.178 -0.2368 -0.2476  0.2998
15094TIP3    H166697   4.068   1.471  12.190  0.1065  0.0203 -1.7151
15094TIP3    H266698   4.129   1.342  12.239  0.7996  0.9342 -0.0887
15095TIP3   OH266699   2.901   6.427   5.852  0.1460 -0.4080 -0.4834
15095TIP3    H166700   2.900   6.500   5.914  0.3670 -2.0846  1.6146
15095TIP3    H266701   2.815   6.387   5.863 -0.2492 -0.0919 -2.1578
15096TIP3   OH266702   0.368   1.911  15.041  0.3254 -0.2468  0.4081
15096TIP3    H166703   0.340   1.911  15.133  1.8602  2.2950  0.9773
15096TIP3    H266704   0.463   1.903  15.045  0.3897 -0.4921 -1.0052
15097TIP3   OH266705   4.597   2.877  11.122  0.1180 -0.0119 -0.1076
15097TIP3    H166706   4.549   2.960  11.124  1.9304  1.1098 -0.8760
15097TIP3    H266707   4.595   2.851  11.030 -0.5014 -0.8774  0.1421
15098TIP3   OH266708   1.293   6.605   5.449  0.4367  0.1530 -0.0922
15098TIP3    H166709   1.278   6.557   5.530 -1.6336  1.4639  0.3606
15098TIP3    H266710   1.288   6.698   5.474  0.6294  0.5981 -1.5795
15099TIP3   OH266711   0.552   5.630   6.099  0.2046 -0.2545 -0.4988
15099TIP3    H166712   0.518   5.567   6.035  0.8716  0.2939 -1.4275
15099TIP3    H266713   0.479   5.645   6.159  0.0244 -1.8755 -0.2641
15100TIP3   OH266714   2.088   0.341   2.934  0.5886 -0.2136 -0.2851
15100TIP3    H166715   2.086   0.422   2.884  0.6677 -0.2907 -0.4163
15100TIP3    H266716   2.139   0.362   3.013 -0.9922  0.3780  0.6124
15101TIP3   OH266717   1.916   1.456   1.606 -0.0046  0.7275  0.2812
15101TIP3    H166718   1.998   1.440   1.652 -0.5802 -0.3464  0.9501
15101TIP3    H266719   1.910   1.384   1.542 -0.2744  0.9855  0.0112
15102TIP3   OH266720   0.927   2.730  16.731 -0.1977 -0.0537  0.2224
15102TIP3    H166721   0.969   2.644  16.721  1.1075  0.7011 -1.2910
15102TIP3    H266722   0.835   2.710  16.747  0.4913 -1.7603  2.5143
15103TIP3   OH266723   6.810   1.254  13.503 -0.0316 -0.0416 -0.5404
15103TIP3    H166724   6.812   1.211  13.417 -3.0554 -1.2580 -0.1250
15103TIP3    H266725   6.842   1.187  13.564  1.3310  0.5398 -0.5963
15104TIP3   OH266726   1.645   1.373   1.602  0.1819 -0.5723  0.3531
15104TIP3    H166727   1.673   1.310   1.535 -2.3214 -0.4710 -0.8951
15104TIP3    H266728   1.594   1.321   1.664  0.3126 -0.1921  0.7856
15105TIP3   OH266729   1.518   5.141   0.518 -0.0396 -0.6730 -0.1775
15105TIP3    H166730   1.612   5.129   0.531 -0.1323 -1.3256 -0.0648
15105TIP3    H266731   1.502   5.112   0.429 -0.1968 -0.9540 -0.0591
15106TIP3   OH266732   2.675   3.453  13.922 -0.2125  0.4306  0.5192
15106TIP3    H166733   2.698   3.503  14.000  0.3819  0.0143  0.6179
15106TIP3    H266734   2.580   3.445  13.926 -0.2010  0.5536  1.1121
15107TIP3   OH266735   0.117   5.032  12.514  0.1349 -0.8873  0.2538
15107TIP3    H166736   0.171   4.955  12.530  1.4606 -0.5463 -2.1115
15107TIP3    H266737   0.043   5.023  12.574  0.4316 -3.7994  0.3095
15108TIP3   OH266738   6.597   6.152   5.706  0.0853 -0.0085  0.3482
15108TIP3    H166739   6.653   6.077   5.690 -0.7672 -0.7034  0.5259
15108TIP3    H266740   6.535   6.123   5.773 -1.2974  0.2722 -0.7367
15109TIP3   OH266741   5.541   4.526   3.385  0.0839  0.2765  0.6929
15109TIP3    H166742   5.539   4.593   3.317  1.2043 -0.0041  0.3597
15109TIP3    H266743   5.584   4.568   3.460  0.9669 -0.1020  0.4172
15110TIP3   OH266744   5.342   0.564  16.665 -0.0989 -0.1226 -0.0289
15110TIP3    H166745   5.396   0.486  16.677 -0.1517  0.0768  1.7901
15110TIP3    H266746   5.394   0.620  16.608  1.5256 -0.0869  1.3796
15111TIP3   OH266747   1.689   1.478  15.175 -0.8106  0.0919 -0.8707
15111TIP3    H166748   1.698   1.426  15.255  1.6006  0.9812 -0.4675
15111TIP3    H266749   1.676   1.413  15.106  1.7903 -1.1113 -0.3418
15112TIP3   OH266750   1.630   2.844  15.322 -0.1352  0.4957 -0.3837
15112TIP3    H166751   1.693   2.857  15.252 -0.6410 -0.5101 -1.0425
15112TIP3    H266752   1.623   2.749  15.332  0.6800  0.5985  1.7308
15113TIP3   OH266753   3.868   1.158  13.253 -0.0997  0.0020 -0.0101
15113TIP3    H166754   3.779   1.186  13.233  0.8786  1.2965 -3.1490
15113TIP3    H266755   3.862   1.062  13.257 -1.2780 -0.1448 -2.8301
15114TIP3   OH266756   0.705   4.970  12.133 -0.1882 -0.6291 -0.2241
15114TIP3    H166757   0.751   4.988  12.215  1.9796 -0.2701 -1.4404
15114TIP3    H266758   0.706   4.875  12.126  0.4332 -0.6269 -0.2472
15115TIP3   OH266759   0.398   2.060  17.113  0.2866  0.8436  0.1668
15115TIP3    H166760   0.396   2.089  17.204 -0.6184 -0.8679  0.7319
15115TIP3    H266761   0.464   1.990  17.112  0.2760  0.8425 -0.4938
15116TIP3   OH266762   1.543   0.845  16.700 -0.3687  0.2442 -0.3446
15116TIP3    H166763   1.619   0.824  16.646 -0.7345 -0.5521 -0.5633
15116TIP3    H266764   1.495   0.911  16.650 -0.4221 -0.0971 -0.7532
15117TIP3   OH266765   3.190   2.210   1.022  0.1703  0.2511  0.2846
15117TIP3    H166766   3.230   2.264   0.953 -0.8969  0.1808 -0.4185
15117TIP3    H266767   3.211   2.255   1.103  1.9184  0.0529 -0.0207
15118TIP3   OH266768   4.360   3.565  15.688 -0.2173  0.0951 -0.6842
15118TIP3    H166769   4.423   3.631  15.719 -0.7892 -0.3678  1.6995
15118TIP3    H266770   4.276   3.611  15.688 -0.5552 -0.4845  0.6001
15119TIP3   OH266771   3.768   5.183   1.852 -0.3029 -0.6588 -0.4495
15119TIP3    H166772   3.795   5.091   1.840 -1.0510 -0.7190 -1.8748
15119TIP3    H266773   3.846   5.234   1.828  0.2745 -0.9032  0.8170
15120TIP3   OH266774   1.227   4.431  15.421  0.0574  0.0213 -0.7740
15120TIP3    H166775   1.277   4.423  15.502 -1.2691 -0.1383  0.0584
15120TIP3    H266776   1.139   4.458  15.449 -1.0562 -2.1255 -1.9543
15121TIP3   OH266777   6.376   5.160  13.993 -0.3755  0.2768 -0.0564
15121TIP3    H166778   6.365   5.194  13.905  0.0350 -1.7640 -0.9507
15121TIP3    H266779   6.437   5.087  13.984  2.3672  2.0111  2.4582
15122TIP3   OH266780   5.824   2.172  11.730  0.7249  0.2602  0.3108
15122TIP3    H166781   5.802   2.181  11.637 -0.0121  0.7769  0.5210
15122TIP3    H266782   5.826   2.078  11.745  1.1831  0.1633 -0.3014
15123TIP3   OH266783   3.649   3.363  16.241  0.2272  0.1998 -0.3801
15123TIP3    H166784   3.667   3.455  16.222 -0.1718  0.7375  1.6130
15123TIP3    H266785   3.564   3.346  16.201  0.3267  0.6818 -0.7928
15124TIP3   OH266786   3.522   6.552   3.079  0.3847  0.0398 -0.5358
15124TIP3    H166787   3.569   6.626   3.042  1.0628 -0.2743 -0.3281
15124TIP3    H266788   3.583   6.479   3.072 -0.4103 -0.6016 -1.0934
15125TIP3   OH266789   2.710   2.763   4.118 -0.1981  0.5651 -0.3436
15125TIP3    H166790   2.615   2.758   4.131 -0.1518  1.4564  0.5380
15125TIP3    H266791   2.721   2.775   4.024 -1.0105  1.2406 -0.3678
15126TIP3   OH266792   4.730   0.759   3.507 -0.4753 -0.3484  0.1997
15126TIP3    H166793   4.642   0.773   3.541  0.3505 -1.3626  2.9642
15126TIP3    H266794   4.783   0.828   3.548  0.0620  0.2805 -1.4627
15127TIP3   OH266795   5.177   2.851   4.596  0.5241 -0.0660 -0.2960
15127TIP3    H166796   5.086   2.823   4.587  0.3562  0.1744  0.5774
15127TIP3    H266797   5.210   2.802   4.671 -0.4725  3.6324  2.8660
15128TIP3   OH266798   0.725   5.384   6.644  0.5607 -0.4554  0.4036
15128TIP3    H166799   0.752   5.293   6.653  1.5872 -0.4959 -2.2080
15128TIP3    H266800   0.807   5.434   6.649  0.3971  0.0163 -1.1290
15129TIP3   OH266801   3.032   1.497  15.153  0.8202  0.4437  0.6688
15129TIP3    H166802   3.089   1.422  15.136 -0.7962 -0.4259 -1.3912
15129TIP3    H266803   2.989   1.478  15.236 -0.3752 -1.5225 -0.3367
15130TIP3   OH266804   3.652   0.450  15.540 -1.0162  0.1279  0.8497
15130TIP3    H166805   3.561   0.429  15.560 -0.6515 -0.0639  2.4639
15130TIP3    H266806   3.703   0.378  15.577 -0.2984 -1.2957 -2.5365
15131TIP3   OH266807   3.638   0.596   1.064 -0.3229  0.1278 -0.1171
15131TIP3    H166808   3.729   0.586   1.036 -0.3231 -0.2885  0.0168
15131TIP3    H266809   3.641   0.661   1.134 -0.3161  1.1549 -1.0378
15132TIP3   OH266810   5.451   6.068   4.317  0.4097  0.2955 -0.0001
15132TIP3    H166811   5.445   6.053   4.222  1.7578  0.5624 -0.1419
15132TIP3    H266812   5.544   6.080   4.334  0.0321  2.0329  1.0978
15133TIP3   OH266813   2.318   1.357  15.680  0.1337 -0.2097  0.3324
15133TIP3    H166814   2.304   1.449  15.700  0.5182 -0.0841  0.0387
15133TIP3    H266815   2.248   1.311  15.726 -0.6779  0.3225 -0.3319
15134TIP3   OH266816   4.670   2.192  14.845 -0.4374 -0.3545  0.6041
15134TIP3    H166817   4.763   2.182  14.867  0.3601  1.4194 -1.5645
15134TIP3    H266818   4.666   2.175  14.751 -2.0349  0.9987  0.3791
15135TIP3   OH266819   5.176   4.299  12.349  0.4681  0.1117 -0.0705
15135TIP3    H166820   5.101   4.241  12.332  0.5268 -0.3250  1.0736
15135TIP3    H266821   5.232   4.249  12.409  0.7958  1.1315  0.5014
15136TIP3   OH266822   5.214   5.263   3.735  0.0876  0.1544 -0.5818
15136TIP3    H166823   5.215   5.338   3.795 -0.6126 -0.1801 -0.1358
15136TIP3    H266824   5.194   5.188   3.791 -0.1264 -0.2335 -1.1659
15137TIP3   OH266825   4.163   0.837  11.725  0.7160  0.0469 -0.3687
15137TIP3    H166826   4.070   0.836  11.707  0.2657  4.5737  0.3657
15137TIP3    H266827   4.172   0.799  11.813 -0.7832  1.1510  0.3060
15138TIP3   OH266828   3.965   1.400   0.897 -0.2891  0.1776 -0.2256
15138TIP3    H166829   3.910   1.393   0.976  0.0976  0.6955  0.0970
15138TIP3    H266830   4.047   1.438   0.928  0.8699 -2.0076 -0.4251
15139TIP3   OH266831   3.265   1.972  12.563  0.0646  0.1845  0.0930
15139TIP3    H166832   3.297   1.922  12.487  3.4646  2.2429 -0.0210
15139TIP3    H266833   3.181   2.008  12.534  0.5592 -0.3057 -2.1283
15140TIP3   OH266834   1.621   3.430   4.637  0.2745  0.2351 -0.6807
15140TIP3    H166835   1.585   3.514   4.665 -0.9194 -0.7195  0.8072
15140TIP3    H266836   1.547   3.385   4.595  0.7026 -0.3614 -0.8102
15141TIP3   OH266837   0.748   0.962  17.004  0.0740 -0.1315 -0.1550
15141TIP3    H166838   0.662   0.963  16.961 -0.7546 -1.1857  1.4050
15141TIP3    H266839   0.752   1.046  17.050 -0.2911 -0.2399  0.0819
15142TIP3   OH266840   6.451   3.120  15.528  0.8267 -0.4301 -0.1019
15142TIP3    H166841   6.505   3.195  15.551 -0.2360  1.0154 -2.0357
15142TIP3    H266842   6.369   3.158  15.497 -1.2811 -2.5174  2.4856
15143TIP3   OH266843   0.892   6.786  13.473 -0.4310 -0.1677  0.8811
15143TIP3    H166844   0.889   6.874  13.510 -2.1296 -0.6517  2.0295
15143TIP3    H266845   0.818   6.782  13.413 -0.3620 -0.7904  0.8259
15144TIP3   OH266846   6.693   1.219  14.845 -0.7180  0.1501 -0.4028
15144TIP3    H166847   6.634   1.294  14.850  0.1899  0.8852 -0.4001
15144TIP3    H266848   6.769   1.252  14.796 -0.3767 -0.8199 -0.5478
15145TIP3   OH266849   4.793   4.645  14.198  0.2900  0.4442  0.0687
15145TIP3    H166850   4.752   4.566  14.235 -0.3880  0.9339  0.3877
15145TIP3    H266851   4.869   4.660  14.254 -0.8267  1.2780  1.4177
15146TIP3   OH266852   4.641   1.091   3.740 -0.3688 -0.1466 -0.0269
15146TIP3    H166853   4.669   1.051   3.822 -3.1752  0.9528  1.5834
15146TIP3    H266854   4.559   1.047   3.718 -0.0964  0.1578 -1.8147
15147TIP3   OH266855   3.164   1.502  12.939 -0.6035  0.0656 -0.5620
15147TIP3    H166856   3.253   1.471  12.920 -0.5673  0.4729 -1.1013
15147TIP3    H266857   3.107   1.432  12.907 -0.5001  0.2243 -1.1125
15148TIP3   OH266858   0.939   6.202  12.457  0.6381 -0.1040 -0.5962
15148TIP3    H166859   1.006   6.267  12.439  1.8785 -0.9588  0.7456
15148TIP3    H266860   0.867   6.252  12.495  0.8029  0.7135 -1.3368
15149TIP3   OH266861   5.600   5.622   0.478 -0.7549 -0.2014  0.2108
15149TIP3    H166862   5.577   5.531   0.500  0.6312 -1.4418 -2.8877
15149TIP3    H266863   5.666   5.614   0.409 -1.4327  3.1815 -1.0101
15150TIP3   OH266864   4.407   4.487  10.978  0.8793 -0.0185  0.4790
15150TIP3    H166865   4.334   4.455  10.926 -0.5941  0.6094  2.0771
15150TIP3    H266866   4.446   4.408  11.017 -1.4387 -0.1805  2.7334
15151TIP3   OH266867   5.080   4.448   5.881 -0.3023 -0.5311  0.4956
15151TIP3    H166868   5.094   4.510   5.953  0.2259 -0.8107  0.6379
15151TIP3    H266869   5.074   4.363   5.923  0.8890 -0.8035  0.1452
15152TIP3   OH266870   5.603   6.603  13.409 -0.3760  0.5419 -0.1313
15152TIP3    H166871   5.669   6.611  13.477 -1.9983 -0.6045  1.6642
15152TIP3    H266872   5.636   6.534  13.351 -1.0949 -1.8947  2.1864
15153TIP3   OH266873   2.700   2.771  15.195  0.5702 -0.4432  0.3789
15153TIP3    H166874   2.641   2.733  15.260  0.3536 -0.9542 -0.1011
15153TIP3    H266875   2.771   2.707  15.187 -0.2508 -1.2365 -1.0938
15154TIP3   OH266876   2.095   1.912   2.214 -0.2584  0.1026 -1.1267
15154TIP3    H166877   2.026   1.898   2.278 -0.6540 -0.0666 -1.5819
15154TIP3    H266878   2.159   1.966   2.259 -0.9977  0.8131 -0.9031
15155TIP3   OH266879   6.308   6.258  12.901  0.0301  0.0789  0.2986
15155TIP3    H166880   6.400   6.277  12.883 -0.5001  0.9931 -1.7168
15155TIP3    H266881   6.288   6.308  12.980  1.0677  0.4753  0.3222
15156TIP3   OH266882   4.411   2.130  10.986 -0.1381 -0.2087  0.2254
15156TIP3    H166883   4.413   2.176  11.070 -2.8725  0.1086  0.1897
15156TIP3    H266884   4.482   2.066  10.992 -0.7071 -0.6897  3.0824
15157TIP3   OH266885   6.126   4.908  10.662 -0.5683 -0.4387 -0.6745
15157TIP3    H166886   6.039   4.912  10.701 -0.5376  0.6924 -0.7040
15157TIP3    H266887   6.147   4.814  10.661 -1.5330 -0.6755 -0.1348
15158TIP3   OH266888   5.733   2.909   1.490  0.1008 -0.1578  0.4260
15158TIP3    H166889   5.660   2.951   1.445  0.0227  0.0048  0.7060
15158TIP3    H266890   5.784   2.981   1.527  0.1990 -0.2878  0.5489
15159TIP3   OH266891   5.040   6.671  14.245 -0.3097  0.2501  0.5322
15159TIP3    H166892   4.971   6.729  14.276 -0.2590 -0.5020  2.1433
15159TIP3    H266893   5.028   6.590  14.294 -0.8431 -1.4393 -2.1959
15160TIP3   OH266894   0.097   2.511  11.652 -0.0194 -0.3374 -0.1618
15160TIP3    H166895   0.184   2.511  11.693  0.3353 -1.6216 -0.8580
15160TIP3    H266896   0.077   2.418  11.638 -0.4276  0.0184 -2.2347
15161TIP3   OH266897   1.123   0.284   1.864 -0.1924  0.0161 -0.1213
15161TIP3    H166898   1.215   0.258   1.853 -0.2182  0.1623 -0.7195
15161TIP3    H266899   1.074   0.202   1.854 -0.0161 -0.4842  2.4145
15162TIP3   OH266900   5.188   0.123  13.430  1.0973 -0.0476 -0.0440
15162TIP3    H166901   5.253   0.060  13.397  1.4164  0.6712 -0.8246
15162TIP3    H266902   5.181   0.102  13.524  1.4430 -1.0198 -0.2142
15163TIP3   OH266903   6.175   4.886  13.622  0.0394 -0.0356  0.7800
15163TIP3    H166904   6.104   4.936  13.581  0.3885  0.3599  0.6472
15163TIP3    H266905   6.176   4.803  13.575 -1.8354 -0.9970  2.2908
15164TIP3   OH266906   1.969   0.277   5.151  0.1589 -0.2315 -0.2372
15164TIP3    H166907   1.932   0.224   5.222  0.9652 -0.7574 -0.2032
15164TIP3    H266908   2.056   0.241   5.136 -0.2830 -0.6560 -2.0441
15165TIP3   OH266909   6.051   4.350   2.832 -0.9135  0.2048 -0.2594
15165TIP3    H166910   6.051   4.283   2.900  2.1126  1.1763  0.8265
15165TIP3    H266911   6.043   4.433   2.879  0.1009  0.8432 -1.1647
15166TIP3   OH266912   3.283   0.157   2.228  0.0369  0.3360 -0.1356
15166TIP3    H166913   3.216   0.138   2.162 -0.0579  0.9656 -0.2293
15166TIP3    H266914   3.238   0.146   2.311 -0.7229  2.4934 -0.1990
15167TIP3   OH266915   0.380   5.525  13.916  0.1849  0.3864 -0.3595
15167TIP3    H166916   0.463   5.561  13.947 -0.1606  2.0908 -1.2946
15167TIP3    H266917   0.399   5.498  13.826  0.5177 -2.2019  0.3922
15168TIP3   OH266918   0.626   5.125  16.537  0.0591 -0.9017 -0.2876
15168TIP3    H166919   0.691   5.186  16.570 -1.5209  0.3851  0.5634
15168TIP3    H266920   0.573   5.102  16.614 -2.2695  0.3574 -1.4064
15169TIP3   OH266921   1.900   2.447  11.352 -0.5385  0.8057  0.2783
15169TIP3    H166922   1.838   2.517  11.371 -0.2926  0.8116  1.0923
15169TIP3    H266923   1.847   2.367  11.354 -0.6010  0.8529  0.5389
15170TIP3   OH266924   3.213   3.830  15.469 -0.2678 -0.1136 -0.5369
15170TIP3    H166925   3.257   3.768  15.410 -0.8037  0.5458 -1.6597
15170TIP3    H266926   3.265   3.910  15.462  0.3534 -0.3811  0.8220
15171TIP3   OH266927   5.525   0.363  13.610 -0.3827 -0.2755  0.1706
15171TIP3    H166928   5.549   0.271  13.599 -1.2321 -0.4319 -0.4418
15171TIP3    H266929   5.609   0.409  13.607 -0.0562 -0.8886 -1.1674
15172TIP3   OH266930   1.686   3.406   0.488 -0.1534  0.2047  0.5478
15172TIP3    H166931   1.755   3.373   0.430 -0.2553 -2.3057  1.7235
15172TIP3    H266932   1.608   3.407   0.432 -0.4224 -2.9116  0.6624
15173TIP3   OH266933   0.267   6.610   2.139  0.7080  0.0621 -0.5141
15173TIP3    H166934   0.276   6.515   2.130 -1.7384 -0.2189 -0.4342
15173TIP3    H266935   0.200   6.634   2.076  0.0078  1.4756  0.7185
15174TIP3   OH266936   5.584   1.597   0.762  0.1090 -0.5206  0.5095
15174TIP3    H166937   5.535   1.517   0.779 -0.3549 -0.3966 -0.2250
15174TIP3    H266938   5.524   1.668   0.787 -0.8356 -0.3075 -2.0884
15175TIP3   OH266939   0.677   4.598   1.679 -0.2871 -0.5520 -0.1214
15175TIP3    H166940   0.671   4.503   1.687 -0.5766 -0.5899 -0.6778
15175TIP3    H266941   0.767   4.619   1.703 -0.3436 -0.9189  0.4194
15176TIP3   OH266942   3.112   5.034  11.926  0.1504  0.1078 -0.0387
15176TIP3    H166943   3.159   4.967  11.974  0.4056 -0.5747 -1.2110
15176TIP3    H266944   3.026   5.039  11.968 -1.0516 -3.1728 -1.7618
15177TIP3   OH266945   1.907   5.442   5.948  0.2258  0.4156 -0.5270
15177TIP3    H166946   1.884   5.363   5.898  1.5606 -0.0204 -0.4722
15177TIP3    H266947   2.002   5.443   5.950  0.2735  2.4180 -1.1306
15178TIP3   OH266948   0.555   3.975   2.334 -0.1256 -0.2260 -0.3012
15178TIP3    H166949   0.460   3.967   2.325  0.0921 -1.7692 -1.8384
15178TIP3    H266950   0.568   4.056   2.385 -2.2247  0.2975 -0.5034
15179TIP3   OH266951   5.344   6.483   5.700 -0.6254  0.1102  0.1129
15179TIP3    H166952   5.353   6.477   5.795 -0.5203 -0.7526  0.0539
15179TIP3    H266953   5.266   6.431   5.679  0.7276 -1.7448 -0.5058
15180TIP3   OH266954   2.649   2.493   6.358  0.0166 -0.6257 -0.7767
15180TIP3    H166955   2.696   2.568   6.321  1.9458 -0.6400  1.4287
15180TIP3    H266956   2.709   2.457   6.423 -2.7197 -1.1716  1.6542
15181TIP3   OH266957   1.743   1.287  12.704 -0.1754 -0.2471  0.2543
15181TIP3    H166958   1.746   1.324  12.792  1.4269 -0.1170  0.1732
15181TIP3    H266959   1.755   1.362  12.646  0.7213 -0.5570  0.0148
15182TIP3   OH266960   6.531   6.434  11.154 -0.3076  0.5483  0.2021
15182TIP3    H166961   6.461   6.404  11.211 -0.4475  0.3594 -0.0699
15182TIP3    H266962   6.487   6.467  11.076 -0.0705 -0.0191 -0.1741
15183TIP3   OH266963   5.321   2.397   1.998  0.4880 -0.2718 -0.0215
15183TIP3    H166964   5.380   2.322   1.995 -2.3184 -2.6897  0.1977
15183TIP3    H266965   5.263   2.384   1.923 -0.7172  1.1358  0.6269
15184TIP3   OH266966   5.247   3.228  11.414  0.9249  0.4540 -0.4031
15184TIP3    H166967   5.215   3.154  11.466  0.0716  0.1499 -1.3382
15184TIP3    H266968   5.340   3.233  11.436  0.1166  2.3179  3.5816
15185TIP3   OH266969   0.072   3.702   4.474  0.3154  0.0220 -0.1696
15185TIP3    H166970   0.091   3.779   4.419  0.1760  0.6887  0.6844
15185TIP3    H266971   0.100   3.628   4.421  0.2350  0.6425 -1.1192
15186TIP3   OH266972   6.082   5.293  13.140 -0.2055  0.2331  0.2792
15186TIP3    H166973   6.035   5.217  13.175 -0.8468 -0.5165 -2.0507
15186TIP3    H266974   6.172   5.283  13.172 -0.1985 -1.7192 -0.2651
15187TIP3   OH266975   0.071   2.441   0.390 -0.1958  0.3177 -0.1020
15187TIP3    H166976   0.059   2.348   0.406  1.1371 -0.3722 -2.5442
15187TIP3    H266977   0.155   2.462   0.431  0.4759 -0.0717 -1.2464
15188TIP3   OH266978   3.047   1.897  16.498 -0.3761 -0.3102  0.0600
15188TIP3    H166979   3.068   1.988  16.475 -1.2972 -0.3483 -1.0013
15188TIP3    H266980   2.952   1.893  16.496 -0.3695 -1.1431  0.7963
15189TIP3   OH266981   1.865   2.515  13.373 -0.2416  0.4834 -0.2710
15189TIP3    H166982   1.888   2.432  13.415  0.5712  0.2739 -1.1126
15189TIP3    H266983   1.929   2.526  13.304 -0.5330  1.6708 -0.3753
15190TIP3   OH266984   2.971   3.823  15.585 -0.6914  0.6366 -0.0659
15190TIP3    H166985   2.915   3.901  15.581 -0.8475  0.7855  2.7981
15190TIP3    H266986   3.052   3.850  15.544 -1.5834  1.4817 -1.3440
15191TIP3   OH266987   0.965   3.027  11.419 -1.0610  0.3574  0.6138
15191TIP3    H166988   1.034   2.994  11.362 -1.4563 -0.3091  0.5095
15191TIP3    H266989   0.919   2.948  11.448 -1.6753  0.7879  0.8095
15192TIP3   OH266990   6.734   3.105   1.551 -0.0636 -0.3328 -0.4387
15192TIP3    H166991   6.732   3.166   1.477 -0.3825 -1.4019 -1.3502
15192TIP3    H266992   6.827   3.090   1.568  0.1145  2.1977  1.3867
15193TIP3   OH266993   0.995   6.602  14.216 -0.6078 -0.1550 -0.4251
15193TIP3    H166994   1.011   6.621  14.124 -5.0355 -0.1334 -1.4197
15193TIP3    H266995   0.973   6.509  14.218 -0.4606 -0.1803  0.6642
15194TIP3   OH266996   3.595   2.659   3.882 -0.0258 -0.0801  0.0240
15194TIP3    H166997   3.567   2.711   3.806  0.2674 -0.7676 -0.5653
15194TIP3    H266998   3.666   2.711   3.921 -1.1007  0.9458  0.6598
15195TIP3   OH266999   3.137   6.440  11.797  0.5078  0.2111 -0.5024
15195TIP3    H167000   3.083   6.366  11.826  0.4486  0.6917  0.6691
15195TIP3    H267001   3.183   6.407  11.720  1.5484 -1.5547  0.7701
15196TIP3   OH267002   0.521   5.080  14.391  0.4080 -0.0812 -0.2270
15196TIP3    H167003   0.525   5.123  14.476 -1.5195  0.4044 -0.3240
15196TIP3    H267004   0.522   5.152  14.328 -1.1486 -0.2089 -0.4513
15197TIP3   OH267005   4.127   4.574   0.279  0.2222 -0.5517 -0.0970
15197TIP3    H167006   4.176   4.494   0.263 -1.0278 -1.3358 -0.0783
15197TIP3    H267007   4.195   4.641   0.292  1.2803 -1.2673 -1.6400
15198TIP3   OH267008   4.208   2.797  14.596 -0.4354 -0.1701  0.0979
15198TIP3    H167009   4.240   2.881  14.630 -0.6366  0.0346 -0.2177
15198TIP3    H267010   4.287   2.746  14.581 -0.3394 -0.2423  0.8178
15199TIP3   OH267011   3.369   1.388  10.895  0.3847 -0.2627  0.1762
15199TIP3    H167012   3.412   1.327  10.835  2.4574  0.5755  0.7139
15199TIP3    H267013   3.343   1.462  10.839  0.6864 -0.2816  0.0044
15200TIP3   OH267014   4.484   0.531  11.497  0.6895  0.5350  0.0181
15200TIP3    H167015   4.423   0.592  11.457  0.4576  0.7482  0.6846
15200TIP3    H267016   4.443   0.445  11.486  0.2037  0.6864  0.5495
15201TIP3   OH267017   3.104   5.068   2.224  0.2332  0.3914 -0.3848
15201TIP3    H167018   3.127   5.153   2.186  0.1149  0.7177  0.2497
15201TIP3    H267019   3.008   5.067   2.224  0.2346  0.2367 -0.4289
15202TIP3   OH267020   2.881   0.636  11.963  0.3567 -0.1025  0.3574
15202TIP3    H167021   2.937   0.714  11.956  1.4682 -1.0015 -1.5228
15202TIP3    H267022   2.878   0.617  12.057  1.0420  1.4914  0.7386
15203TIP3   OH267023   3.175   5.014   3.744  0.2664  0.3507 -0.6240
15203TIP3    H167024   3.247   4.951   3.740 -0.6638 -0.6992 -2.8560
15203TIP3    H267025   3.146   5.011   3.835  0.3912 -2.3796 -0.5752
15204TIP3   OH267026   2.306   3.493   5.898 -0.1251 -0.9979 -0.1990
15204TIP3    H167027   2.289   3.557   5.966  0.2078 -0.8844 -0.2202
15204TIP3    H267028   2.347   3.543   5.827  1.9817 -1.5516  0.5603
15205TIP3   OH267029   2.341   5.847   3.384 -0.5389  0.5262 -0.6390
15205TIP3    H167030   2.261   5.896   3.404 -0.3553 -0.3278  2.7568
15205TIP3    H267031   2.317   5.756   3.400  0.6744  0.0676 -1.3222
15206TIP3   OH267032   1.928   4.783  11.885  0.4171  0.2223  0.6956
15206TIP3    H167033   2.008   4.786  11.937 -0.6121  2.7898  2.3518
15206TIP3    H267034   1.862   4.827  11.939 -1.3523  0.9384 -1.8117
15207TIP3   OH267035   4.278   4.702   3.897  0.4766 -0.2500  0.3406
15207TIP3    H167036   4.237   4.700   3.810  0.1421 -1.2232  0.5094
15207TIP3    H267037   4.315   4.790   3.904 -1.8995  0.8343  0.3166
15208TIP3   OH267038   3.224   6.529   0.980 -0.5075 -0.2483  0.1831
15208TIP3    H167039   3.216   6.449   0.928  0.1927  0.1786 -0.6129
15208TIP3    H267040   3.318   6.538   0.995 -0.6832 -0.2827  1.4223
15209TIP3   OH267041   4.110   3.239  12.142 -0.2508  0.1528 -0.1706
15209TIP3    H167042   4.088   3.146  12.135 -1.9312  0.6122 -2.3615
15209TIP3    H267043   4.178   3.243  12.209 -0.9226 -2.5031  0.8082
15210TIP3   OH267044   3.871   0.107   5.084  0.0806  0.1133 -0.1151
15210TIP3    H167045   3.915   0.115   5.168 -1.0389 -0.8949  0.6183
15210TIP3    H267046   3.782   0.080   5.107 -0.0376 -0.9418 -1.6480
15211TIP3   OH267047   3.865   6.550   1.147  0.3590  0.5027  0.1350
15211TIP3    H167048   3.821   6.517   1.069  0.2486  0.5149  0.1914
15211TIP3    H267049   3.936   6.605   1.114  0.5066  0.2596  0.0407
15212TIP3   OH267050   6.536   4.468   3.204  0.1331  0.3984 -0.2396
15212TIP3    H167051   6.537   4.378   3.171 -1.1963  0.3316 -0.1302
15212TIP3    H267052   6.606   4.470   3.269  0.6203 -0.3628 -0.7218
15213TIP3   OH267053   1.533   5.071   3.730 -0.3863  0.4959 -0.1246
15213TIP3    H167054   1.549   4.990   3.681  0.1870  0.0321  0.8121
15213TIP3    H267055   1.619   5.112   3.739 -0.4552  0.4862  0.6391
15214TIP3   OH267056   3.602   0.064  13.040  0.1377 -0.2460  0.5373
15214TIP3    H167057   3.683   0.014  13.032  0.6619  0.4567  1.2568
15214TIP3    H267058   3.567   0.038  13.126  0.7656  1.0912  1.2239
15215TIP3   OH267059   4.829   5.122  12.781 -0.1190  0.0980  0.3603
15215TIP3    H167060   4.815   5.197  12.724  1.5195  1.6107  1.8588
15215TIP3    H267061   4.768   5.134  12.853 -1.4469 -1.2607 -0.4781
15216TIP3   OH267062   0.128   1.862  11.815 -0.0260  0.2029  0.2566
15216TIP3    H167063   0.071   1.794  11.851  0.3269 -0.4720 -0.4191
15216TIP3    H267064   0.120   1.852  11.720 -1.2311  2.1932  0.1030
15217TIP3   OH267065   0.467   6.422   0.556  0.2093 -0.0898 -0.3952
15217TIP3    H167066   0.383   6.377   0.564 -0.6510  1.5963  0.8242
15217TIP3    H267067   0.531   6.359   0.589 -0.6950 -1.0894 -0.4858
15218TIP3   OH267068   4.253   3.968   4.767  0.6467 -0.2949  0.8515
15218TIP3    H167069   4.183   4.031   4.784  0.8844  0.3497 -0.4697
15218TIP3    H267070   4.207   3.890   4.734  0.5719  0.4629 -0.9519
15219TIP3   OH267071   6.241   6.755  15.744  0.1385 -0.5099 -0.3038
15219TIP3    H167072   6.240   6.850  15.735 -0.1415 -0.2304  2.0319
15219TIP3    H267073   6.333   6.730  15.730  0.3707  0.2094 -0.1017
15220TIP3   OH267074   6.406   6.401   0.562  0.1760  0.2002  0.4907
15220TIP3    H167075   6.494   6.439   0.559 -0.1831  1.1933  1.7559
15220TIP3    H267076   6.368   6.422   0.477  0.6564  1.0639  0.4746
15221TIP3   OH267077   2.007   2.188   3.812 -0.8050  0.5140 -0.0105
15221TIP3    H167078   1.997   2.274   3.852 -1.1704 -0.3175  1.7806
15221TIP3    H267079   2.102   2.175   3.805 -0.7061  0.3678  1.3596
15222TIP3   OH267080   5.417   1.423  11.804  0.0991  0.5987  0.0066
15222TIP3    H167081   5.372   1.503  11.780 -1.0719  0.1765  0.7122
15222TIP3    H267082   5.347   1.362  11.827  0.9851 -0.4849 -0.0901
15223TIP3   OH267083   2.331   6.136   4.039  0.1092  0.3026  0.1481
15223TIP3    H167084   2.255   6.178   3.999 -0.1628 -0.3257 -0.0034
15223TIP3    H267085   2.406   6.189   4.010 -0.3300  1.3899  0.9339
15224TIP3   OH267086   2.811   6.643  16.396 -0.3383 -0.3648  0.1401
15224TIP3    H167087   2.725   6.682  16.379 -0.4887 -0.2109  1.2154
15224TIP3    H267088   2.798   6.549  16.385 -0.6945 -0.3571  0.4864
15225TIP3   OH267089   4.978   2.908  15.246  0.2509 -0.2899 -0.0262
15225TIP3    H167090   4.950   2.939  15.332  2.9926 -0.9309  1.2223
15225TIP3    H267091   4.944   2.819  15.238  0.1329 -0.2871  0.4783
15226TIP3   OH267092   2.495   2.107  13.474 -0.1481 -0.6463  0.5253
15226TIP3    H167093   2.454   2.190  13.450  0.7434 -0.8972 -2.2361
15226TIP3    H267094   2.432   2.065  13.531 -1.8072  0.8112 -0.1295
15227TIP3   OH267095   3.972   6.661  16.905 -0.0294  0.0797 -0.0568
15227TIP3    H167096   3.980   6.720  16.830 -2.2636  0.9890  0.3185
15227TIP3    H267097   4.006   6.712  16.978  1.0617 -0.3625 -0.2443
15228TIP3   OH267098   3.272   3.807  13.072 -0.2600 -0.5759 -0.0089
15228TIP3    H167099   3.308   3.730  13.027 -1.3418  0.5078 -3.0165
15228TIP3    H267100   3.324   3.880  13.038 -2.1811  0.4836 -0.8536
15229TIP3   OH267101   1.083   0.382  14.577 -0.3916 -0.1627 -0.5868
15229TIP3    H167102   1.029   0.305  14.558 -1.4090  0.6900 -1.2185
15229TIP3    H267103   1.054   0.448  14.514 -0.1059  1.0006  0.4700
15230TIP3   OH267104   0.426   4.455   1.366 -0.4643  0.2768  0.3235
15230TIP3    H167105   0.487   4.516   1.324 -0.2620 -0.2097 -0.1006
15230TIP3    H267106   0.454   4.453   1.457  0.7023 -0.5633 -0.0226
15231TIP3   OH267107   1.705   0.809   0.863 -0.1556 -0.2129  0.2015
15231TIP3    H167108   1.692   0.723   0.902  1.1323  0.0536  1.3013
15231TIP3    H267109   1.762   0.855   0.925  1.6610  0.3772 -1.7691
15232TIP3   OH267110   3.408   2.377   5.508  0.2477  0.7980 -0.0274
15232TIP3    H167111   3.490   2.345   5.547 -0.9847 -3.9889 -0.6851
15232TIP3    H267112   3.354   2.401   5.583  0.6913 -0.5068  0.7443
15233TIP3   OH267113   2.920   2.050   3.706  0.1305  0.0044 -0.5964
15233TIP3    H167114   3.001   2.089   3.738  1.1289 -1.3996 -1.2811
15233TIP3    H267115   2.887   2.111   3.640  1.1997  0.1133 -1.0455
15234TIP3   OH267116   1.549   2.516  12.412 -0.4002 -0.0048  0.2702
15234TIP3    H167117   1.567   2.506  12.506  0.8700  1.1761  0.1867
15234TIP3    H267118   1.472   2.573  12.408  1.2932  2.4556  0.6340
15235TIP3   OH267119   1.272   0.781   6.280  0.2441  0.0163 -0.0869
15235TIP3    H167120   1.195   0.768   6.336  0.7797 -0.7786  0.4866
15235TIP3    H267121   1.343   0.800   6.341  1.0868 -2.0422 -0.3573
15236TIP3   OH267122   4.223   2.262   1.126  0.0486 -0.6290 -0.3357
15236TIP3    H167123   4.299   2.320   1.119 -0.2781  0.1079  1.5408
15236TIP3    H267124   4.243   2.204   1.199 -0.7359 -1.1231 -0.4992
15237TIP3   OH267125   4.062   5.978  17.061 -0.0246 -0.0683 -0.1521
15237TIP3    H167126   4.049   6.071  17.080 -0.6625  0.0197 -0.9397
15237TIP3    H267127   4.064   5.936  17.147  0.1068  0.6512  0.2064
15238TIP3   OH267128   1.926   3.161   6.210  0.1420 -0.0830 -0.1175
15238TIP3    H167129   2.007   3.210   6.196  1.4318 -1.2208  2.6078
15238TIP3    H267130   1.857   3.227   6.207  1.4012  1.2734 -0.4007
15239TIP3   OH267131   6.221   1.053   5.287  0.6219  0.4437  0.2555
15239TIP3    H167132   6.291   1.012   5.236  1.1653  0.4918  0.9455
15239TIP3    H267133   6.249   1.144   5.295 -0.2891  0.8281 -0.7717
15240TIP3   OH267134   5.415   4.688  12.153  0.2034  0.0040 -0.4373
15240TIP3    H167135   5.463   4.689  12.236 -0.3569  0.1051 -0.1126
15240TIP3    H267136   5.356   4.612  12.160 -1.5687  1.3854  0.2596
15241TIP3   OH267137   6.020   1.247   0.975 -0.0770  0.2335  0.6258
15241TIP3    H167138   6.056   1.174   0.925  0.1351  0.2682  0.7252
15241TIP3    H267139   5.977   1.302   0.910  3.1177  2.1053 -0.1321
15242TIP3   OH267140   2.575   3.052  14.646  0.7522 -0.1727 -0.0487
15242TIP3    H167141   2.634   3.021  14.715  0.7316  0.2463  0.1595
15242TIP3    H267142   2.533   2.973  14.613  0.8811 -0.3915  0.3099
15243TIP3   OH267143   1.730   5.375  12.217 -0.1877  0.4530  0.0096
15243TIP3    H167144   1.662   5.442  12.229 -0.7456 -0.2388  0.7796
15243TIP3    H267145   1.812   5.424  12.219 -0.6607  1.3213 -1.0840
15244TIP3   OH267146   2.444   4.064   0.820 -0.4664 -0.5779 -0.0069
15244TIP3    H167147   2.360   4.097   0.787 -0.0428  0.1272 -0.3887
15244TIP3    H267148   2.509   4.102   0.761  0.0449 -2.0344 -0.4244
15245TIP3   OH267149   6.547   5.994  15.054 -0.3182  0.0197 -0.4962
15245TIP3    H167150   6.565   5.967  14.965  0.8227 -0.1031 -0.2411
15245TIP3    H267151   6.605   5.941  15.108 -0.5149  0.5597  0.2669
15246TIP3   OH267152   5.000   5.103   4.417 -0.1002  0.5379 -0.8700
15246TIP3    H167153   5.000   5.049   4.497  0.3892  0.3684 -0.9780
15246TIP3    H267154   5.074   5.068   4.366  0.7160  1.8099 -0.6009
15247TIP3   OH267155   6.015   2.072  12.024 -0.5210 -0.5613 -0.1559
15247TIP3    H167156   6.092   2.048  11.973 -0.4804 -1.0843  0.1430
15247TIP3    H267157   5.973   2.142  11.973 -0.4101 -0.9786 -0.8299
15248TIP3   OH267158   0.699   2.577   4.516 -0.3863  0.3840 -0.6701
15248TIP3    H167159   0.655   2.506   4.470  0.4556 -0.2044 -0.5844
15248TIP3    H267160   0.659   2.578   4.603 -0.7890  0.3843 -0.8548
15249TIP3   OH267161   2.864   4.916  13.810  0.2567  0.0849  0.6594
15249TIP3    H167162   2.909   4.878  13.886  0.6791  0.8293  0.7916
15249TIP3    H267163   2.864   5.010  13.827  0.3706  0.2586 -0.2786
15250TIP3   OH267164   6.577   0.888   0.415 -0.0066  0.8820 -0.6354
15250TIP3    H167165   6.659   0.937   0.411  0.8903 -0.1453  2.4542
15250TIP3    H267166   6.578   0.833   0.336  4.2825 -1.9046  0.9995
15251TIP3   OH267167   6.198   2.585   2.494 -0.2009 -0.7669  0.0418
15251TIP3    H167168   6.143   2.632   2.557 -0.2989  1.1347 -1.3932
15251TIP3    H267169   6.203   2.642   2.418  1.8278 -1.9522 -0.8068
15252TIP3   OH267170   2.298   5.296  15.408 -0.0994  0.2556 -1.0581
15252TIP3    H167171   2.359   5.224  15.424 -1.8434 -0.9357  0.7217
15252TIP3    H267172   2.353   5.368  15.377  2.0777 -0.9878 -0.3072
15253TIP3   OH267173   3.853   6.215   4.527 -0.4409 -0.2517  0.6793
15253TIP3    H167174   3.869   6.308   4.517  3.3829 -0.4543  2.8372
15253TIP3    H267175   3.812   6.207   4.614 -1.3351 -0.5706  0.2394
15254TIP3   OH267176   1.071   5.943   3.747 -0.1090  0.2844 -0.5110
15254TIP3    H167177   1.084   5.981   3.660 -0.5963 -0.9701 -1.1595
15254TIP3    H267178   1.148   5.888   3.760  1.2782  2.4169  0.9948
15255TIP3   OH267179   5.007   6.756   1.594 -0.0095  0.5711  0.3665
15255TIP3    H167180   5.059   6.773   1.516 -1.4317  1.7204 -0.3674
15255TIP3    H267181   5.021   6.833   1.650 -0.3115  0.5262  0.5058
15256TIP3   OH267182   5.602   0.463  14.934  0.0586  0.3028  0.0689
15256TIP3    H167183   5.696   0.479  14.946 -0.1653  0.5595  1.7833
15256TIP3    H267184   5.561   0.509  15.007 -1.1968 -2.0466  0.9617
15257TIP3   OH267185   1.811   4.825  13.338 -0.2121  0.1882  0.8955
15257TIP3    H167186   1.737   4.885  13.350 -0.8069 -0.2147 -0.5846
15257TIP3    H267187   1.888   4.882  13.335 -0.8388  1.0145 -1.3376
15258TIP3   OH267188   1.979   1.999   4.774 -0.0259 -0.1393 -0.2413
15258TIP3    H167189   2.037   1.966   4.842  0.5334 -0.7599 -0.9992
15258TIP3    H267190   2.000   2.093   4.769 -1.2547  0.2745  1.5583
15259TIP3   OH267191   5.667   6.345  13.107 -0.5806  0.0966 -0.1686
15259TIP3    H167192   5.690   6.280  13.039  1.0653 -0.6116  1.0012
15259TIP3    H267193   5.748   6.393  13.122 -1.3553  1.3155  0.1934
15260TIP3   OH267194   3.797   6.636  13.216  0.0716 -0.0239  0.3916
15260TIP3    H167195   3.776   6.680  13.299 -0.9486 -0.0817  0.1839
15260TIP3    H267196   3.743   6.556  13.217 -0.1678  0.1156 -0.4476
15261TIP3   OH267197   6.248   3.282   2.347 -0.2136 -0.3326 -0.1444
15261TIP3    H167198   6.311   3.354   2.347  0.8148 -1.2174 -0.0530
15261TIP3    H267199   6.294   3.208   2.307 -2.1399 -0.2212 -2.8639
15262TIP3   OH267200   5.539   4.675  16.884  0.0039 -0.7212 -1.0983
15262TIP3    H167201   5.568   4.583  16.883  0.8335 -0.4909 -0.0920
15262TIP3    H267202   5.601   4.720  16.827  0.7790 -0.4816 -0.1019
15263TIP3   OH267203   3.511   5.057  12.249  0.1133  0.1698 -0.4664
15263TIP3    H167204   3.533   4.969  12.217  1.7375  0.8595 -1.3932
15263TIP3    H267205   3.497   5.108  12.169 -1.4242  0.6314  0.0742
15264TIP3   OH267206   1.542   3.023   0.327 -0.0107  0.4529  0.3043
15264TIP3    H167207   1.576   3.033   0.416 -0.1402 -0.2280  0.4379
15264TIP3    H267208   1.456   3.066   0.329 -0.7190 -0.9262  0.9612
15265TIP3   OH267209   0.409   2.710  10.549 -0.3547 -0.1306 -0.3290
15265TIP3    H167210   0.492   2.693  10.593 -0.5603  0.1624  0.1858
15265TIP3    H267211   0.432   2.722  10.457  0.0620 -0.9333 -0.3343
15266TIP3   OH267212   1.764   3.235  13.775 -0.4610  0.0918  0.5897
15266TIP3    H167213   1.832   3.215  13.839 -0.4041  0.8956  0.7950
15266TIP3    H267214   1.748   3.152  13.729  1.2204  0.0681 -0.0045
15267TIP3   OH267215   3.093   4.319   4.980 -0.3599 -0.2592 -0.3801
15267TIP3    H167216   3.074   4.253   5.047 -3.0827 -1.0851 -1.7869
15267TIP3    H267217   3.045   4.397   5.008  0.4632  0.1966 -0.2004
15268TIP3   OH267218   0.279   3.872   5.397  0.5948 -0.1524  0.3833
15268TIP3    H167219   0.309   3.795   5.349 -0.3250 -1.2669  1.5135
15268TIP3    H267220   0.251   3.933   5.329  2.1548 -0.4280 -0.5716
15269TIP3   OH267221   6.104   0.414   3.474  0.6530 -0.5671 -0.0108
15269TIP3    H167222   6.067   0.501   3.488  0.1440 -0.7029 -0.4629
15269TIP3    H267223   6.165   0.425   3.401  1.5857 -0.3283  0.7804
15270TIP3   OH267224   1.494   1.985  12.263  0.1312 -0.0069 -0.5607
15270TIP3    H167225   1.563   2.030  12.215  0.2618  0.2900 -0.1018
15270TIP3    H267226   1.413   2.019  12.225  0.2303 -0.5441 -1.2748
15271TIP3   OH267227   4.553   4.753  11.478  0.6349 -0.5040 -0.5290
15271TIP3    H167228   4.529   4.675  11.427  0.7080  1.0034 -3.0569
15271TIP3    H267229   4.600   4.808  11.415 -0.0166  1.8903  0.9736
15272TIP3   OH267230   1.784   2.954   3.816 -0.0348  0.0727 -0.3640
15272TIP3    H167231   1.705   2.908   3.786  0.0115  0.4634 -1.1144
15272TIP3    H267232   1.752   3.040   3.843 -0.2547 -0.6246  1.8347
15273TIP3   OH267233   3.142   2.271   0.073  0.5576 -0.0948 -0.3324
15273TIP3    H167234   3.138   2.278  -0.022  0.9704 -0.3601 -0.3745
15273TIP3    H267235   3.051   2.271   0.102  0.4458  0.6350 -0.6730
15274TIP3   OH267236   1.397   4.031  12.910 -0.1324 -0.7227  0.0893
15274TIP3    H167237   1.312   3.994  12.934  0.3337 -2.0048 -0.1203
15274TIP3    H267238   1.451   4.020  12.988 -0.7579  2.2323  1.0500
15275TIP3   OH267239   4.376   1.148   0.502 -0.3017 -0.0140 -0.2700
15275TIP3    H167240   4.367   1.111   0.414 -0.1456 -0.0907 -0.2537
15275TIP3    H267241   4.427   1.083   0.550 -0.8829 -0.2430  0.0454
15276TIP3   OH267242   4.468   6.190   4.622  0.3237 -0.0075 -0.5853
15276TIP3    H167243   4.510   6.116   4.578 -1.0138  0.0980 -2.1542
15276TIP3    H267244   4.381   6.195   4.583 -1.2377 -0.2450  2.5303
15277TIP3   OH267245   6.452   3.537   5.301 -0.4116 -0.2296 -0.2219
15277TIP3    H167246   6.372   3.487   5.317 -0.8435  0.1097 -1.2585
15277TIP3    H267247   6.463   3.537   5.206  3.3912 -4.2871 -0.0993
15278TIP3   OH267248   3.585   2.473   1.919  0.5355  0.3715 -0.2122
15278TIP3    H167249   3.627   2.390   1.941 -0.0110 -0.5043 -2.2674
15278TIP3    H267250   3.657   2.535   1.910  0.9044  0.3831  2.1042
15279TIP3   OH267251   1.036   1.627  16.437 -0.6906 -0.0405 -0.4043
15279TIP3    H167252   0.955   1.609  16.390 -0.2300 -0.7791 -0.9456
15279TIP3    H267253   1.096   1.659  16.370 -0.7769  1.3610  0.1368
15280TIP3   OH267254   0.706   4.320   4.707 -0.2939  0.3116  0.2599
15280TIP3    H167255   0.752   4.385   4.760 -1.3011  0.3714  1.0891
15280TIP3    H267256   0.703   4.357   4.619  0.0032  0.9267  0.5061
15281TIP3   OH267257   2.581   5.576   1.919 -0.5568  0.1861  0.0410
15281TIP3    H167258   2.562   5.504   1.978  0.5223 -0.9308 -0.9203
15281TIP3    H267259   2.495   5.616   1.901 -1.0124 -0.0981  1.5038
15282TIP3   OH267260   0.514   5.338   0.246 -0.0405 -0.6017  0.3978
15282TIP3    H167261   0.538   5.262   0.299 -0.4400 -1.2383 -0.3093
15282TIP3    H267262   0.419   5.330   0.235  0.0744 -0.6485 -0.6520
15283TIP3   OH267263   0.797   3.621  15.090  0.1972 -0.0709  0.0527
15283TIP3    H167264   0.846   3.654  15.166  0.0851 -1.4817  0.7586
15283TIP3    H267265   0.726   3.570  15.127 -1.2153  1.0726 -0.9877
15284TIP3   OH267266   3.626   1.318  13.741 -0.1047  0.6657 -0.2980
15284TIP3    H167267   3.708   1.354  13.706  0.3867 -0.4144 -0.3066
15284TIP3    H267268   3.585   1.275  13.666  0.5773 -0.9944  0.2276
15285TIP3   OH267269   2.603   3.451  16.878 -0.9158 -0.1613  0.6266
15285TIP3    H167270   2.539   3.387  16.849  0.4275 -1.9298  1.3542
15285TIP3    H267271   2.677   3.441  16.817  0.4063 -1.2921  2.3065
15286TIP3   OH267272   4.621   5.809   0.940  0.2371 -0.2137 -0.1808
15286TIP3    H167273   4.551   5.837   0.999 -2.0929 -2.7909 -1.5019
15286TIP3    H267274   4.606   5.859   0.859  0.1500 -0.5091 -0.3472
15287TIP3   OH267275   3.961   5.415  15.983  0.2801  0.0250  0.6600
15287TIP3    H167276   4.035   5.358  15.961 -0.1818 -0.5183  0.4709
15287TIP3    H267277   3.945   5.399  16.076 -0.2611 -0.6751  0.4656
15288TIP3   OH267278   4.765   1.696   0.772 -0.3597 -0.6523  0.2223
15288TIP3    H167279   4.774   1.641   0.694 -1.8853 -1.0035  0.2523
15288TIP3    H267280   4.825   1.657   0.836  1.0872 -0.2092 -0.8341
15289TIP3   OH267281   2.578   3.451   2.728  0.1732  0.0614  1.1162
15289TIP3    H167282   2.567   3.386   2.798 -2.1644  0.8102  1.5180
15289TIP3    H267283   2.669   3.481   2.737  0.7670 -1.8337  2.0431
15290TIP3   OH267284   6.006   4.226   3.397  0.5698 -0.0475 -0.2421
15290TIP3    H167285   5.920   4.235   3.356  0.1561  0.3985  0.6721
15290TIP3    H267286   6.009   4.297   3.461  1.7814  0.1722 -0.5191
15291TIP3   OH267287   4.864   2.651  16.735  0.4756 -0.2493  0.1442
15291TIP3    H167288   4.804   2.640  16.661  0.3420 -0.3339  0.2648
15291TIP3    H267289   4.931   2.584  16.721  1.5348  0.9739 -0.9539
15292TIP3   OH267290   4.343   5.725   3.229 -0.1769  0.5519  0.0716
15292TIP3    H167291   4.431   5.687   3.236 -0.1542  0.8373  1.6584
15292TIP3    H267292   4.347   5.805   3.281 -1.8687 -0.3674  1.7101
15293TIP3   OH267293   5.821   2.098  15.054 -0.2193 -0.4625 -0.0784
15293TIP3    H167294   5.757   2.038  15.092 -0.8669  0.8299  0.9573
15293TIP3    H267295   5.770   2.154  14.995  0.3944 -0.9721 -1.1267
15294TIP3   OH267296   4.394   5.387   5.331 -0.0826 -0.2168  0.5728
15294TIP3    H167297   4.411   5.336   5.411  1.8703 -0.4553  0.0408
15294TIP3    H267298   4.479   5.422   5.306 -0.8564  0.7289 -0.8423
15295TIP3   OH267299   2.399   5.856   2.710  0.0230  0.5415  0.4857
15295TIP3    H167300   2.445   5.833   2.791  1.0019  0.2910 -0.1264
15295TIP3    H267301   2.332   5.788   2.701  0.2217  0.2929  0.8375
15296TIP3   OH267302   2.420   3.443  14.080  0.1663 -0.0627  0.0335
15296TIP3    H167303   2.486   3.492  14.129  0.6623  0.4000 -1.0487
15296TIP3    H267304   2.455   3.354  14.076 -0.1857 -0.2617  1.0300
15297TIP3   OH267305   0.428   5.336  12.345  0.4765  0.0181 -0.5474
15297TIP3    H167306   0.344   5.333  12.300  0.8177 -0.2899 -1.1832
15297TIP3    H267307   0.491   5.305  12.279  1.0939  0.3240 -0.1057
15298TIP3   OH267308   5.766   2.369  15.855 -0.0810 -0.5438  0.2165
15298TIP3    H167309   5.855   2.336  15.867 -0.8086 -2.6538  0.1091
15298TIP3    H267310   5.729   2.372  15.943 -0.6833 -2.0577  0.0370
15299TIP3   OH267311   0.184   2.311  15.245  0.0794 -0.2547  0.4534
15299TIP3    H167312   0.187   2.278  15.155 -0.4415 -1.1598  0.7614
15299TIP3    H267313   0.091   2.323  15.263  0.2387  2.4164  0.0080
15300TIP3   OH267314   1.927   1.292  15.558 -0.4633 -0.6270 -0.5525
15300TIP3    H167315   1.887   1.317  15.642  1.8327 -0.8806  0.7153
15300TIP3    H267316   1.987   1.220  15.581  1.3058  0.2512 -2.1139
15301TIP3   OH267317   5.131   5.312   4.972 -0.4602  0.5100 -0.0229
15301TIP3    H167318   5.222   5.290   4.993 -0.7213  0.7809  1.5412
15301TIP3    H267319   5.126   5.305   4.877  0.9606 -0.4109 -0.0651
15302TIP3   OH267320   6.186   5.536   3.055 -0.0606 -0.6462 -0.7221
15302TIP3    H167321   6.150   5.561   3.140 -0.6829 -0.0976 -1.1328
15302TIP3    H267322   6.218   5.447   3.068 -0.5509 -0.7336 -0.0285
15303TIP3   OH267323   3.444   6.659   1.509 -0.2999  0.1371 -0.2513
15303TIP3    H167324   3.538   6.665   1.498 -0.3039 -0.6343 -0.7804
15303TIP3    H267325   3.412   6.618   1.429 -1.0777  0.3288 -0.0530
15304TIP3   OH267326   5.174   3.392   2.963 -0.0927 -0.1043  0.7285
15304TIP3    H167327   5.215   3.312   2.930  0.6433  0.4726  0.1993
15304TIP3    H267328   5.083   3.368   2.980 -0.3878 -0.5644 -1.2559
15305TIP3   OH267329   1.721   2.400   3.895  0.1036 -0.4655 -0.1171
15305TIP3    H167330   1.699   2.460   3.966  1.2858 -0.3110  0.1513
15305TIP3    H267331   1.660   2.421   3.825 -0.0696  0.4524  0.2984
15306TIP3   OH267332   1.524   5.538  11.712  0.0154  0.0563  0.2414
15306TIP3    H167333   1.525   5.571  11.801 -0.2649 -1.3911  0.7970
15306TIP3    H267334   1.437   5.501  11.700 -0.2475  0.9826 -0.9322
15307TIP3   OH267335   3.754   0.696  15.802  0.0571 -0.2308  0.4711
15307TIP3    H167336   3.802   0.729  15.726  0.6733  0.1866  1.0344
15307TIP3    H267337   3.789   0.608  15.817 -0.4059 -0.5035 -0.0139
15308TIP3   OH267338   4.840   4.137  12.096 -0.3141  0.2037 -0.7990
15308TIP3    H167339   4.803   4.071  12.155 -0.2115  1.7184  1.0481
15308TIP3    H267340   4.798   4.120  12.012 -2.2781 -0.5509  0.2716
15309TIP3   OH267341   2.052   1.079   5.104  0.1488 -0.5399 -0.4573
15309TIP3    H167342   2.084   1.147   5.045 -0.4056 -0.8726 -1.1480
15309TIP3    H267343   1.958   1.094   5.109  0.3236  0.3333  1.4342
15310TIP3   OH267344   3.310   0.351  13.364 -0.4788 -0.0756 -0.0256
15310TIP3    H167345   3.349   0.264  13.375 -1.8546 -0.6449  0.5061
15310TIP3    H267346   3.216   0.336  13.372 -0.6710  1.6720  1.4211
15311TIP3   OH267347   0.264   1.241   6.716 -0.4498  0.2665  0.6544
15311TIP3    H167348   0.181   1.285   6.735 -0.8639 -0.7335  1.2441
15311TIP3    H267349   0.329   1.311   6.719 -1.0547  0.8059  1.7842
15312TIP3   OH267350   4.467   3.716  14.065 -0.0564 -0.4336 -0.3644
15312TIP3    H167351   4.428   3.802  14.082 -0.7669 -0.9213  0.5919
15312TIP3    H267352   4.518   3.697  14.144  2.0660  0.1252 -1.5360
15313TIP3   OH267353   4.624   5.246   1.095 -0.6305  0.7090 -0.3052
15313TIP3    H167354   4.634   5.330   1.050 -1.2304  1.4259  0.8316
15313TIP3    H267355   4.713   5.222   1.121 -0.6149  1.8945  0.8628
15314TIP3   OH267356   2.383   4.923   5.199  0.6028 -0.5255 -0.1933
15314TIP3    H167357   2.422   4.836   5.204  0.5839 -0.5299 -0.1115
15314TIP3    H267358   2.328   4.930   5.278 -0.1243 -0.7913 -0.6670
15315TIP3   OH267359   2.012   1.915   3.061  0.3619 -0.2031 -0.0102
15315TIP3    H167360   2.005   1.838   3.005  0.2787 -0.6423  0.6022
15315TIP3    H267361   1.993   1.883   3.149  1.3260  0.3110  0.3953
15316TIP3   OH267362   3.625   0.897   2.940 -1.0657  0.5988  0.1177
15316TIP3    H167363   3.635   0.940   3.025 -0.5454  1.1861 -0.2354
15316TIP3    H267364   3.590   0.965   2.882 -0.1810  0.5864 -0.4579
15317TIP3   OH267365   2.892   5.258   5.402  0.2225 -0.2110  0.1771
15317TIP3    H167366   2.971   5.242   5.352  0.0576  0.3398 -0.2758
15317TIP3    H267367   2.921   5.265   5.493  0.7195  0.1740 -0.0089
15318TIP3   OH267368   2.405   2.781  10.487  0.2876  0.3740 -0.4317
15318TIP3    H167369   2.427   2.691  10.511  0.9744  0.6221 -0.1193
15318TIP3    H267370   2.472   2.806  10.424  1.4350  1.4196  1.1429
15319TIP3   OH267371   1.232   2.839  13.534 -0.6007  0.2520  0.0029
15319TIP3    H167372   1.241   2.798  13.448 -1.6312  1.0105 -0.4965
15319TIP3    H267373   1.145   2.813  13.564 -1.5121  2.3977 -0.5679
15320TIP3   OH267374   4.508   6.191   2.143 -0.5859  0.4213 -0.2860
15320TIP3    H167375   4.584   6.153   2.187 -0.4665 -0.7409 -1.4293
15320TIP3    H267376   4.454   6.226   2.214 -1.0571 -2.5539  0.9898
15321TIP3   OH267377   2.556   3.144   1.041  0.1482  0.3501  0.1403
15321TIP3    H167378   2.468   3.169   1.072  0.1988 -0.1156  0.6869
15321TIP3    H267379   2.559   3.049   1.053  0.4962  0.2789 -0.4957
15322TIP3   OH267380   1.488   3.727  14.285 -0.3017 -0.4996  0.2913
15322TIP3    H167381   1.432   3.677  14.226 -0.0848 -0.2866 -0.0981
15322TIP3    H267382   1.432   3.747  14.360 -1.0175  0.4829 -0.4897
15323TIP3   OH267383   4.158   0.720  15.679  0.0246  0.6578  0.2113
15323TIP3    H167384   4.238   0.681  15.714 -0.4652 -1.1549 -0.5682
15323TIP3    H267385   4.090   0.694  15.740 -0.2473  0.6645 -0.0877
15324TIP3   OH267386   2.922   6.114  14.752  0.7718  0.6841  0.0137
15324TIP3    H167387   2.991   6.179  14.736  1.6532 -0.1071  0.4987
15324TIP3    H267388   2.908   6.117  14.847 -2.6116  3.5353 -0.4049
15325TIP3   OH267389   4.857   0.234  16.830 -0.3099 -0.2548 -0.6046
15325TIP3    H167390   4.916   0.173  16.784 -0.5894  0.5037 -2.0360
15325TIP3    H267391   4.913   0.279  16.893  0.1329 -1.1732 -0.3160
15326TIP3   OH267392   2.218   3.345   0.171  0.0920  0.2747 -0.0700
15326TIP3    H167393   2.156   3.380   0.235  0.2715  0.7832 -0.1653
15326TIP3    H267394   2.304   3.376   0.202 -0.0182  2.7717 -1.9255
15327TIP3   OH267395   1.814   0.660  11.272 -0.3569 -0.1234 -0.5914
15327TIP3    H167396   1.731   0.639  11.229 -0.9458 -0.1497  0.5163
15327TIP3    H267397   1.795   0.737  11.326  1.0675  1.6130 -2.4317
15328TIP3   OH267398   5.969   0.369  11.738  0.3611  0.2742  0.4445
15328TIP3    H167399   5.974   0.411  11.824 -2.7614  2.1411 -0.1307
15328TIP3    H267400   5.949   0.278  11.757 -0.2010  0.6369  1.7343
15329TIP3   OH267401   5.800   1.146  15.275 -0.1038 -0.1066  0.0604
15329TIP3    H167402   5.710   1.114  15.270 -0.2515  0.3407 -0.2075
15329TIP3    H267403   5.812   1.170  15.367 -0.1244 -0.5413  0.1798
15330TIP3   OH267404   6.298   5.800  13.188  0.4533 -0.3161 -0.0494
15330TIP3    H167405   6.305   5.864  13.116  0.2627  0.8120  0.8942
15330TIP3    H267406   6.231   5.739  13.158 -0.5440  0.8606 -0.3359
15331TIP3   OH267407   1.382   0.643   5.803 -0.0330  0.0870 -0.2234
15331TIP3    H167408   1.313   0.668   5.864 -1.1042 -0.1400 -1.3163
15331TIP3    H267409   1.337   0.603   5.730  1.1867  0.7002 -1.3622
15332TIP3   OH267410   5.242   1.423   1.070  0.0535  0.6052 -0.1481
15332TIP3    H167411   5.288   1.437   0.988  0.0104 -1.6156 -0.6274
15332TIP3    H267412   5.188   1.345   1.054  0.0427  0.1125  1.9725
15333TIP3   OH267413   3.930   0.359   1.844 -0.4964 -0.3051  0.3387
15333TIP3    H167414   3.891   0.416   1.778 -0.2058 -1.2273 -0.6602
15333TIP3    H267415   3.920   0.407   1.926 -3.4449 -0.3734  0.0979
15334TIP3   OH267416   2.330   6.264  14.361  0.4708 -0.1929 -0.2111
15334TIP3    H167417   2.410   6.286  14.313  0.3919  0.4060 -0.0802
15334TIP3    H267418   2.315   6.171  14.343  0.5399 -0.0179 -1.1990
15335TIP3   OH267419   5.454   6.613  10.556  0.8324 -0.0820 -0.0723
15335TIP3    H167420   5.549   6.599  10.555  1.2123  1.6692  2.0603
15335TIP3    H267421   5.419   6.538  10.604  0.9834 -1.2295 -1.6954
15336TIP3   OH267422   5.974   0.130  12.317 -0.4212 -0.3872 -0.3013
15336TIP3    H167423   5.937   0.044  12.301 -4.2495  0.9114  0.5046
15336TIP3    H267424   5.954   0.180  12.238 -0.2694  0.3465  0.1122
15337TIP3   OH267425   2.534   0.582  11.023 -0.1020 -0.5545 -0.1456
15337TIP3    H167426   2.472   0.606  10.955 -0.0459 -0.4176 -0.1481
15337TIP3    H267427   2.502   0.626  11.102  0.9912  1.0119 -0.5296
15338TIP3   OH267428   1.780   2.847  10.328  0.0104  0.3174 -0.3705
15338TIP3    H167429   1.693   2.855  10.289 -0.0923 -0.0994 -0.2352
15338TIP3    H267430   1.821   2.932  10.314 -0.4980  0.5825 -0.2420
15339TIP3   OH267431   4.674   0.001   3.161  0.2042  0.6134  0.1814
15339TIP3    H167432   4.698   0.015   3.253  0.8763  3.7109 -0.3369
15339TIP3    H267433   4.594   0.053   3.149 -1.0629 -1.4082 -0.5435
15340TIP3   OH267434   1.628   2.470  14.832 -0.2971 -0.0637  0.3465
15340TIP3    H167435   1.627   2.507  14.921  1.5255 -0.6194  0.6410
15340TIP3    H267436   1.704   2.511  14.790 -1.7742  1.0295 -1.3750
15341TIP3   OH267437   1.711   5.169  15.726 -0.2479  0.2360 -0.8075
15341TIP3    H167438   1.616   5.179  15.729 -0.1574  1.0039  1.2098
15341TIP3    H267439   1.734   5.179  15.633 -2.0697  0.6538 -1.2423
15342TIP3   OH267440   6.060   3.360  11.191 -0.5830 -0.0227  0.5180
15342TIP3    H167441   6.020   3.273  11.197  0.3167 -0.8351 -2.9083
15342TIP3    H267442   6.141   3.346  11.141  0.5443  2.5471  1.4457
15343TIP3   OH267443   6.589   0.015   0.326 -0.3088 -0.0280 -0.3987
15343TIP3    H167444   6.578  -0.073   0.290  1.9643  0.6281 -3.0051
15343TIP3    H267445   6.683   0.022   0.343 -0.0790  2.5337 -2.1922
15344TIP3   OH267446   2.658   3.326   5.379 -0.3438 -0.5345  0.5663
15344TIP3    H167447   2.751   3.306   5.382 -0.1946  0.1984  1.3441
15344TIP3    H267448   2.626   3.279   5.302  0.7668 -0.3818 -0.0169
15345TIP3   OH267449   1.062   6.130   3.944  0.5731  0.0991  0.1675
15345TIP3    H167450   1.157   6.137   3.934  0.2910  2.4089 -2.3126
15345TIP3    H267451   1.037   6.057   3.888  0.7685  0.3714 -0.2763
15346TIP3   OH267452   3.096   1.105  14.013  0.0706  0.3566  0.5188
15346TIP3    H167453   3.188   1.109  13.986 -0.0258 -0.3186  0.0748
15346TIP3    H267454   3.055   1.049  13.948 -0.9697  1.8324 -0.1494
15347TIP3   OH267455   5.682   4.217  11.335  0.2002  0.1181  0.3961
15347TIP3    H167456   5.670   4.268  11.415  0.8365  0.2715  0.3953
15347TIP3    H267457   5.594   4.210  11.298 -0.1891 -0.3895  1.3753
15348TIP3   OH267458   4.951   3.354   0.638  0.2443 -0.6026 -0.3096
15348TIP3    H167459   5.004   3.365   0.560 -0.1015  3.8190 -0.1986
15348TIP3    H267460   5.014   3.341   0.709  0.9304  0.3210 -0.7323
15349TIP3   OH267461   2.180   2.343  13.904 -0.3174 -0.0472  0.1872
15349TIP3    H167462   2.236   2.266  13.895 -1.3875 -0.8227 -0.0674
15349TIP3    H267463   2.218   2.407  13.845  1.2451  0.0302  1.2273
15350TIP3   OH267464   5.665   6.170  15.687 -0.1044  0.0499 -0.4976
15350TIP3    H167465   5.634   6.131  15.605  0.7229 -1.0666 -0.2886
15350TIP3    H267466   5.620   6.255  15.691 -3.1177 -1.4395 -0.2139
15351TIP3   OH267467   3.534   2.638   1.701  0.8085  0.2875  0.2626
15351TIP3    H167468   3.497   2.560   1.741 -0.1808 -0.3362 -1.7202
15351TIP3    H267469   3.582   2.681   1.772 -1.5229 -0.2589  2.3328
15352TIP3   OH267470   5.676   6.504   3.009 -0.1816 -0.7160  0.0773
15352TIP3    H167471   5.698   6.536   2.922  1.1304  0.5538  0.8335
15352TIP3    H267472   5.739   6.434   3.026 -0.4721 -1.0019  0.0019
15353TIP3   OH267473   0.640   2.646  15.948  0.3281 -0.6276 -0.2683
15353TIP3    H167474   0.672   2.735  15.959 -1.0181 -0.3790  2.2565
15353TIP3    H267475   0.598   2.647  15.862 -0.4686  1.4527  0.0855
15354TIP3   OH267476   2.338   6.774  15.122  0.1616  0.2432 -0.8273
15354TIP3    H167477   2.418   6.787  15.174  0.8041 -1.3938 -1.3332
15354TIP3    H267478   2.274   6.832  15.163  0.3924 -1.5301  2.3848
15355TIP3   OH267479   0.108   4.862  10.745  0.1304 -0.3337  0.1530
15355TIP3    H167480   0.139   4.850  10.655 -0.3328  2.2588 -0.4458
15355TIP3    H267481   0.187   4.871  10.797  0.4420 -3.0758  0.3120
15356TIP3   OH267482   0.224   5.313  15.511  0.3150  0.6583  0.0948
15356TIP3    H167483   0.242   5.287  15.421  1.3020  1.0839  0.1591
15356TIP3    H267484   0.165   5.388  15.503 -0.5458 -0.0273 -0.1525
15357TIP3   OH267485   3.866   5.426  10.903 -0.0419  0.2347  0.4592
15357TIP3    H167486   3.776   5.428  10.872  0.2857  1.1229 -0.4741
15357TIP3    H267487   3.865   5.477  10.984 -0.5183 -0.4467  0.9002
15358TIP3   OH267488   5.830   0.661   5.153 -0.2126 -0.2221  0.8636
15358TIP3    H167489   5.741   0.638   5.180 -0.3807  1.4151  1.8081
15358TIP3    H267490   5.829   0.652   5.058 -1.4582 -0.0419  0.8481
15359TIP3   OH267491   4.592   0.590   4.633 -0.7925  0.3135 -0.4251
15359TIP3    H167492   4.544   0.512   4.663 -3.0579  1.4107 -0.9833
15359TIP3    H267493   4.614   0.572   4.542 -2.5485  0.8390 -0.9791
15360TIP3   OH267494   4.451   3.921  15.061  0.8905 -0.4367  0.2101
15360TIP3    H167495   4.422   3.946  14.974  0.5446  0.3694  0.5486
15360TIP3    H267496   4.538   3.883  15.047  0.3935 -1.3155 -0.6065
15361TIP3   OH267497   5.872   5.413  16.146  0.2903 -0.6234  0.7769
15361TIP3    H167498   5.779   5.394  16.143  0.3224 -0.6747 -0.7397
15361TIP3    H267499   5.911   5.353  16.083  0.9787  1.2491 -0.6631
15362TIP3   OH267500   5.018   0.873   1.380  0.1057 -0.3977  0.2411
15362TIP3    H167501   4.927   0.904   1.384  0.3022  0.0692  2.0999
15362TIP3    H267502   5.017   0.792   1.432  0.5592 -0.9550 -0.6028
15363TIP3   OH267503   0.068   1.426   2.590  0.0750 -0.3773 -0.5833
15363TIP3    H167504   0.116   1.406   2.671 -1.1641 -1.8246 -0.1423
15363TIP3    H267505   0.049   1.340   2.552 -1.6108  0.1613 -1.0506
15364TIP3   OH267506   0.727   1.801   2.103  0.2322  1.2776 -0.6561
15364TIP3    H167507   0.669   1.849   2.161 -1.6129  0.5005 -1.7610
15364TIP3    H267508   0.782   1.868   2.063 -2.3137  2.5932 -2.2116
15365TIP3   OH267509   3.809   1.951   5.872  0.0244 -0.1652 -0.1524
15365TIP3    H167510   3.832   1.895   5.798  0.3140 -0.4436  0.1485
15365TIP3    H267511   3.885   1.948   5.929 -0.1701  0.1077  0.1210
15366TIP3   OH267512   0.394   6.760  13.170 -0.3239  0.2464 -0.1129
15366TIP3    H167513   0.394   6.711  13.252 -0.1863 -1.0939 -0.8748
15366TIP3    H267514   0.475   6.733  13.127 -0.3483  1.0068 -0.6574
15367TIP3   OH267515   2.154   3.311   6.452  0.1721 -0.2516  0.1757
15367TIP3    H167516   2.219   3.308   6.382 -0.2958 -1.6146 -0.2511
15367TIP3    H267517   2.083   3.364   6.416 -0.0543 -0.9240 -0.3984
15368TIP3   OH267518   0.166   2.052  12.491 -0.1093 -0.2201  0.0509
15368TIP3    H167519   0.108   2.062  12.566  0.6533 -0.4616  0.6889
15368TIP3    H267520   0.111   2.072  12.415 -0.6898  0.8115  0.7179
15369TIP3   OH267521   3.073   5.344   1.549 -0.1671 -0.1641  0.3555
15369TIP3    H167522   3.013   5.344   1.474  0.7654  1.3340 -0.4360
15369TIP3    H267523   3.102   5.435   1.556  2.8467 -1.0024  0.0354
15370TIP3   OH267524   0.215   4.610   2.386 -0.0258 -0.3153 -0.0889
15370TIP3    H167525   0.147   4.548   2.409 -0.1744  0.2670  1.1432
15370TIP3    H267526   0.173   4.672   2.326 -0.5467 -0.0315  0.5668
15371TIP3   OH267527   6.384   5.199  16.264 -0.0950  0.2757  0.0174
15371TIP3    H167528   6.319   5.269  16.250 -1.9826 -1.5942 -1.0819
15371TIP3    H267529   6.408   5.171  16.176  2.5560  1.1043  0.3767
15372TIP3   OH267530   3.007   6.692   1.055  0.1076  0.0658 -0.1519
15372TIP3    H167531   3.077   6.635   1.025  1.7053  0.4550  2.5513
15372TIP3    H267532   2.927   6.649   1.026  1.3558 -1.8645 -0.9347
15373TIP3   OH267533   0.970   0.022  11.258  0.0994  0.4683 -0.4672
15373TIP3    H167534   0.904   0.011  11.190  0.3668  1.2006 -0.8627
15373TIP3    H267535   1.054   0.020  11.211  0.5662 -2.7779  0.2793
15374TIP3   OH267536   0.690   0.816  13.490 -0.4713  0.5293  0.1490
15374TIP3    H167537   0.781   0.790  13.504 -0.8042 -0.2827  0.9138
15374TIP3    H267538   0.666   0.777  13.406 -0.0141  1.0330 -0.2157
15375TIP3   OH267539   0.689   0.191  15.899 -0.0571 -0.6232  0.2841
15375TIP3    H167540   0.739   0.112  15.919 -2.3093 -2.4328 -0.7999
15375TIP3    H267541   0.748   0.244  15.845  1.1303 -2.0461  0.1315
15376TIP3   OH267542   4.702   2.983  13.665  0.3054 -0.2585  0.7218
15376TIP3    H167543   4.737   3.055  13.718  0.8576  0.2272 -0.2684
15376TIP3    H267544   4.772   2.963  13.602 -1.2295  0.9103 -1.4985
15377TIP3   OH267545   0.746   4.188  14.121  0.1225 -0.5018  0.5024
15377TIP3    H167546   0.704   4.114  14.165  0.8856 -0.9467  0.4859
15377TIP3    H267547   0.718   4.264  14.172 -1.8275 -0.6131 -0.3056
15378TIP3   OH267548   4.269   2.611  13.887  0.1916 -0.0331  0.0269
15378TIP3    H167549   4.216   2.546  13.841 -0.2064 -0.0131  0.4422
15378TIP3    H267550   4.207   2.681  13.908  0.6748  0.6123 -0.6575
15379TIP3   OH267551   6.340   5.532   2.548 -0.2471  0.5923 -0.2504
15379TIP3    H167552   6.309   5.453   2.504 -1.3728  0.9363 -0.1031
15379TIP3    H267553   6.371   5.501   2.633  0.3198  0.1667 -0.6054
15380TIP3   OH267554   0.824   1.709  13.087  0.0797 -0.4392  0.1776
15380TIP3    H167555   0.754   1.676  13.143 -1.3835 -1.7139 -2.2192
15380TIP3    H267556   0.894   1.645  13.096 -0.9349 -1.7584 -0.8965
15381TIP3   OH267557   3.844   5.170   4.866 -0.5165  0.3589 -0.6293
15381TIP3    H167558   3.766   5.208   4.906 -0.9044 -1.5099  0.4911
15381TIP3    H267559   3.916   5.199   4.923 -0.5063  1.1857 -1.0443
15382TIP3   OH267560   2.653   6.497  11.222 -0.6677 -0.2426 -0.0427
15382TIP3    H167561   2.709   6.476  11.147 -0.6279  2.0027 -0.7197
15382TIP3    H267562   2.564   6.487  11.188 -0.6658  1.6667 -0.7626
15383TIP3   OH267563   3.227   4.223  13.248 -0.0603  0.1058  0.0491
15383TIP3    H167564   3.216   4.154  13.313  1.9416  0.7901  1.2024
15383TIP3    H267565   3.197   4.302  13.291  0.2332  0.3848 -0.2519
15384TIP3   OH267566   1.377   2.278  11.282 -0.2947  0.7345 -0.3941
15384TIP3    H167567   1.365   2.200  11.336  0.0557  1.5996  0.9917
15384TIP3    H267568   1.472   2.287  11.275 -0.2861  1.8726  0.7773
15385TIP3   OH267569   3.622   3.022  14.605 -0.4868 -0.5581 -0.5685
15385TIP3    H167570   3.677   2.949  14.633 -0.8795 -0.2806  0.9928
15385TIP3    H267571   3.601   3.002  14.514  0.9194 -1.4505 -0.7339
15386TIP3   OH267572   6.430   4.150  16.585  0.4960  0.3229  0.7286
15386TIP3    H167573   6.396   4.077  16.636  1.2398 -0.9174 -0.4810
15386TIP3    H267574   6.496   4.190  16.641 -0.6514  0.7516  1.8163
15387TIP3   OH267575   1.086   2.235   2.427  0.0041 -0.2806 -0.8028
15387TIP3    H167576   1.065   2.329   2.430  2.2403  0.2760  0.8154
15387TIP3    H267577   1.125   2.222   2.341 -0.0684  0.3536 -0.9407
15388TIP3   OH267578   0.599   0.477  13.890  0.2180  0.7055  0.0754
15388TIP3    H167579   0.622   0.547  13.950 -0.5301  1.6580 -0.7090
15388TIP3    H267580   0.601   0.397  13.943  1.0163  1.3221  0.9938
15389TIP3   OH267581   3.045   5.631   1.576  0.6020 -0.4278  0.1238
15389TIP3    H167582   3.063   5.685   1.499  0.0981  2.0549  1.6327
15389TIP3    H267583   2.952   5.609   1.569  0.6109 -0.4010 -0.0874
15390TIP3   OH267584   2.755   2.263   0.707 -0.2422 -0.1966 -0.5028
15390TIP3    H167585   2.752   2.344   0.657  0.2233 -0.2116 -0.5612
15390TIP3    H267586   2.822   2.210   0.663 -1.1189 -0.9432 -0.9603
15391TIP3   OH267587   4.785   2.484   2.177 -0.1386  0.7435 -0.3776
15391TIP3    H167588   4.690   2.475   2.176  0.0560 -3.9645  0.0914
15391TIP3    H267589   4.815   2.429   2.105  2.2621  1.3418  0.0829
15392TIP3   OH267590   3.309   6.148   4.009 -0.1672  0.1233 -0.0774
15392TIP3    H167591   3.259   6.071   3.984  1.4706 -1.0605  0.1929
15392TIP3    H267592   3.374   6.116   4.072 -0.0148  1.8757  0.7243
15393TIP3   OH267593   2.307   5.483  11.934 -0.1836  0.5539 -0.4498
15393TIP3    H167594   2.251   5.444  12.001 -0.2520 -0.9353 -1.3355
15393TIP3    H267595   2.250   5.545  11.888 -0.4507  0.7569  0.1487
15394TIP3   OH267596   2.565   4.171   2.309 -0.5054 -0.0307 -0.0203
15394TIP3    H167597   2.526   4.186   2.395 -0.4364  1.6287 -0.2403
15394TIP3    H267598   2.516   4.098   2.272 -1.7351  0.4099  0.6996
15395TIP3   OH267599   6.138   1.760   0.024  0.1530 -0.2282 -0.7644
15395TIP3    H167600   6.116   1.836  -0.031 -0.4650 -0.3708 -0.7222
15395TIP3    H267601   6.229   1.740   0.001 -0.6298 -1.4800 -3.2001
15396TIP3   OH267602   0.833   0.493  10.669 -0.5254 -0.3597  0.0494
15396TIP3    H167603   0.881   0.551  10.728 -2.7904 -0.4953  2.1877
15396TIP3    H267604   0.884   0.413  10.667  0.5028  0.2676  0.4150
15397TIP3   OH267605   4.997   5.391  15.126 -0.6389 -0.7645 -0.2095
15397TIP3    H167606   4.984   5.407  15.033  1.5055 -1.6469 -0.7057
15397TIP3    H267607   5.078   5.341  15.132 -2.9671 -4.8015  1.7902
15398TIP3   OH267608   0.894   3.548  16.328 -0.3248  0.3038  0.2292
15398TIP3    H167609   0.835   3.496  16.383  0.7493  0.5136  1.6458
15398TIP3    H267610   0.836   3.599  16.271 -1.4302 -1.1898 -0.0402
15399TIP3   OH267611   6.166   1.280   4.140  0.2961 -0.4337  0.1517
15399TIP3    H167612   6.074   1.266   4.165  0.6408 -1.5557  0.8706
15399TIP3    H267613   6.213   1.208   4.182  1.5486  0.2717 -0.0110
15400TIP3   OH267614   6.097   4.111  14.699  0.1918 -0.0232 -0.5926
15400TIP3    H167615   6.105   4.189  14.755 -2.9038 -0.4231  0.6303
15400TIP3    H267616   6.019   4.128  14.646 -1.0858 -2.5570  0.3024
15401TIP3   OH267617   6.696   4.146   0.689 -0.4221 -0.1852  0.3377
15401TIP3    H167618   6.726   4.155   0.598 -0.6848 -0.4606  0.2215
15401TIP3    H267619   6.708   4.233   0.727 -0.6878  0.0371 -0.0783
15402TIP3   OH267620   5.533   6.223  11.696 -0.6027 -0.0479  0.1195
15402TIP3    H167621   5.583   6.228  11.615  0.8977  1.6110  1.0834
15402TIP3    H267622   5.514   6.129  11.707  0.6039 -0.4789 -1.2867
15403TIP3   OH267623   1.120   6.611  10.481 -0.1597 -0.6156  0.3190
15403TIP3    H167624   1.104   6.694  10.435 -0.1034 -0.2316  0.9830
15403TIP3    H267625   1.210   6.620  10.514 -1.3576  0.7012  3.6914
15404TIP3   OH267626   5.707   1.478  13.433 -0.4982  0.4109  0.6734
15404TIP3    H167627   5.616   1.505  13.426 -0.4755  0.1881 -1.0164
15404TIP3    H267628   5.710   1.419  13.508 -1.8595  0.0133  0.4340
15405TIP3   OH267629   3.040   1.326   2.786  0.3505 -0.4632 -0.0154
15405TIP3    H167630   3.006   1.237   2.798  0.2478 -0.1738  2.2634
15405TIP3    H267631   2.963   1.382   2.791  0.2369 -0.2425 -2.7203
15406TIP3   OH267632   3.517   3.648   0.646  0.7399 -0.4107 -0.0994
15406TIP3    H167633   3.528   3.706   0.571  0.9555  0.4885  0.6055
15406TIP3    H267634   3.603   3.645   0.688  0.9241 -1.8425 -0.5243
15407TIP3   OH267635   1.045   6.540  12.977  0.1688 -0.4491  0.3509
15407TIP3    H167636   1.030   6.573  13.065 -1.0965 -0.5692  0.1999
15407TIP3    H267637   1.024   6.614  12.919 -0.6733 -0.8686  0.0990
15408TIP3   OH267638   4.916   5.450   3.892 -0.2457  0.7592 -0.2081
15408TIP3    H167639   4.905   5.360   3.860  1.0275  0.6409 -0.3570
15408TIP3    H267640   4.940   5.500   3.814  1.8312  0.6763  0.3266
15409TIP3   OH267641   0.382   1.900  12.857 -1.0150  0.1937  0.0364
15409TIP3    H167642   0.354   1.827  12.913 -0.9446  0.2490  0.1432
15409TIP3    H267643   0.476   1.889  12.849 -1.2071 -0.7495 -1.3850
15410TIP3   OH267644   5.676   3.803  11.850  0.6813 -0.0910 -0.8056
15410TIP3    H167645   5.618   3.754  11.792 -0.7757 -2.1317  2.0892
15410TIP3    H267646   5.729   3.736  11.893  0.7121  1.1291  1.1844
15411TIP3   OH267647   5.959   4.810  11.437  0.0778  0.2518 -0.7971
15411TIP3    H167648   6.007   4.804  11.355  0.2466 -1.4306 -0.6102
15411TIP3    H267649   5.929   4.720  11.454 -1.5409  0.9109  0.0337
15412TIP3   OH267650   5.663   5.900   4.528 -0.3365  0.2648  0.7002
15412TIP3    H167651   5.724   5.973   4.526 -1.2490  1.0524 -1.6204
15412TIP3    H267652   5.588   5.932   4.578 -0.5500  0.7636  0.0627
15413TIP3   OH267653   5.580   4.723  13.475  0.9357  0.1770 -0.3311
15413TIP3    H167654   5.560   4.700  13.384  0.7131 -1.7417  0.1505
15413TIP3    H267655   5.503   4.768  13.506 -0.2141 -1.7207 -0.2845
15414TIP3   OH267656   6.436   4.324  11.319  0.6902  0.0935 -0.1243
15414TIP3    H167657   6.403   4.349  11.233  1.3410  1.4469 -0.0108
15414TIP3    H267658   6.366   4.272  11.358 -1.1668  2.4821 -0.0614
15415TIP3   OH267659   4.279   6.786   2.294 -0.6381  0.1533  0.2714
15415TIP3    H167660   4.216   6.796   2.222 -0.3800 -1.3714 -0.1984
15415TIP3    H267661   4.364   6.805   2.254 -0.5129 -0.5285  0.2059
15416TIP3   OH267662   2.609   6.719  13.015  0.4676  0.3780 -0.6248
15416TIP3    H167663   2.646   6.682  13.095 -1.3131  0.9096  0.4957
15416TIP3    H267664   2.613   6.648  12.951 -0.4472 -0.9273  0.7011
15417TIP3   OH267665   4.219   5.155   0.925  0.5574  0.6168  0.2747
15417TIP3    H167666   4.250   5.075   0.967 -0.1463 -0.3482 -0.9876
15417TIP3    H267667   4.281   5.223   0.954  1.6748 -0.5354  0.6628
15418TIP3   OH267668   6.539   4.562  13.274  0.0234  0.3596 -0.5953
15418TIP3    H167669   6.518   4.630  13.338  0.7069 -1.4254  1.6748
15418TIP3    H267670   6.464   4.502  13.279  0.7732 -0.5633 -0.3375
15419TIP3   OH267671   5.021   0.016   2.141 -0.1433 -0.1841 -0.1095
15419TIP3    H167672   5.020  -0.026   2.227 -3.6455 -0.5117 -0.1790
15419TIP3    H267673   4.998  -0.054   2.080  1.7888  0.1593 -1.3408
15420TIP3   OH267674   5.729   4.853   0.624 -0.5311 -0.3530  0.1487
15420TIP3    H167675   5.727   4.802   0.705  1.6392 -1.1217 -0.2169
15420TIP3    H267676   5.676   4.802   0.563  1.5328 -2.2749 -0.1870
15421TIP3   OH267677   1.878   5.244  12.433 -0.0244  0.6670 -0.0304
15421TIP3    H167678   1.891   5.169  12.375  0.7080  0.5670  0.2478
15421TIP3    H267679   1.788   5.272  12.417  0.2675  0.8732 -1.5009
15422TIP3   OH267680   4.124   6.626   1.224  0.7145  0.0755  0.6254
15422TIP3    H167681   4.065   6.585   1.287 -1.1982 -0.4706 -1.3678
15422TIP3    H267682   4.149   6.709   1.265 -2.7611  1.1163  1.0402
15423TIP3   OH267683   1.425   3.436   0.367  0.5447 -0.5255 -0.3443
15423TIP3    H167684   1.422   3.412   0.460 -0.8861 -0.7787 -0.4450
15423TIP3    H267685   1.339   3.413   0.333  1.1484 -0.7082 -1.8153
15424TIP3   OH267686   5.331   3.391   4.374  0.7274 -0.3029  0.1757
15424TIP3    H167687   5.245   3.408   4.336  0.4071 -1.5440  0.2863
15424TIP3    H267688   5.313   3.367   4.465  0.7160 -4.1316 -0.6375
15425TIP3   OH267689   5.382   4.611   1.090  0.3288  0.3717  0.2819
15425TIP3    H167690   5.394   4.603   0.995 -1.2656  1.7270 -0.0685
15425TIP3    H267691   5.298   4.569   1.107  0.9382 -0.5079  1.2303
15426TIP3   OH267692   2.568   6.205  11.604  0.5601  0.4082  0.0935
15426TIP3    H167693   2.592   6.114  11.621 -1.1703  0.0814  1.0717
15426TIP3    H267694   2.647   6.255  11.623  0.8984 -0.6856  1.7403
15427TIP3   OH267695   5.979   2.040  10.459  0.4835 -0.5277 -0.1617
15427TIP3    H167696   5.972   1.998  10.545 -0.9339  0.9098  0.4540
15427TIP3    H267697   6.064   2.085  10.461 -1.4151  3.4740  2.4492
15428TIP3   OH267698   3.121   5.147  11.662 -0.4867 -0.2334  0.1964
15428TIP3    H167699   3.114   5.108  11.749  0.1573 -0.5245  0.1153
15428TIP3    H267700   3.031   5.174  11.641 -0.6296 -0.0626  0.9934
15429TIP3   OH267701   0.191   0.680  10.878  0.0597 -0.3372  0.5305
15429TIP3    H167702   0.194   0.766  10.835 -0.7740 -0.5412  0.0452
15429TIP3    H267703   0.278   0.643  10.862  0.0658 -0.0349 -0.2098
15430TIP3   OH267704   0.097   3.599   5.270 -0.3878  0.1976  0.3627
15430TIP3    H167705   0.024   3.616   5.330  0.1721 -0.9740  1.4163
15430TIP3    H267706   0.088   3.666   5.202 -2.7412 -0.2317  0.1746
15431TIP3   OH267707   6.512   4.676   1.841  0.2499 -0.1283  1.1713
15431TIP3    H167708   6.477   4.587   1.839 -0.3725  0.1311 -0.2526
15431TIP3    H267709   6.557   4.686   1.757  2.1856  0.1884  2.1838
15432TIP3   OH267710   6.027   2.125   1.846 -0.5747 -0.0832 -0.1130
15432TIP3    H167711   6.057   2.182   1.775  0.5735 -2.4446 -1.6518
15432TIP3    H267712   6.100   2.065   1.861 -1.0318 -0.1058  2.6933
15433TIP3   OH267713   3.868   1.687   2.615 -0.2844 -0.6295 -0.0560
15433TIP3    H167714   3.916   1.607   2.637  1.6276 -0.1160 -2.0770
15433TIP3    H267715   3.881   1.744   2.691  3.3253 -0.1156 -0.8838
15434TIP3   OH267716   3.267   6.621  14.596  0.2307  0.0283 -0.3913
15434TIP3    H167717   3.259   6.531  14.566 -2.2490 -0.5827  1.7388
15434TIP3    H267718   3.180   6.660  14.579  0.7210  1.4885  0.2612
15435TIP3   OH267719   4.779   1.422  11.058 -0.2629  0.2892  0.1097
15435TIP3    H167720   4.687   1.447  11.058 -0.8363 -1.5911 -1.8652
15435TIP3    H267721   4.782   1.337  11.014  2.6604  1.2650 -1.9172
15436TIP3   OH267722   3.701   6.065   3.651 -0.3157  0.2415 -0.0642
15436TIP3    H167723   3.676   6.154   3.677  2.7342  0.5291  2.5545
15436TIP3    H267724   3.686   6.013   3.730 -0.0842 -1.1434 -0.9075
15437TIP3   OH267725   1.794   3.583   0.193  0.3131  0.2005 -0.3335
15437TIP3    H167726   1.748   3.640   0.254 -0.5310 -1.2322  0.4456
15437TIP3    H267727   1.811   3.638   0.116  1.2921  2.0149  1.1050
15438TIP3   OH267728   5.376   3.698  16.142  0.1273 -0.4726  0.3847
15438TIP3    H167729   5.415   3.767  16.195 -1.1554 -1.8917  3.4675
15438TIP3    H267730   5.308   3.742  16.091  2.3848  1.1934 -1.3872
15439TIP3   OH267731   1.000   1.758  11.890 -0.4975 -0.0049 -0.3241
15439TIP3    H167732   0.908   1.785  11.895 -0.3274  0.3676  1.3508
15439TIP3    H267733   1.041   1.796  11.968  0.9678 -0.6169 -0.7533
15440TIP3   OH267734   0.752   3.856  12.208  0.1520 -0.2446 -0.2370
15440TIP3    H167735   0.719   3.940  12.240 -0.9888 -0.8235  0.1426
15440TIP3    H267736   0.678   3.796  12.215  1.3142 -1.6462  0.8110
15441TIP3   OH267737   0.936   4.522   4.049  0.1881 -0.0471 -0.2987
15441TIP3    H167738   0.875   4.452   4.074 -1.5004  1.1479 -0.8348
15441TIP3    H267739   0.900   4.601   4.091  2.4898  0.4282  0.9633
15442TIP3   OH267740   6.481   3.054  17.069 -0.3325 -0.3448 -0.0202
15442TIP3    H167741   6.518   2.980  17.117  0.2167  1.0314  1.7748
15442TIP3    H267742   6.393   3.025  17.044 -0.6438 -1.1261  1.8449
15443TIP3   OH267743   2.061   4.729   5.061 -0.4696  0.4338  0.6252
15443TIP3    H167744   2.031   4.767   4.979  0.4310  0.2926  0.2244
15443TIP3    H267745   2.059   4.634   5.046  2.3362  0.4207 -0.2472
15444TIP3   OH267746   3.833   0.521   5.432  0.1863  0.0565 -0.6918
15444TIP3    H167747   3.891   0.597   5.425 -1.1070  1.1073 -0.3933
15444TIP3    H267748   3.777   0.527   5.355  0.1287 -0.6493 -0.7076
15445TIP3   OH267749   1.777   4.360  12.499 -0.5261  0.4187 -0.2985
15445TIP3    H167750   1.766   4.266  12.512 -0.6503  0.6271  1.3795
15445TIP3    H267751   1.703   4.386  12.445  0.3115 -0.6657 -2.0294
15446TIP3   OH267752   6.301   3.817  15.897  0.2899  0.5105 -0.5146
15446TIP3    H167753   6.287   3.910  15.916  0.8224  0.2294  1.4051
15446TIP3    H267754   6.231   3.772  15.944  0.8420 -0.1399 -0.3061
15447TIP3   OH267755   4.143   4.705   1.264 -0.3969  0.0074 -0.3096
15447TIP3    H167756   4.084   4.714   1.189  0.4504 -2.6146 -1.4072
15447TIP3    H267757   4.229   4.693   1.225  0.1602 -0.7447  1.0976
15448TIP3   OH267758   1.588   0.899  12.577  0.1428  0.0844  0.0276
15448TIP3    H167759   1.575   0.991  12.599  0.2015  0.1988 -0.4043
15448TIP3    H267760   1.591   0.897  12.481  0.1731 -0.3616  0.0334
15449TIP3   OH267761   6.673   1.291  10.616 -0.0961  0.3629  0.1514
15449TIP3    H167762   6.738   1.221  10.610 -1.9425 -1.3282 -1.9872
15449TIP3    H267763   6.722   1.371  10.597  1.8089 -0.4731  1.2620
15450TIP3   OH267764   4.839   6.254  12.625  0.1662  0.2626  0.2379
15450TIP3    H167765   4.894   6.307  12.568  1.5273  0.1156  1.3561
15450TIP3    H267766   4.800   6.189  12.567 -0.4427  1.6099 -0.9160
15451TIP3   OH267767   3.790   1.839  11.546  0.0035  0.4167 -0.2749
15451TIP3    H167768   3.766   1.796  11.627 -3.2800  2.0867 -0.1943
15451TIP3    H267769   3.773   1.774  11.478  0.4972 -0.2197  0.2037
15452TIP3   OH267770   1.545   6.193   3.559 -0.5713 -0.3165 -0.0473
15452TIP3    H167771   1.474   6.253   3.536  0.2030  0.4794 -0.3959
15452TIP3    H267772   1.622   6.230   3.517  0.1478 -0.9106  0.7228
15453TIP3   OH267773   0.346   0.005  14.951  0.4714 -0.1591 -1.1085
15453TIP3    H167774   0.431   0.001  14.908  0.0593  0.4653 -1.9887
15453TIP3    H267775   0.364   0.049  15.035  1.2086 -1.0753 -0.7665
15454TIP3   OH267776   3.081   3.930   4.694 -0.2532 -0.4500  0.2765
15454TIP3    H167777   3.068   3.851   4.746 -1.6332 -0.6762 -0.3721
15454TIP3    H267778   3.029   3.997   4.737 -0.3667 -0.3085 -0.0745
15455TIP3   OH267779   1.300   5.163   1.322  0.4521  0.1573 -0.3012
15455TIP3    H167780   1.306   5.257   1.309 -1.1779  0.1555 -1.4026
15455TIP3    H267781   1.229   5.152   1.385  1.0263 -0.3140  0.2710
15456TIP3   OH267782   0.455   5.413   3.623  0.1149 -0.1372  0.4114
15456TIP3    H167783   0.488   5.486   3.676 -1.7002 -0.6138  2.3429
15456TIP3    H267784   0.519   5.343   3.636  1.0630  0.5758 -0.2168
15457TIP3   OH267785   5.005   1.500  12.964  0.6025  0.1766 -0.2076
15457TIP3    H167786   4.969   1.588  12.951  1.4558  0.4092 -1.0921
15457TIP3    H267787   4.933   1.450  13.002 -0.9261  0.4527 -2.4995
15458TIP3   OH267788   0.061   1.035  14.196 -0.0238  0.0719  0.4939
15458TIP3    H167789   0.065   0.978  14.272 -0.0306 -0.9762 -0.2753
15458TIP3    H267790  -0.031   1.059  14.188 -0.2984 -1.1462 -0.1354
15459TIP3   OH267791   2.587   6.281  14.275 -0.1391  0.6051  0.0305
15459TIP3    H167792   2.562   6.371  14.255  1.1921  1.0345  0.1588
15459TIP3    H267793   2.660   6.263  14.215 -0.7984 -0.6252 -0.4374
15460TIP3   OH267794   3.789   5.066  16.079  0.3894 -0.3895 -0.5841
15460TIP3    H167795   3.816   5.050  15.989  0.0298 -0.9439 -0.5965
15460TIP3    H267796   3.853   5.019  16.132  0.6130 -0.0463 -0.5471
15461TIP3   OH267797   5.892   6.369   5.584  0.0310 -0.0745 -0.4897
15461TIP3    H167798   5.913   6.409   5.500 -1.6554  0.9138 -0.4855
15461TIP3    H267799   5.808   6.325   5.570 -1.0226  1.3212  0.9933
15462TIP3   OH267800   6.140   1.726   3.943 -0.2240 -0.3815  0.3746
15462TIP3    H167801   6.104   1.715   3.855 -0.7573 -1.1061  0.6716
15462TIP3    H267802   6.196   1.649   3.956 -0.2310 -0.3312  0.7037
15463TIP3   OH267803   4.378   2.843  14.849  0.4821  0.1184 -0.0431
15463TIP3    H167804   4.302   2.867  14.903 -0.0379 -1.6631  0.0654
15463TIP3    H267805   4.372   2.901  14.773 -0.8187  0.2055  0.1000
15464TIP3   OH267806   2.833   2.531   1.755  0.3224  0.2293 -0.3186
15464TIP3    H167807   2.805   2.605   1.810 -0.5789 -0.1443 -0.2645
15464TIP3    H267808   2.831   2.566   1.666  1.6855  0.8055 -0.1557
15465TIP3   OH267809   3.127   1.107  15.804 -0.0884  0.2285  0.1170
15465TIP3    H167810   3.032   1.095  15.814  0.2101 -1.4763  1.5512
15465TIP3    H267811   3.152   1.162  15.879  0.1164  0.2470  0.0348
15466TIP3   OH267812   0.657   5.352   4.402 -0.5793  0.3686  0.5240
15466TIP3    H167813   0.650   5.385   4.313 -0.3739 -0.9915 -0.0325
15466TIP3    H267814   0.713   5.415   4.448 -3.5611  3.0823  0.7744
15467TIP3   OH267815   2.450   2.380  13.590 -0.0464 -0.1972 -0.0880
15467TIP3    H167816   2.534   2.390  13.546  0.2513  0.6943  0.6509
15467TIP3    H267817   2.470   2.393  13.683 -1.0191  0.1577  0.0794
15468TIP3   OH267818   3.148   6.652   2.061 -0.2016 -0.2540  0.3226
15468TIP3    H167819   3.224   6.708   2.046 -0.1626 -0.1295  0.9579
15468TIP3    H267820   3.179   6.563   2.041  0.4799 -0.3663  1.7547
15469TIP3   OH267821   5.133   0.508   1.659 -0.0806 -0.0222 -0.3717
15469TIP3    H167822   5.110   0.559   1.737  1.3934 -1.1693  0.8786
15469TIP3    H267823   5.080   0.546   1.589 -1.4757  1.0368  1.1801
15470TIP3   OH267824   3.265   2.943  15.746  0.2261  0.2242 -0.2346
15470TIP3    H167825   3.313   2.887  15.684 -0.4021  0.0126 -0.5313
15470TIP3    H267826   3.291   2.911  15.832 -0.5230 -0.8733 -0.3995
15471TIP3   OH267827   5.985   5.592  15.650 -0.0390  0.1559  0.1383
15471TIP3    H167828   6.079   5.579  15.639 -0.1602 -1.0833  0.5074
15471TIP3    H267829   5.977   5.678  15.691  1.0166 -0.3587  1.4686
15472TIP3   OH267830   0.291   0.210   3.675 -0.3802  0.1335  0.1738
15472TIP3    H167831   0.313   0.183   3.586 -1.5808  1.0567 -0.4200
15472TIP3    H267832   0.221   0.150   3.702 -1.4390  1.1261 -0.2885
15473TIP3   OH267833   3.210   0.733   5.345  0.4721  0.3724 -0.2737
15473TIP3    H167834   3.292   0.782   5.342  2.5989 -2.5715  2.3491
15473TIP3    H267835   3.222   0.663   5.280  0.0224 -0.0034  0.0429
15474TIP3   OH267836   3.658   1.201  12.905 -0.7629 -0.0903 -0.1205
15474TIP3    H167837   3.686   1.180  12.816 -0.6286  1.2579 -0.4112
15474TIP3    H267838   3.578   1.252  12.894 -0.2245  0.9027  0.4910
15475TIP3   OH267839   3.838   0.659   0.446 -0.3605 -0.2991  0.7899
15475TIP3    H167840   3.848   0.564   0.455  0.7002 -0.2313  0.4775
15475TIP3    H267841   3.884   0.680   0.365 -2.9866  0.1388 -0.7015
15476TIP3   OH267842   4.728   0.206   5.410  0.0241 -0.2198 -0.3868
15476TIP3    H167843   4.668   0.253   5.468  0.4656  0.3211 -0.3545
15476TIP3    H267844   4.672   0.145   5.361 -0.2518 -1.2229  1.1294
15477TIP3   OH267845   1.135   6.776  16.453  0.2354  0.9744  0.3359
15477TIP3    H167846   1.189   6.830  16.396 -0.7007  2.3416  0.6895
15477TIP3    H267847   1.060   6.751  16.399  1.2565 -1.1018 -0.2216
15478TIP3   OH267848   2.671   5.208  13.627  0.8232 -0.0813  0.2787
15478TIP3    H167849   2.762   5.192  13.651  0.9961  0.0735 -0.2824
15478TIP3    H267850   2.659   5.302  13.640  0.9791  0.0421 -0.4457
15479TIP3   OH267851   2.082   0.649   0.959  0.4718 -0.4183 -0.2988
15479TIP3    H167852   2.033   0.567   0.957  0.1404 -0.3230  1.5600
15479TIP3    H267853   2.067   0.683   1.047  0.5271  1.6975 -1.0586
15480TIP3   OH267854   1.649   4.553  11.973 -0.1093 -0.7778 -0.4184
15480TIP3    H167855   1.566   4.568  11.928  0.5699  0.9889 -1.1550
15480TIP3    H267856   1.714   4.550  11.903  0.5945 -1.1044  0.2332
15481TIP3   OH267857   3.271   2.293   6.395 -0.6149 -0.3987 -0.2916
15481TIP3    H167858   3.216   2.371   6.397  0.6233  0.5822 -1.7930
15481TIP3    H267859   3.340   2.310   6.459  1.0707  0.9523 -2.3121
15482TIP3   OH267860   0.399   1.301   1.916 -0.2119  0.1552  0.2480
15482TIP3    H167861   0.361   1.245   1.848  1.5650 -0.0152 -0.6649
15482TIP3    H267862   0.324   1.327   1.970 -1.7478  0.4691 -1.8656
15483TIP3   OH267863   6.795   6.782   3.462 -0.0249 -0.6912  0.0583
15483TIP3    H167864   6.761   6.710   3.408 -0.1578 -0.9037  0.4182
15483TIP3    H267865   6.853   6.831   3.403 -0.2138 -0.8832 -0.2925
15484TIP3   OH267866   5.089   3.247   2.161 -0.2950  0.1932 -0.1697
15484TIP3    H167867   5.143   3.278   2.089 -0.2565 -0.5873 -0.4922
15484TIP3    H267868   5.032   3.321   2.182 -1.2062  0.0403 -1.8801
15485TIP3   OH267869   1.541   4.362   5.710  0.2367 -0.0313 -0.0747
15485TIP3    H167870   1.531   4.320   5.624 -0.6057  0.2314 -0.1132
15485TIP3    H267871   1.499   4.303   5.772 -0.6719  0.5770 -0.0870
15486TIP3   OH267872   3.903   2.262  12.305 -0.2340 -0.1416 -0.1592
15486TIP3    H167873   3.979   2.301  12.348  0.2247 -1.3729  0.1732
15486TIP3    H267874   3.924   2.169  12.298 -1.6908 -0.4936 -0.1091
15487TIP3   OH267875   2.135   2.412   1.138  0.7147 -0.3331  0.2821
15487TIP3    H167876   2.120   2.361   1.058  0.8651  0.4740 -0.2721
15487TIP3    H267877   2.207   2.366   1.182 -1.1116 -2.3665  1.3506
15488TIP3   OH267878   2.295   3.025   4.068 -0.1927 -0.5669  0.3619
15488TIP3    H167879   2.245   3.055   4.144  0.8233  0.3789  0.7041
15488TIP3    H267880   2.294   3.100   4.008  0.3476 -0.7224  0.1493
15489TIP3   OH267881   6.547   4.381  13.697 -0.1724  0.0356  0.6001
15489TIP3    H167882   6.488   4.452  13.721  0.0764  0.5719 -0.3005
15489TIP3    H267883   6.508   4.344  13.618 -0.3745 -0.9330  1.1426
15490TIP3   OH267884   0.145   3.226  12.701 -0.2027 -0.3648 -0.0225
15490TIP3    H167885   0.107   3.227  12.613  0.4071 -0.5222 -0.2972
15490TIP3    H267886   0.070   3.226  12.760 -0.6836 -2.3936 -0.5513
15491TIP3   OH267887   2.516   2.852  17.001  0.2705  0.0522  0.2261
15491TIP3    H167888   2.575   2.778  16.990  0.4425  0.3196 -0.7038
15491TIP3    H267889   2.573   2.925  17.026  0.4969  0.5366 -1.5521
15492TIP3   OH267890   5.083   3.155   0.116  0.9641  0.0729  0.5330
15492TIP3    H167891   5.038   3.174   0.033 -0.1087  0.8871  1.2794
15492TIP3    H267892   5.030   3.087   0.156 -0.1771  1.6410  1.8195
15493TIP3   OH267893   5.777   5.905  11.480  1.0025 -0.4036 -0.2476
15493TIP3    H167894   5.797   5.949  11.398  0.6850  0.3225  0.0550
15493TIP3    H267895   5.736   5.822  11.454  1.8953 -0.6770 -0.8204
15494TIP3   OH267896   6.630   1.273  11.195  0.1730 -0.1383  0.1676
15494TIP3    H167897   6.685   1.319  11.131  0.9882  1.9749  2.2408
15494TIP3    H267898   6.570   1.341  11.227 -2.5139 -1.9239 -0.6557
15495TIP3   OH267899   3.085   6.268   2.845  0.2008  0.2255 -0.4290
15495TIP3    H167900   3.150   6.336   2.829 -0.5859  0.8215 -1.2597
15495TIP3    H267901   3.001   6.312   2.835 -0.3361 -0.6548  0.0160
15496TIP3   OH267902   2.431   5.526  14.716 -0.4027  0.2205  0.2266
15496TIP3    H167903   2.340   5.526  14.687 -0.4218 -1.9729  0.1599
15496TIP3    H267904   2.474   5.588  14.658 -1.7380  0.9201 -0.0724
15497TIP3   OH267905   1.097   5.223  11.810 -0.0427 -0.1391  0.2245
15497TIP3    H167906   1.097   5.172  11.891 -2.6866 -1.1591 -0.3328
15497TIP3    H267907   1.061   5.164  11.744  1.5300  0.8447 -1.6440
15498TIP3   OH267908   3.630   2.750   4.969  0.4315 -0.2904  0.3192
15498TIP3    H167909   3.616   2.700   4.888  3.5196 -1.8258  0.5956
15498TIP3    H267910   3.663   2.685   5.031  0.1880  1.2897  2.1839
15499TIP3   OH267911   6.156   1.658   2.541 -0.5720 -0.0775  0.4378
15499TIP3    H167912   6.228   1.686   2.483 -0.8166  0.0201  0.1779
15499TIP3    H267913   6.080   1.706   2.508 -0.5634  0.5519  1.3122
15500TIP3   OH267914   1.590   1.343   5.084 -0.0193  0.6210 -0.5484
15500TIP3    H167915   1.508   1.302   5.111  0.0033  0.2632 -1.0154
15500TIP3    H267916   1.587   1.431   5.122 -0.6068  0.6013 -0.5481
15501TIP3   OH267917   2.806   0.082   4.410  0.8330 -0.8018 -0.0716
15501TIP3    H167918   2.882   0.068   4.354 -0.3879 -0.8534 -1.7652
15501TIP3    H267919   2.811   0.174   4.436  0.6590 -0.3910 -1.4453
15502TIP3   OH267920   0.259   5.368  16.299 -0.1819 -0.2078  0.1404
15502TIP3    H167921   0.306   5.322  16.368 -1.4327  1.5463  2.2954
15502TIP3    H267922   0.326   5.422  16.256  0.3211 -0.0249  1.1316
15503TIP3   OH267923   6.321   3.978  12.352 -0.1371  0.2110 -0.4712
15503TIP3    H167924   6.333   4.024  12.435 -0.6473  1.1065 -0.8654
15503TIP3    H267925   6.394   4.007  12.297  0.4252 -0.6897 -0.2176
15504TIP3   OH267926   6.107   3.085  16.693 -0.1057  0.4771 -0.5139
15504TIP3    H167927   6.199   3.076  16.668 -0.3327  0.5762 -1.4455
15504TIP3    H267928   6.061   3.099  16.610 -1.4096 -2.8690 -0.5085
15505TIP3   OH267929   3.930   5.619  10.737  0.4588 -0.0549 -0.4004
15505TIP3    H167930   3.916   5.535  10.781  0.3120 -0.2849 -0.8825
15505TIP3    H267931   3.962   5.595  10.650  1.3351  0.4049 -0.2182
15506TIP3   OH267932   2.203   3.812  16.803  0.1321  0.4972  0.2501
15506TIP3    H167933   2.144   3.880  16.771  0.3756  0.5150 -0.1809
15506TIP3    H267934   2.233   3.767  16.723  0.1248  0.0136  0.5141
15507TIP3   OH267935   2.329   3.741  11.438 -0.3053 -0.4449  0.1029
15507TIP3    H167936   2.381   3.681  11.384 -0.8443  0.2092 -1.1778
15507TIP3    H267937   2.253   3.689  11.466 -0.2392 -0.6570 -0.1085
15508TIP3   OH267938   2.154   5.524   2.294 -0.6133 -0.0281  0.7302
15508TIP3    H167939   2.206   5.537   2.373  0.7856 -0.9234  0.0033
15508TIP3    H267940   2.209   5.556   2.223 -1.2594 -0.5517 -0.0256
15509TIP3   OH267941   4.041   0.983  15.670 -0.0198  0.3078  0.1462
15509TIP3    H167942   4.091   0.904  15.689  0.4577 -0.5047 -3.6893
15509TIP3    H267943   4.106   1.044  15.633 -1.1355  0.7511 -1.1546
15510TIP3   OH267944   2.877   2.841  11.297 -0.7989  0.4148  0.3636
15510TIP3    H167945   2.910   2.923  11.262  0.2420 -0.1596 -0.0278
15510TIP3    H267946   2.789   2.862  11.329  0.2705  2.2173  2.3366
15511TIP3   OH267947   3.990   0.663  14.179 -0.6482 -0.2573 -0.3953
15511TIP3    H167948   4.047   0.689  14.107  1.1480 -0.5853  0.8501
15511TIP3    H267949   3.965   0.745  14.221 -0.5892 -0.1492 -0.5700
15512TIP3   OH267950   0.857   1.998  11.423  0.3596 -0.1764  0.0285
15512TIP3    H167951   0.767   2.028  11.412  0.7480  2.8994  3.4121
15512TIP3    H267952   0.859   1.958  11.510  2.2588  0.0598  0.1494
15513TIP3   OH267953   0.505   4.830   2.469 -0.2640  0.2188 -0.3063
15513TIP3    H167954   0.559   4.756   2.440 -0.2652 -0.1023  0.4622
15513TIP3    H267955   0.467   4.800   2.552  0.8396  1.5896  0.7583
15514TIP3   OH267956   1.964   3.012   4.809 -0.3401 -0.6309  0.0884
15514TIP3    H167957   2.044   3.057   4.780  0.6700 -2.2330  0.3002
15514TIP3    H267958   1.906   3.015   4.733 -1.0552  2.5447  0.6143
15515TIP3   OH267959   3.333   5.824   1.403  0.2115  0.5555  0.0308
15515TIP3    H167960   3.254   5.816   1.456  0.6932 -1.1879  0.5631
15515TIP3    H267961   3.320   5.761   1.332  1.7784 -0.9839  1.0406
15516TIP3   OH267962   1.352   4.969   2.659  0.2261 -0.3348 -0.1851
15516TIP3    H167963   1.261   4.953   2.634 -0.3036  0.6317  1.0272
15516TIP3    H267964   1.368   4.907   2.730  0.1040  0.3457  0.4433
15517TIP3   OH267965   4.223   0.174  11.196 -0.2679 -0.0107 -0.3632
15517TIP3    H167966   4.248   0.105  11.257 -2.5673 -0.1130  0.5594
15517TIP3    H267967   4.194   0.127  11.118 -0.1627  0.0082 -0.4149
15518TIP3   OH267968   2.443   1.733  15.115  0.1134  0.0492  0.3669
15518TIP3    H167969   2.424   1.753  15.207  0.3360 -0.1562  0.4574
15518TIP3    H267970   2.367   1.767  15.067  0.2421  0.6460  0.5739
15519TIP3   OH267971   1.868   2.984   2.355  0.2143 -0.5393  0.2434
15519TIP3    H167972   1.893   2.897   2.387  0.3879  0.2833  2.5027
15519TIP3    H267973   1.779   2.997   2.388  0.8657  0.8494  1.5591
15520TIP3   OH267974   3.071   1.436   4.387  0.1068  0.2157 -0.5171
15520TIP3    H167975   2.985   1.402   4.362 -0.3571  0.1481  1.0818
15520TIP3    H267976   3.084   1.512   4.330 -0.0776 -0.9698 -2.1937
15521TIP3   OH267977   5.617   5.234   0.183 -0.4145 -0.8183  0.2179
15521TIP3    H167978   5.558   5.234   0.259 -1.7599  0.7360 -0.7529
15521TIP3    H267979   5.698   5.275   0.216 -0.6780 -0.9321  1.0221
15522TIP3   OH267980   0.753   5.096   5.879 -0.4987 -0.1239 -0.6424
15522TIP3    H167981   0.778   5.049   5.799  0.0647 -1.2302  0.1710
15522TIP3    H267982   0.683   5.044   5.917  0.1552 -0.3582  0.2814
15523TIP3   OH267983   3.350   5.983   2.199  0.4788 -0.3992 -0.4587
15523TIP3    H167984   3.310   5.919   2.141  0.4788 -1.0095  0.1994
15523TIP3    H267985   3.368   5.935   2.279 -0.3694  0.6240  0.3926
15524TIP3   OH267986   3.252   0.857  11.248  0.6005 -0.1128 -0.3393
15524TIP3    H167987   3.170   0.866  11.296  1.2549 -1.2138  1.0557
15524TIP3    H267988   3.226   0.826  11.161 -0.5042  0.4269 -0.2107
15525TIP3   OH267989   2.877   1.896  11.990  0.4399  0.0451 -0.0386
15525TIP3    H167990   2.924   1.815  12.008  0.4533 -0.1069 -0.7137
15525TIP3    H267991   2.787   1.869  11.976  0.4427  0.1488 -0.2539
15526TIP3   OH267992   2.175   3.452  16.324  0.2117  0.4152  0.1428
15526TIP3    H167993   2.159   3.547  16.323 -2.4338  0.0536  0.2987
15526TIP3    H267994   2.144   3.422  16.239 -0.6229 -0.5006  0.7453
15527TIP3   OH267995   2.366   2.314   6.058  0.0779  0.5053  0.0001
15527TIP3    H167996   2.386   2.221   6.073  0.8698  0.6912  0.1256
15527TIP3    H267997   2.368   2.353   6.146  2.3542  1.1341 -0.2714
15528TIP3   OH267998   2.010   0.161  15.723 -0.7046  0.4222 -0.2072
15528TIP3    H167999   2.097   0.162  15.762 -1.1235  1.3953  0.7621
15528TIP3    H268000   2.003   0.075  15.681  0.0632 -0.3447  1.1853
15529TIP3   OH268001   3.278   6.327   5.915  0.3463  0.0623 -0.3675
15529TIP3    H168002   3.259   6.333   5.822  0.8623 -1.5007 -0.5952
15529TIP3    H268003   3.235   6.246   5.944 -0.8818  1.1421  1.0562
15530TIP3   OH268004   6.728   4.824  11.113 -0.1102 -0.4845  0.2456
15530TIP3    H168005   6.677   4.899  11.143 -1.4374 -1.5800  0.8655
15530TIP3    H268006   6.811   4.832  11.159 -0.6454  0.0203  1.1686
15531TIP3   OH268007   0.744   1.675  15.483  0.0822 -0.4175 -0.2954
15531TIP3    H168008   0.696   1.629  15.414  0.1508  1.2605 -1.5381
15531TIP3    H268009   0.797   1.740  15.436 -0.7757  1.6299  1.3907
15532TIP3   OH268010   1.322   0.208  11.798  0.4863  0.3974  0.6186
15532TIP3    H168011   1.338   0.128  11.747 -1.6934 -1.5209  2.7257
15532TIP3    H268012   1.269   0.262  11.741 -0.1574 -0.7889  0.0543
15533TIP3   OH268013   6.674   4.077  14.951  0.5175  0.4628  0.7293
15533TIP3    H168014   6.739   4.032  15.004  1.5336  0.7070 -0.2619
15533TIP3    H268015   6.724   4.112  14.877 -0.8789 -0.1731 -0.5820
15534TIP3   OH268016   6.579   0.898   5.780  0.0569  0.5367  0.3258
15534TIP3    H168017   6.538   0.914   5.694  0.7430 -1.4763 -0.4382
15534TIP3    H268018   6.508   0.863   5.834 -0.3575  1.7284  0.5882
15535TIP3   OH268019   3.639   1.431  16.937 -0.0263 -0.0904 -0.0339
15535TIP3    H168020   3.601   1.489  17.003  0.1247 -0.3240  0.2623
15535TIP3    H268021   3.703   1.484  16.891 -0.8206  0.3580 -0.6443
15536TIP3   OH268022   2.809   2.298  16.857 -0.4339 -0.2330 -0.3274
15536TIP3    H168023   2.864   2.323  16.931  0.2118 -0.4656 -0.7194
15536TIP3    H268024   2.731   2.353  16.866 -0.6547 -0.7182  0.8791
15537TIP3   OH268025   5.981   0.871  16.759  0.1025  0.4685 -0.2242
15537TIP3    H168026   5.935   0.790  16.740  0.8813 -0.6577  2.2684
15537TIP3    H268027   5.983   0.918  16.675 -0.9991 -1.7310 -1.5703
15538TIP3   OH268028   0.514   4.211  13.921  0.2044  0.4264  0.0721
15538TIP3    H168029   0.433   4.160  13.925  0.1888 -0.1952 -3.9511
15538TIP3    H268030   0.485   4.301  13.905  0.2945  0.5408  0.5502
15539TIP3   OH268031   0.374   2.672   0.124  0.4855 -0.0956 -0.0118
15539TIP3    H168032   0.425   2.742   0.082  2.2223 -1.5731 -0.4974
15539TIP3    H268033   0.366   2.700   0.215  1.8776  0.3806 -0.0034
15540TIP3   OH268034   6.721   5.658  12.325  0.0625  0.5424  0.3227
15540TIP3    H168035   6.746   5.727  12.263  0.3969 -0.2824 -0.4874
15540TIP3    H268036   6.802   5.633  12.369 -0.0404  0.6119  0.5506
15541TIP3   OH268037   5.544   4.158  13.379 -0.1105  0.2288  0.2757
15541TIP3    H168038   5.530   4.252  13.388  1.3572  0.4525  0.4940
15541TIP3    H268039   5.523   4.139  13.288 -1.3156  0.5823  0.4663
15542TIP3   OH268040   0.789   6.218   1.151  0.2144 -0.6643  0.1412
15542TIP3    H168041   0.735   6.143   1.125  0.9072 -1.3855  0.6928
15542TIP3    H268042   0.798   6.270   1.072 -0.5342 -1.0038 -0.1803
15543TIP3   OH268043   5.911   0.742   6.415  0.0070  0.0959  0.0039
15543TIP3    H168044   5.994   0.786   6.432  0.0742 -0.7658  2.3196
15543TIP3    H268045   5.846   0.797   6.460 -0.6268  0.4344 -1.2751
15544TIP3   OH268046   2.709   4.642  16.617 -0.1943  0.0499  0.1378
15544TIP3    H168047   2.751   4.583  16.680 -1.0781 -0.7656 -0.0092
15544TIP3    H268048   2.754   4.725  16.629 -1.2007  0.2964  2.8078
15545TIP3   OH268049   2.756   0.005   4.704 -0.3689 -0.4622  0.0232
15545TIP3    H168050   2.794   0.087   4.735 -1.4625  0.0930 -0.0515
15545TIP3    H268051   2.766   0.009   4.609  1.5517 -1.4458  0.1218
15546TIP3   OH268052   0.000   1.923  14.802  0.0662  0.2428 -0.2386
15546TIP3    H168053  -0.018   1.935  14.895  1.1824  1.8172 -0.1844
15546TIP3    H268054  -0.082   1.947  14.758 -0.0253  0.9158  0.2846
15547TIP3   OH268055   2.787   5.262  15.901 -1.0502 -0.3904 -0.2942
15547TIP3    H168056   2.733   5.341  15.906 -0.8214 -0.2926  0.9708
15547TIP3    H268057   2.791   5.231  15.991  1.7618  0.1151 -0.1679
15548TIP3   OH268058   1.967   5.894  13.284  0.6625  0.7393  0.2122
15548TIP3    H168059   1.961   5.981  13.325  0.4827  2.0639 -2.3875
15548TIP3    H268060   2.061   5.882  13.270  1.0734 -1.1390  3.6007
15549TIP3   OH268061   5.765   5.098  13.887 -0.0308 -0.1764 -0.6505
15549TIP3    H168062   5.725   5.011  13.887 -0.6981  0.1170 -0.0290
15549TIP3    H268063   5.701   5.153  13.841 -0.5986  0.3984  0.7747
15550TIP3   OH268064   2.291   6.004   1.091 -0.4442  0.0909 -0.4261
15550TIP3    H168065   2.329   5.916   1.084  0.1941  0.3918 -0.9162
15550TIP3    H268066   2.365   6.063   1.074 -1.1086  0.6962 -1.3373
15551TIP3   OH268067   0.391   4.009  13.358 -0.0340  1.4199  0.3077
15551TIP3    H168068   0.372   4.082  13.417  0.5834  1.5764  0.3187
15551TIP3    H268069   0.308   3.964  13.348  0.0415  0.8599  2.0172
15552TIP3   OH268070   6.726   5.364  15.129  0.1687 -0.0260 -0.1453
15552TIP3    H168071   6.639   5.330  15.110 -0.3810  0.0269  2.0035
15552TIP3    H268072   6.785   5.293  15.104 -0.8544 -2.0696  2.7698
15553TIP3   OH268073   1.506   1.198   2.492  0.3886  0.3817  0.2547
15553TIP3    H168074   1.566   1.174   2.421 -0.1351 -2.8860  0.7776
15553TIP3    H268075   1.419   1.192   2.454  0.0135 -2.6932  1.3647
15554TIP3   OH268076   2.501   4.789   1.014 -0.1224 -0.1453 -0.2555
15554TIP3    H168077   2.458   4.873   1.032  0.4044 -0.1633  1.2028
15554TIP3    H268078   2.430   4.724   1.022 -0.3114  0.0560 -0.2807
15555TIP3   OH268079   2.661   0.820  11.910 -0.5201 -0.5896  0.1464
15555TIP3    H168080   2.678   0.893  11.850 -1.2486 -0.0172  0.6219
15555TIP3    H268081   2.725   0.753  11.885  0.3237  0.2974 -0.1412
15556TIP3   OH268082   3.475   2.641   5.645 -0.5411 -0.3335 -0.4730
15556TIP3    H168083   3.451   2.729   5.673 -1.3026 -0.8253  0.5302
15556TIP3    H268084   3.523   2.653   5.564  1.1879  1.1574  0.6814
15557TIP3   OH268085   3.564   3.394  15.484 -0.0499 -0.5342 -0.0307
15557TIP3    H168086   3.630   3.440  15.433 -0.0763 -0.6522 -0.1710
15557TIP3    H268087   3.481   3.414  15.441  0.0829 -1.8516 -0.9448
15558TIP3   OH268088   1.550   2.975   0.958  0.4602  0.1592  0.3234
15558TIP3    H168089   1.498   2.918   0.901 -1.7079  1.0815  1.2594
15558TIP3    H268090   1.637   2.936   0.958 -0.0542 -1.1852 -1.7548
15559TIP3   OH268091   0.036   3.654   2.125  0.4547  0.6221  0.0881
15559TIP3    H168092  -0.008   3.587   2.179  1.8191  0.4431  1.0102
15559TIP3    H268093  -0.006   3.736   2.150  0.9811  0.5229  1.3500
15560TIP3   OH268094   0.846   6.639   3.888  0.3222  0.1177  0.0487
15560TIP3    H168095   0.796   6.642   3.807  1.0489 -0.4284 -0.4309
15560TIP3    H268096   0.804   6.705   3.944 -0.8587 -0.2577 -0.3624
15561TIP3   OH268097   4.914   1.288  16.687 -0.0882 -0.4750  0.1891
15561TIP3    H168098   4.878   1.204  16.661 -3.9370  0.0795  2.8366
15561TIP3    H268099   4.863   1.352  16.638  0.6932  0.3638  0.4412
15562TIP3   OH268100   3.879   1.921   1.701  0.3633  0.7871  0.0174
15562TIP3    H168101   3.818   1.884   1.765  1.5688  1.7600  1.8348
15562TIP3    H268102   3.849   1.887   1.617 -1.2518 -0.6337  1.0878
15563TIP3   OH268103   0.008   1.159  15.378 -0.1885 -0.1572 -0.0433
15563TIP3    H168104   0.054   1.081  15.409 -0.8278 -1.1299 -1.4416
15563TIP3    H268105  -0.025   1.200  15.458  2.3204  0.1211  0.9419
15564TIP3   OH268106   1.348   2.417  15.744  0.1917 -0.1673  0.3790
15564TIP3    H168107   1.278   2.441  15.684  1.6667  0.7121 -1.0796
15564TIP3    H268108   1.306   2.362  15.810 -1.5619 -0.9380 -1.2966
15565TIP3   OH268109   2.600   3.072   1.388 -0.0034  0.0049 -0.1953
15565TIP3    H168110   2.691   3.049   1.372 -0.2378 -0.3115 -1.1564
15565TIP3    H268111   2.599   3.168   1.390  0.4807  0.0006  0.7155
15566TIP3   OH268112   3.705   5.317   6.158 -0.4935 -0.3763 -0.2254
15566TIP3    H168113   3.793   5.336   6.192  0.2582 -1.6181 -1.3324
15566TIP3    H268114   3.648   5.382   6.199  0.7603 -0.2158  1.3700
15567TIP3   OH268115   1.323   5.109   0.281 -0.0771 -0.2522 -0.2564
15567TIP3    H168116   1.237   5.124   0.243 -0.2742 -1.3420 -0.2775
15567TIP3    H268117   1.369   5.193   0.271 -1.1793  0.3861 -0.0866
15568TIP3   OH268118   4.662   3.061  16.810 -0.5645  0.7629  0.0352
15568TIP3    H168119   4.620   2.982  16.777  2.2893 -0.8790  0.0457
15568TIP3    H268120   4.723   3.031  16.876  0.8291  2.9410 -0.1541
15569TIP3   OH268121   1.192   2.833   4.003  0.6885 -0.4917  0.4501
15569TIP3    H168122   1.228   2.822   4.092  1.0607  0.5785  0.4477
15569TIP3    H268123   1.098   2.842   4.017  0.4234 -2.6303  0.5144
15570TIP3   OH268124   1.832   0.910   1.412  0.5895 -0.0544  0.6980
15570TIP3    H168125   1.835   0.905   1.508  0.8627 -2.5725  0.6367
15570TIP3    H268126   1.924   0.908   1.385  0.6536  3.1427  0.3628
15571TIP3   OH268127   2.132   0.689  12.429  0.4865  0.3550 -0.3426
15571TIP3    H168128   2.222   0.701  12.461  0.5229  1.7973 -0.9021
15571TIP3    H268129   2.088   0.640  12.499  1.1094  1.6053  0.9760
15572TIP3   OH268130   2.591   5.146   4.581 -0.3199 -0.4176  0.8005
15572TIP3    H168131   2.606   5.181   4.669 -0.5722 -0.5548  0.9004
15572TIP3    H268132   2.507   5.101   4.588 -1.2019  1.0298  0.0556
15573TIP3   OH268133   1.224   3.911   5.844  0.0251 -0.1162  0.0780
15573TIP3    H168134   1.273   3.854   5.785  1.8399  0.1972  1.1767
15573TIP3    H268135   1.208   3.990   5.793  0.2283 -0.4305 -0.4792
15574TIP3   OH268136   0.992   3.109   1.817  0.5139 -0.3589  0.1923
15574TIP3    H168137   0.899   3.110   1.840  0.3296  3.0803 -0.2855
15574TIP3    H268138   0.997   3.160   1.736  3.0359  1.3931  1.3311
15575TIP3   OH268139   4.458   4.056   4.273  0.1711 -0.3882 -0.8905
15575TIP3    H168140   4.458   4.123   4.203  2.0210  2.5470  1.6589
15575TIP3    H268141   4.365   4.036   4.285 -0.2755 -0.3364 -3.5106
15576TIP3   OH268142   3.173   3.349  17.121 -1.0565 -0.2941  0.1718
15576TIP3    H168143   3.185   3.429  17.071 -2.6753 -0.4999 -0.6032
15576TIP3    H268144   3.107   3.371  17.187 -1.1965 -0.8700  0.2281
15577TIP3   OH268145   4.252   6.635  15.606  0.0020  0.0888 -0.3052
15577TIP3    H168146   4.269   6.583  15.527 -1.9947  1.1198 -1.4999
15577TIP3    H268147   4.236   6.723  15.573 -3.0381  0.1337  0.9405
15578TIP3   OH268148   4.946   4.315  14.719 -0.2961 -0.3484 -0.7531
15578TIP3    H168149   5.036   4.332  14.691 -0.3169  1.3611  0.0733
15578TIP3    H268150   4.955   4.271  14.803 -0.2508 -1.7071 -1.4467
15579TIP3   OH268151   3.241   1.051   4.239 -0.4270  0.4875  0.1208
15579TIP3    H168152   3.165   0.994   4.231 -0.9917  1.3793 -1.0870
15579TIP3    H268153   3.280   1.051   4.152 -0.2207  1.6450  0.2017
15580TIP3   OH268154   5.507   3.764  16.569  0.3032  0.0324 -0.3517
15580TIP3    H168155   5.563   3.771  16.646  0.7116  1.1041 -0.7295
15580TIP3    H268156   5.418   3.778  16.603  0.3832 -0.3944  0.0523
15581TIP3   OH268157   6.675   1.626  12.225  0.0125  0.4842  0.1283
15581TIP3    H168158   6.635   1.540  12.220  1.0842 -0.0132 -0.2278
15581TIP3    H268159   6.644   1.662  12.308  0.4680 -0.7363  0.8665
15582TIP3   OH268160   5.374   4.786  11.860  0.1325 -0.7257  0.0706
15582TIP3    H168161   5.451   4.806  11.913 -0.2300 -0.5717  0.5435
15582TIP3    H268162   5.410   4.756  11.776  0.7057 -0.7548  0.3210
15583TIP3   OH268163   0.496   4.687  15.706  0.2828  0.1633 -0.7388
15583TIP3    H168164   0.443   4.617  15.667  1.1186 -0.1854 -1.2701
15583TIP3    H268165   0.498   4.755  15.639 -0.0733  0.4733 -0.4384
15584TIP3   OH268166   0.822   1.736  13.593 -0.5552  0.5557  0.4933
15584TIP3    H168167   0.780   1.773  13.516  0.5030  1.4110  0.2998
15584TIP3    H268168   0.830   1.810  13.654 -1.6945 -0.1734  1.5957
15585TIP3   OH268169   4.992   0.253   1.562 -0.2824  0.7465  0.2791
15585TIP3    H168170   4.920   0.283   1.505 -1.2462  0.7726  1.4762
15585TIP3    H268171   4.951   0.239   1.647  1.1768  0.9071  1.0364
15586TIP3   OH268172   2.178   6.779   1.929 -0.3825  0.1134  0.3174
15586TIP3    H168173   2.273   6.772   1.938 -0.1540  0.9734 -1.0380
15586TIP3    H268174   2.147   6.689   1.928  0.4842 -0.1930  0.2077
15587TIP3   OH268175   2.042   3.013  15.764 -0.0807  0.1394 -0.6162
15587TIP3    H168176   2.036   3.066  15.684 -1.7968 -0.3334 -0.8557
15587TIP3    H268177   2.094   3.066  15.825  0.0071  1.1589 -1.5533
15588TIP3   OH268178   5.324   0.922   2.276  0.3094 -0.4885  0.7764
15588TIP3    H168179   5.303   0.989   2.341 -0.1165  0.8203 -0.6585
15588TIP3    H268180   5.312   0.839   2.322 -1.1122  0.3738  2.0339
15589TIP3   OH268181   1.825   6.420  13.293 -0.5093 -0.4821  0.4198
15589TIP3    H168182   1.791   6.337  13.260 -3.4137 -0.3330  2.5975
15589TIP3    H268183   1.815   6.414  13.388  1.2063  1.5794  0.8076
15590TIP3   OH268184   4.847   3.049   1.622  0.6396 -0.2571 -0.1657
15590TIP3    H168185   4.752   3.056   1.634  0.7185  0.9919 -0.1379
15590TIP3    H268186   4.873   2.979   1.682 -0.1572 -0.0534  0.4371
15591TIP3   OH268187   1.759   0.459   2.871  0.5681  0.2103 -0.3546
15591TIP3    H168188   1.696   0.464   2.799 -0.5821  2.2134  0.6941
15591TIP3    H268189   1.715   0.407   2.938  1.0801 -0.5250 -0.5893
15592TIP3   OH268190   5.387   4.418  15.673 -0.1211  0.4057 -0.7366
15592TIP3    H168191   5.405   4.459  15.589 -0.2252 -0.4866 -1.1995
15592TIP3    H268192   5.338   4.338  15.652  0.9476 -0.4935  0.0565
15593TIP3   OH268193   0.417   2.916  15.213 -0.4517  0.2186 -0.0729
15593TIP3    H168194   0.396   2.927  15.306 -0.9841  2.5032 -0.4012
15593TIP3    H268195   0.513   2.919  15.209 -0.4361  0.3545  0.3701
15594TIP3   OH268196   5.289   1.974   1.222  0.1530 -0.1439  1.1268
15594TIP3    H168197   5.361   1.979   1.285  1.0439 -0.2257  0.1356
15594TIP3    H268198   5.211   1.999   1.273  0.8144 -0.4071  2.3029
15595TIP3   OH268199   1.691   0.336   4.309  0.0190 -0.5417 -0.1873
15595TIP3    H168200   1.690   0.254   4.360  0.3566 -0.0306  0.6685
15595TIP3    H268201   1.602   0.371   4.319  0.7023  0.7463  2.0927
15596TIP3   OH268202   3.456   0.995   4.889  0.4169 -0.4047  0.1505
15596TIP3    H168203   3.543   0.988   4.851 -0.2033 -0.7981 -1.2423
15596TIP3    H268204   3.396   0.983   4.816 -0.8285 -1.9616  1.3462
15597TIP3   OH268205   4.388   1.682   3.468 -0.4852 -0.3124 -0.1756
15597TIP3    H168206   4.350   1.769   3.472 -0.6991 -0.3997 -0.3203
15597TIP3    H268207   4.319   1.623   3.500 -0.4330 -0.4564 -0.3225
15598TIP3   OH268208   3.550   5.650  13.244  0.0611 -0.0606  0.0278
15598TIP3    H168209   3.545   5.693  13.330 -0.2226 -0.8686  0.4180
15598TIP3    H268210   3.582   5.719  13.186  0.1230  0.5396  0.7495
15599TIP3   OH268211   3.001   0.519  16.318 -0.4262  0.3708 -0.6562
15599TIP3    H168212   3.036   0.484  16.400 -1.5701  1.2228  0.2187
15599TIP3    H268213   2.964   0.604  16.341 -1.0938  0.4706 -1.9787
15600TIP3   OH268214   5.793   0.382  11.443  0.0569 -0.1881 -0.4048
15600TIP3    H168215   5.777   0.469  11.405 -0.6797  0.0879  0.5004
15600TIP3    H268216   5.886   0.384  11.467  0.2426  0.0567 -1.0968
15601TIP3   OH268217   1.375   3.151  12.578 -0.5885  0.3053  0.0041
15601TIP3    H168218   1.354   3.063  12.546 -1.6169  1.0438 -1.4389
15601TIP3    H268219   1.373   3.142  12.673 -1.0338 -1.1549 -0.1129
15602TIP3   OH268220   1.826   3.762  10.633  0.0748 -0.0934 -0.4588
15602TIP3    H168221   1.886   3.714  10.575  0.9760 -1.2437  1.3090
15602TIP3    H268222   1.782   3.693  10.683  0.5110  0.8510  1.3046
15603TIP3   OH268223   1.995   6.520   6.107  0.4184 -0.2355  0.8298
15603TIP3    H168224   2.073   6.563   6.141  0.4156  0.3554  0.1274
15603TIP3    H268225   1.922   6.573   6.141  0.4330  0.6179 -0.4103
15604TIP3   OH268226   0.260   2.439   0.070  0.1143 -0.2535 -0.1339
15604TIP3    H168227   0.313   2.401  -0.000  1.5540 -0.5085  1.0363
15604TIP3    H268228   0.285   2.531   0.072 -0.5644 -0.0525 -0.4914
15605TIP3   OH268229   5.069   2.026  13.126 -0.0875 -0.3461  0.2481
15605TIP3    H168230   5.136   2.054  13.188 -0.0822 -1.7187  0.9139
15605TIP3    H268231   5.090   2.070  13.044  1.2629 -0.2942  0.6132
15606TIP3   OH268232   3.656   4.143  10.704 -0.0092  0.6406 -0.5136
15606TIP3    H168233   3.708   4.207  10.656  1.6781  0.9800  1.6052
15606TIP3    H268234   3.720   4.083  10.742 -1.4356 -1.1987 -0.8375
15607TIP3   OH268235   4.960   4.044  16.050  0.5737 -0.0695  0.1396
15607TIP3    H168236   4.984   3.956  16.080  2.1179  0.9066  2.0205
15607TIP3    H268237   4.923   4.086  16.127  2.2937  1.7315  0.0560
15608TIP3   OH268238   3.064   2.092  13.038  0.1970 -0.9480 -0.2303
15608TIP3    H168239   2.977   2.117  13.008  0.3833  1.5069  1.0725
15608TIP3    H268240   3.118   2.096  12.960 -0.2422  0.7182 -0.4839
15609TIP3   OH268241   3.018   6.448  14.934 -0.0422  0.3197  0.1055
15609TIP3    H168242   3.105   6.442  14.974  0.4714 -2.1101 -1.1586
15609TIP3    H268243   2.966   6.385  14.983  0.0055 -1.0619 -1.5369
15610TIP3   OH268244   5.346   2.550  17.106  0.0314 -0.2110 -0.2671
15610TIP3    H168245   5.398   2.474  17.079  0.4476  0.1136 -0.3982
15610TIP3    H268246   5.273   2.552  17.044  0.1784 -0.3350 -0.4467
15611TIP3   OH268247   0.630   5.606  13.070  0.5440  0.0164  0.2771
15611TIP3    H168248   0.687   5.574  13.001 -0.9419 -1.0859 -0.5090
15611TIP3    H268249   0.576   5.673  13.027 -2.9065 -3.1162 -0.8511
15612TIP3   OH268250   4.526   5.097   5.271  0.3028 -0.1445  0.1129
15612TIP3    H168251   4.537   5.154   5.348 -0.9770 -0.3438  0.4628
15612TIP3    H268252   4.510   5.010   5.307 -1.4527 -0.0411 -0.3189
15613TIP3   OH268253   5.578   5.319   0.445  0.4290 -0.1788  0.0319
15613TIP3    H168254   5.672   5.335   0.431  0.5892 -0.7233  0.4584
15613TIP3    H268255   5.574   5.277   0.531 -0.2419  0.1525  0.1651
15614TIP3   OH268256   1.711   3.042  16.029 -0.3274 -0.6361 -0.2378
15614TIP3    H168257   1.693   2.992  15.949  0.1995 -0.2982 -0.5745
15614TIP3    H268258   1.625   3.050  16.072 -0.4866 -1.4601 -0.3875
15615TIP3   OH268259   4.492   3.798  12.453 -0.0825 -0.4933 -0.2169
15615TIP3    H168260   4.433   3.847  12.510  0.2610  1.1491 -1.1952
15615TIP3    H268261   4.580   3.819  12.486  0.1635  1.0621 -1.7034
15616TIP3   OH268262   5.685   6.719   0.441  0.6071  0.2906  0.5904
15616TIP3    H168263   5.645   6.789   0.389  0.9013  1.2689  1.6403
15616TIP3    H268264   5.617   6.652   0.447  0.3265  0.4659 -0.4633
15617TIP3   OH268265   3.771   2.453  14.102  0.0512 -0.0094 -0.1216
15617TIP3    H168266   3.742   2.447  14.193  0.5088  0.7483  0.0710
15617TIP3    H268267   3.816   2.537  14.095  1.3952 -0.7473 -0.6604
15618TIP3   OH268268   1.378   2.177   4.338  0.1568 -0.3957 -0.1674
15618TIP3    H168269   1.441   2.205   4.270  0.7138  0.5362  0.6984
15618TIP3    H268270   1.432   2.167   4.417 -0.7390  0.1855  0.5333
15619TIP3   OH268271   1.643   1.541   3.161  0.0466 -0.1253  0.4031
15619TIP3    H168272   1.605   1.616   3.115  1.1363  0.2692  0.1292
15619TIP3    H268273   1.643   1.471   3.096  1.7778  0.4885 -0.3125
15620TIP3   OH268274   6.627   3.726   3.663  0.3904 -0.0698  0.7685
15620TIP3    H168275   6.600   3.800   3.717 -0.3751 -1.5971  2.5680
15620TIP3    H268276   6.635   3.653   3.724  1.7299 -1.3555 -0.8540
15621TIP3   OH268277   5.661   3.454   5.929 -0.0607 -0.2764 -0.5509
15621TIP3    H168278   5.610   3.503   5.864  0.5101  1.3394  0.1557
15621TIP3    H268279   5.747   3.497   5.928 -0.1218 -0.0355  1.4640
15622TIP3   OH268280   6.023   0.060   5.499 -0.9287  0.5899 -0.2314
15622TIP3    H168281   6.100   0.114   5.515  2.3531 -3.1746 -1.5009
15622TIP3    H268282   6.028  -0.009   5.565 -1.5145 -1.2908 -2.0413
15623TIP3   OH268283   4.077   3.490   5.610 -0.6723 -0.4022 -0.4000
15623TIP3    H168284   4.169   3.467   5.626 -0.8402  0.4140  2.0715
15623TIP3    H268285   4.053   3.436   5.534  1.2186 -2.3103  0.2273
15624TIP3   OH268286   0.331   5.522  12.864  0.1039  0.3216  0.1227
15624TIP3    H168287   0.275   5.575  12.807  0.1294 -1.6592 -1.8834
15624TIP3    H268288   0.409   5.576  12.876 -0.5409  1.4291 -0.4229
15625TIP3   OH268289   3.608   6.801   5.075 -0.0182  0.4002  0.2428
15625TIP3    H168290   3.566   6.778   4.992  0.5546 -0.7296  0.2387
15625TIP3    H268291   3.620   6.717   5.119  0.5051  0.8993  1.0766
15626TIP3   OH268292   2.221   3.086   5.862 -0.0661  0.5015  0.1219
15626TIP3    H168293   2.150   3.141   5.895 -0.7803 -0.7985  0.8396
15626TIP3    H268294   2.299   3.142   5.868 -0.7265  1.3676  1.0246
15627TIP3   OH268295   5.171   2.143  13.692  0.2676 -0.3534 -0.0626
15627TIP3    H168296   5.191   2.101  13.776  1.0259  0.3525  0.1282
15627TIP3    H268297   5.237   2.109  13.632 -1.0170 -1.8206 -0.7331
15628TIP3   OH268298   2.601   2.635  15.855 -0.5472  0.2412 -0.0229
15628TIP3    H168299   2.579   2.653  15.946 -1.7693  0.2726 -0.3029
15628TIP3    H268300   2.530   2.580  15.824  0.0438 -0.0670 -0.8611
15629TIP3   OH268301   6.129   4.374   3.147  0.4549 -0.0136  0.2786
15629TIP3    H168302   6.214   4.331   3.155  1.1885  1.4226  0.6360
15629TIP3    H268303   6.068   4.316   3.192  1.2722 -0.9918  0.1562
15630TIP3   OH268304   4.377   5.525  17.029  0.2277 -0.0706 -0.2667
15630TIP3    H168305   4.361   5.582  16.955  1.3662 -0.8584 -1.1686
15630TIP3    H268306   4.448   5.567  17.077  1.2526 -0.8200 -1.0822
15631TIP3   OH268307   1.480   5.539  13.563 -0.0563 -0.3987 -0.1739
15631TIP3    H168308   1.562   5.587  13.553  0.3044 -0.9427  0.1017
15631TIP3    H268309   1.414   5.607  13.574  0.2650  0.0658 -0.9960
15632TIP3   OH268310   0.170   3.991  15.823 -0.1298  0.3350  0.5987
15632TIP3    H168311   0.170   3.976  15.918 -0.4409  0.5714  0.6371
15632TIP3    H268312   0.091   3.947  15.792  0.6030 -0.8158  0.2654
15633TIP3   OH268313   0.250   3.299   5.451  0.4194 -0.3808 -0.4669
15633TIP3    H168314   0.159   3.296   5.479  0.8223 -0.7040  0.9028
15633TIP3    H268315   0.296   3.238   5.509  1.5958  0.1609 -0.7805
15634TIP3   OH268316   5.095   4.905  16.765 -0.4803  0.0478  0.1459
15634TIP3    H168317   5.129   4.929  16.679 -1.6706 -2.1053 -0.9992
15634TIP3    H268318   5.156   4.839  16.797  0.3267  1.3024  1.3098
15635TIP3   OH268319   5.956   2.204  13.004  0.0581 -0.4792  0.7336
15635TIP3    H168320   5.897   2.257  13.057  0.2716 -0.4536  0.9466
15635TIP3    H268321   6.039   2.252  13.003 -0.6993  0.9809 -1.9640
15636TIP3   OH268322   6.212   0.005   3.870  0.8284 -0.1020  0.2456
15636TIP3    H168323   6.268   0.071   3.829  0.6760 -0.7003 -0.9561
15636TIP3    H268324   6.261  -0.077   3.861 -0.2821 -0.6605 -0.9417
15637TIP3   OH268325   5.918   1.042   1.162 -0.5548  0.1339  0.4777
15637TIP3    H168326   5.947   1.108   1.099  0.0888 -0.5245  0.0731
15637TIP3    H268327   5.901   0.964   1.109  0.7811 -0.6781  1.1904
15638TIP3   OH268328   1.200   6.662  15.485 -0.2564 -0.3456 -0.5111
15638TIP3    H168329   1.295   6.660  15.497 -0.3554  2.3374  1.6711
15638TIP3    H268330   1.185   6.610  15.406  2.7982 -2.3719  0.0445
15639TIP3   OH268331   2.428   3.378   3.754  0.1028  0.0275  0.1229
15639TIP3    H168332   2.521   3.356   3.743  0.2415  0.0737  1.0647
15639TIP3    H268333   2.405   3.426   3.675  0.2644 -1.9595 -1.1796
15640TIP3   OH268334   0.279   1.651  10.826 -0.4441 -0.0403 -0.4430
15640TIP3    H168335   0.245   1.594  10.895 -0.0771 -1.9076 -1.7271
15640TIP3    H268336   0.203   1.670  10.771 -0.5660  0.7481 -0.0176
15641TIP3   OH268337   1.218   2.596  16.259 -0.2493  0.2756  0.6357
15641TIP3    H168338   1.157   2.523  16.251  0.3277 -0.1051 -0.5907
15641TIP3    H268339   1.227   2.630  16.170  0.9142  0.6567  0.8727
15642TIP3   OH268340   0.012   1.525  10.569 -0.2805 -0.0641  0.3727
15642TIP3    H168341  -0.020   1.610  10.600  0.2136  1.1252 -2.1207
15642TIP3    H268342   0.087   1.546  10.514 -0.1708 -2.1168 -0.3541
15643TIP3   OH268343   2.973   1.651   6.548 -0.1895  0.0159  0.3819
15643TIP3    H168344   2.883   1.643   6.517 -0.2153 -0.2704  0.5320
15643TIP3    H268345   2.981   1.743   6.576 -0.2216  0.2263 -0.2916
15644TIP3   OH268346   6.683   3.897   3.461 -0.2035  0.2289 -0.2081
15644TIP3    H168347   6.699   3.971   3.520 -0.1424  1.3110 -1.5351
15644TIP3    H268348   6.660   3.824   3.519  1.1588  0.8910  1.2355
15645TIP3   OH268349   4.004   2.674   6.346 -0.1094 -0.5626  0.1247
15645TIP3    H168350   3.970   2.594   6.385 -0.1429  0.1003  1.5164
15645TIP3    H268351   4.087   2.649   6.305 -0.1197 -1.2923  0.5496
15646TIP3   OH268352   1.375   1.268   3.172 -0.3009  0.1055  0.7886
15646TIP3    H168353   1.397   1.260   3.264 -1.7485 -1.2741  1.0731
15646TIP3    H268354   1.392   1.181   3.136  0.7161  0.7588 -0.3838
15647TIP3   OH268355   5.057   2.397  14.402  0.4229  0.7633 -0.4450
15647TIP3    H168356   5.107   2.317  14.414  0.4418  1.1419  3.3677
15647TIP3    H268357   5.121   2.461  14.371  0.5375 -0.4391 -2.8964
15648TIP3   OH268358   1.902   1.455   4.897 -0.7838 -0.2877  0.5081
15648TIP3    H168359   1.993   1.449   4.928 -0.4431 -1.5436 -0.6369
15648TIP3    H268360   1.889   1.548   4.879  1.3882 -0.3967 -2.3663
15649TIP3   OH268361   5.476   2.136  14.639  0.6583  0.1975  0.6928
15649TIP3    H168362   5.545   2.152  14.575 -1.0072  1.6123 -0.8450
15649TIP3    H268363   5.487   2.205  14.705  0.7702  0.3612  0.5008
15650TIP3   OH268364   0.320   4.924  13.582  0.0589 -0.1558  0.3877
15650TIP3    H168365   0.227   4.912  13.600  0.1438 -1.4791  0.0071
15650TIP3    H268366   0.327   4.919  13.487  0.1852  2.6201  0.1709
15651TIP3   OH268367   4.952   1.305   3.525 -0.4434  0.2493 -0.4487
15651TIP3    H168368   4.954   1.279   3.617 -1.7766  2.7703  0.3838
15651TIP3    H268369   5.033   1.268   3.488  1.0178  0.5808  2.1584
15652TIP3   OH268370   2.690   5.823   4.116  0.2806  0.0838 -0.2361
15652TIP3    H168371   2.699   5.834   4.211  0.2727 -0.9235 -0.0984
15652TIP3    H268372   2.598   5.844   4.098 -0.0700 -1.0020  0.2012
15653TIP3   OH268373   4.796   1.956   4.521  0.9126 -0.4247 -0.2996
15653TIP3    H168374   4.720   1.970   4.466  0.2949 -0.0215  0.6194
15653TIP3    H268375   4.864   1.925   4.462 -0.5449 -2.8266 -0.8506
15654TIP3   OH268376   2.767   3.663  11.224 -0.2254  0.3490 -0.0821
15654TIP3    H168377   2.704   3.603  11.264 -2.7222  1.8237 -1.5528
15654TIP3    H268378   2.718   3.744  11.210  1.7865  1.3546 -2.0465
15655TIP3   OH268379   0.601   1.093   5.713 -0.0653 -0.3530  0.7440
15655TIP3    H168380   0.664   1.044   5.659  0.0757 -0.7804  1.2876
15655TIP3    H268381   0.649   1.112   5.794 -0.2336  0.4052  0.6670
15656TIP3   OH268382   0.770   4.998   2.626 -0.1164 -0.4203 -0.2993
15656TIP3    H168383   0.850   4.957   2.659  0.2285  0.0164 -0.5696
15656TIP3    H268384   0.744   4.943   2.551  1.8888  1.3214 -2.4216
15657TIP3   OH268385   3.024   1.920   0.024  0.2490 -0.1251 -0.0955
15657TIP3    H168386   3.068   1.850   0.073  0.0832 -0.6547 -0.6752
15657TIP3    H268387   3.026   1.889  -0.067 -0.3950  0.3359 -0.2718
15658TIP3   OH268388   5.529   2.632  12.492 -0.1088 -0.3762  0.4718
15658TIP3    H168389   5.535   2.656  12.584  1.4601 -1.7804  0.7927
15658TIP3    H268390   5.488   2.545  12.492  0.8648 -0.8610 -0.0273
15659TIP3   OH268391   5.479   5.966   0.919  0.2840  0.0472 -0.4141
15659TIP3    H168392   5.448   5.921   0.998 -0.4696  1.8097  0.3483
15659TIP3    H268393   5.430   5.926   0.848 -1.4167  0.5894  0.4105
15660TIP3   OH268394   5.833   5.396   5.434  0.3023 -0.0772 -0.2278
15660TIP3    H168395   5.845   5.399   5.339  0.5956  1.3131 -0.1676
15660TIP3    H268396   5.906   5.449   5.468  1.6014 -2.4705  0.9221
15661TIP3   OH268397   3.822   1.647   5.936 -0.0404 -0.0664 -0.3536
15661TIP3    H168398   3.855   1.683   6.019 -0.0631  0.2446 -0.4783
15661TIP3    H268399   3.877   1.687   5.869  0.9671 -1.4518 -0.4064
15662TIP3   OH268400   1.222   4.953  12.774 -0.1012 -0.0106 -1.0807
15662TIP3    H168401   1.163   4.919  12.842  1.3031  1.1519  0.8538
15662TIP3    H268402   1.304   4.970  12.821  0.4149  2.4439 -2.7057
15663TIP3   OH268403   1.386   6.182  14.300 -0.2945 -0.7244  0.1686
15663TIP3    H168404   1.412   6.232  14.223  1.9732 -1.5224  0.3558
15663TIP3    H268405   1.439   6.103  14.297 -0.3018 -0.8826  2.4103
15664TIP3   OH268406   1.187   4.802   0.692  0.0871 -0.3829  0.0061
15664TIP3    H168407   1.249   4.800   0.618  0.0451 -1.6610 -0.0201
15664TIP3    H268408   1.104   4.829   0.653  0.1158 -0.8401 -0.3902
15665TIP3   OH268409   2.283   2.470   4.307 -0.3286  0.3598  0.1428
15665TIP3    H168410   2.268   2.427   4.391  0.4578  1.6218  0.9711
15665TIP3    H268411   2.377   2.487   4.305 -0.3163  0.2578 -1.0543
15666TIP3   OH268412   4.402   1.398  13.834  0.4251 -0.1899  0.0345
15666TIP3    H168413   4.471   1.436  13.889  0.1920 -1.1720  1.0528
15666TIP3    H268414   4.414   1.304  13.843 -0.1402 -0.3715 -0.9695
15667TIP3   OH268415   3.795   6.566  11.371  0.4605  0.3543 -0.3968
15667TIP3    H168416   3.826   6.476  11.370  2.1503  0.9022 -1.3789
15667TIP3    H268417   3.726   6.569  11.305 -0.4555 -0.4533  0.4783
15668TIP3   OH268418   3.395   5.684  15.361 -0.9707 -0.4670 -0.0927
15668TIP3    H168419   3.329   5.627  15.400 -2.4728  0.0186 -1.8026
15668TIP3    H268420   3.423   5.638  15.282  1.4851 -1.1000  1.0487
15669TIP3   OH268421   2.427   1.500   3.232  0.2142  0.4038 -0.3235
15669TIP3    H168422   2.357   1.481   3.170 -0.7444 -0.5866  0.9828
15669TIP3    H268423   2.427   1.595   3.242 -0.1481  0.5014 -1.2146
15670TIP3   OH268424   0.680   3.300   4.453  0.7442 -0.6254 -0.2913
15670TIP3    H168425   0.607   3.337   4.404  3.5336  0.8534 -3.7342
15670TIP3    H268426   0.669   3.205   4.444  0.2044 -0.4138 -2.3224
15671TIP3   OH268427   0.118   4.658  14.971 -0.3135  0.1546 -0.2869
15671TIP3    H168428   0.112   4.732  15.032 -1.6864  0.2073 -0.4539
15671TIP3    H268429   0.140   4.699  14.887  3.2318 -0.0576  0.3854
15672TIP3   OH268430   2.847   6.580   1.588 -0.2102 -0.3798 -0.2186
15672TIP3    H168431   2.766   6.604   1.543  0.9011  0.0889 -2.0860
15672TIP3    H268432   2.834   6.609   1.678 -2.3962 -1.0147 -0.2819
15673TIP3   OH268433   4.485   4.222  11.008 -0.2565 -0.3483 -0.5650
15673TIP3    H168434   4.550   4.193  10.944 -0.5171  0.0983 -1.0337
15673TIP3    H268435   4.401   4.212  10.964 -0.5179 -0.9561  0.0517
15674TIP3   OH268436   5.386   6.167  16.430  0.2680  0.0182  0.4845
15674TIP3    H168437   5.305   6.160  16.378  0.0433  0.5245  0.7602
15674TIP3    H268438   5.445   6.104  16.390  0.5169  1.2200 -1.1409
15675TIP3   OH268439   0.613   3.897  13.889  0.2743  0.5287 -0.4191
15675TIP3    H168440   0.614   3.904  13.984 -1.6390  0.1159 -0.3390
15675TIP3    H268441   0.580   3.982  13.859 -0.3057  0.2265 -0.6466
15676TIP3   OH268442   2.303   3.848  17.051 -0.3612  0.0632  0.8733
15676TIP3    H168443   2.284   3.838  16.958  0.5120  1.2662  0.5435
15676TIP3    H268444   2.312   3.759  17.084  1.1697 -0.3704 -0.6016
15677TIP3   OH268445   5.604   1.967  11.470  0.1891  0.1898 -0.2542
15677TIP3    H168446   5.531   2.009  11.424  0.2513 -0.2671 -0.7732
15677TIP3    H268447   5.676   1.969  11.408 -0.5521 -3.1940 -1.4677
15678TIP3   OH268448   1.064   6.438   0.799  0.0432  0.3813 -0.1265
15678TIP3    H168449   1.130   6.369   0.786 -0.2776  0.0960 -0.2594
15678TIP3    H268450   1.098   6.513   0.749  0.7173  0.5435  0.5421
15679TIP3   OH268451   2.520   0.470   4.745 -0.5592  0.0259 -0.7278
15679TIP3    H168452   2.439   0.522   4.746  0.1618  1.1734 -0.1014
15679TIP3    H268453   2.508   0.409   4.671 -1.3026  1.2821 -1.6852
15680TIP3   OH268454   0.300   4.362   3.789  0.2390  0.2437 -0.4543
15680TIP3    H168455   0.331   4.281   3.829 -0.1564 -0.1694 -0.9726
15680TIP3    H268456   0.275   4.337   3.700  0.1076  0.9327 -0.6179
15681TIP3   OH268457   0.314   3.543  11.327 -0.5176  0.5108  0.0187
15681TIP3    H168458   0.379   3.492  11.278 -1.2013 -0.3568 -0.0210
15681TIP3    H268459   0.344   3.539  11.417  0.2092  1.2689 -0.1792
15682TIP3   OH268460   0.100   5.499  11.179 -0.1139 -0.2858 -0.4461
15682TIP3    H168461   0.161   5.565  11.144 -1.1323  1.7410  1.3868
15682TIP3    H268462   0.156   5.424  11.200  1.3123  0.4755 -1.3602
15683TIP3   OH268463   4.341   3.936  16.764 -0.2706  0.0763 -0.6130
15683TIP3    H168464   4.333   3.844  16.738 -1.2160  0.1681 -0.7169
15683TIP3    H268465   4.412   3.970  16.710 -0.2866 -0.4628 -0.9850
15684TIP3   OH268466   0.994   4.909   5.422  0.0216 -0.4282 -0.0983
15684TIP3    H168467   1.080   4.915   5.465 -0.9641  0.0365  1.9405
15684TIP3    H268468   0.957   4.827   5.453 -1.1119  0.3765  0.7450
15685TIP3   OH268469   3.675   5.913   3.062  0.4444 -0.1214 -0.1510
15685TIP3    H168470   3.640   5.852   3.126 -1.8891  0.9866 -0.2605
15685TIP3    H268471   3.707   5.987   3.114  0.6138 -0.1876 -0.1607
15686TIP3   OH268472   5.287   3.099  13.907 -0.5076  0.5166  0.0189
15686TIP3    H168473   5.282   3.191  13.881  2.6352  0.9001  0.4011
15686TIP3    H268474   5.373   3.070  13.875 -0.8681 -1.9063  1.0605
15687TIP3   OH268475   1.478   6.415  15.457 -0.3219  0.0190  0.0547
15687TIP3    H168476   1.511   6.326  15.443  0.5413 -0.4697  3.8946
15687TIP3    H268477   1.557   6.469  15.464 -0.6450  0.3736  1.2444
15688TIP3   OH268478   5.064   3.131  12.241  0.0381 -0.0255 -0.3874
15688TIP3    H168479   5.102   3.084  12.167  1.5449  4.0622 -2.4725
15688TIP3    H268480   5.132   3.129  12.308 -0.0583 -0.9975 -0.2997
15689TIP3   OH268481   2.371   3.940   2.765 -0.0727  0.2105 -0.0673
15689TIP3    H168482   2.290   3.963   2.810  0.2725  2.3959 -0.4484
15689TIP3    H268483   2.372   3.844   2.765 -2.1393  0.1316  0.8267
15690TIP3   OH268484   5.111   5.841   1.039 -0.0951 -0.6402 -0.2744
15690TIP3    H168485   5.092   5.776   0.972  0.9357 -2.3738  1.0287
15690TIP3    H268486   5.148   5.915   0.991  1.5716 -2.2310 -1.5579
15691TIP3   OH268487   5.968   1.050  13.011 -0.6722  0.2388  0.6189
15691TIP3    H168488   5.916   0.982  12.968 -1.5345  0.8847  0.6025
15691TIP3    H268489   5.961   1.030  13.104 -0.6176  0.0919  0.5919
15692TIP3   OH268490   0.485   4.037   1.695  0.0798  0.0796 -0.0540
15692TIP3    H168491   0.571   4.022   1.735  0.3900 -0.7350 -0.9868
15692TIP3    H268492   0.423   4.032   1.767  0.9104  1.8662  0.8425
15693TIP3   OH268493   1.913   4.970  12.277  0.0369  0.1307 -0.0387
15693TIP3    H168494   1.878   4.888  12.312 -0.1597  0.9599  1.8332
15693TIP3    H268495   1.998   4.980  12.318  0.3967  0.5040 -0.8489
15694TIP3   OH268496   2.741   5.396   5.710  0.4284  0.1547  0.4631
15694TIP3    H168497   2.803   5.429   5.775  0.1513  1.2984  0.1765
15694TIP3    H268498   2.691   5.473   5.684  0.4265 -0.3111 -1.0034
15695TIP3   OH268499   5.068   2.834  10.504 -0.2108  0.3075 -0.8076
15695TIP3    H168500   5.085   2.773  10.576 -1.1915  1.4537  0.4481
15695TIP3    H268501   4.973   2.831  10.492 -0.2744  1.5416 -0.7479
15696TIP3   OH268502   2.606   0.197  14.677  0.2723 -0.0735 -0.0816
15696TIP3    H168503   2.590   0.134  14.747 -1.6903  2.9047  2.3787
15696TIP3    H268504   2.538   0.179  14.612 -0.5479 -0.2205  0.8066
15697TIP3   OH268505   0.214   5.933  15.576  0.6884  0.3307 -0.4453
15697TIP3    H168506   0.268   6.000  15.617 -1.0665  0.9749  0.9490
15697TIP3    H268507   0.193   5.969  15.490  1.0798  0.8261 -0.3382
15698TIP3   OH268508   1.415   0.355   4.363 -0.0698 -0.3297 -0.2920
15698TIP3    H168509   1.431   0.378   4.455 -0.8571  0.5862 -0.3678
15698TIP3    H268510   1.387   0.263   4.366 -1.3554  0.0635  0.5450
15699TIP3   OH268511   3.322   6.080   0.496  0.1616  0.0114  0.2420
15699TIP3    H168512   3.304   6.081   0.590  2.0621 -0.2735  0.6523
15699TIP3    H268513   3.341   6.171   0.475  0.4994 -0.0429  0.3064
15700TIP3   OH268514   3.544   1.171  15.313  0.2353 -0.6062 -0.0330
15700TIP3    H168515   3.486   1.244  15.290  2.0016  1.1061  0.6330
15700TIP3    H268516   3.486   1.096  15.320 -1.7782  0.8440 -0.1645
15701TIP3   OH268517   1.583   1.135   6.568 -0.1594 -0.1512  0.6437
15701TIP3    H168518   1.600   1.220   6.529  0.1525 -0.7399 -0.5498
15701TIP3    H268519   1.654   1.122   6.631 -0.3137  0.5435  0.9650
15702TIP3   OH268520   0.926   4.024  15.289 -0.6685  0.2453 -0.7365
15702TIP3    H168521   0.994   4.047  15.352 -0.6249 -0.7538 -0.3990
15702TIP3    H268522   0.858   4.090  15.302  0.2175  1.2676 -1.0827
15703TIP3   OH268523   4.580   1.156   6.551  0.1946 -0.3733  0.2972
15703TIP3    H168524   4.639   1.173   6.625 -0.3845  0.7579  0.5232
15703TIP3    H268525   4.574   1.060   6.547  1.4629 -0.4858  0.7207
15704TIP3   OH268526   5.281   1.773  15.990 -0.1088  0.4995  0.7210
15704TIP3    H168527   5.330   1.828  15.929 -2.0416  0.5279 -0.9079
15704TIP3    H268528   5.225   1.834  16.038 -0.5437  0.2053  0.5937
15705TIP3   OH268529   1.995   5.902   5.861  0.3432  0.3646 -0.0773
15705TIP3    H168530   2.019   5.850   5.938  1.1830  1.4223  0.4058
15705TIP3    H268531   2.008   5.843   5.787  1.5280 -0.0511  0.4307
15706TIP3   OH268532   6.728   6.357  15.808  0.8379 -0.4767  0.1247
15706TIP3    H168533   6.692   6.316  15.729 -0.7754  2.0673 -0.5639
15706TIP3    H268534   6.652   6.392  15.854  2.0965  3.6601 -0.5031
15707TIP3   OH268535   0.944   2.442  16.838  0.3967  0.3942 -0.0241
15707TIP3    H168536   0.923   2.454  16.931 -1.1549  0.6837 -0.3867
15707TIP3    H268537   0.994   2.361  16.835  0.4184  0.3485  1.0549
15708TIP3   OH268538   3.090   3.901  11.885  0.1337  0.1440 -0.3185
15708TIP3    H168539   3.040   3.963  11.834  0.5786 -0.0295 -0.9771
15708TIP3    H268540   3.159   3.953  11.926 -0.6474  0.4067  0.7011
15709TIP3   OH268541   6.780   3.919   0.352 -0.0756  0.0253  0.2836
15709TIP3    H168542   6.779   3.965   0.436 -1.9283 -0.1550  0.4226
15709TIP3    H268543   6.846   3.964   0.299  2.0491 -0.6424  2.2164
15710TIP3   OH268544   3.839   1.702  13.306 -0.2044  0.5623  0.1834
15710TIP3    H168545   3.922   1.686  13.351 -0.7791  1.5668  1.6669
15710TIP3    H268546   3.863   1.760  13.233  0.3652  1.1234  0.7975
15711TIP3   OH268547   1.962   4.830   4.032 -0.1479  0.1748  0.3904
15711TIP3    H168548   2.005   4.754   4.071 -0.2039 -0.0006  0.1156
15711TIP3    H268549   2.033   4.882   3.995 -0.2663 -1.2710 -2.1510
15712TIP3   OH268550   2.189   4.209  11.100  0.2708  0.1127  0.1192
15712TIP3    H168551   2.205   4.296  11.136 -0.1383 -0.8658  2.8381
15712TIP3    H268552   2.173   4.153  11.176  0.1362 -2.2890 -1.5561
15713TIP3   OH268553   4.351   2.680   4.901  0.0285 -0.2901  0.1832
15713TIP3    H168554   4.430   2.631   4.920  0.4381 -0.1012 -0.9627
15713TIP3    H268555   4.284   2.642   4.958  0.3386 -2.1369 -0.6176
15714TIP3   OH268556   3.609   5.499  14.487  0.2144  0.2186  0.1662
15714TIP3    H168557   3.576   5.428  14.431 -0.9322  1.2326 -0.4964
15714TIP3    H268558   3.541   5.510  14.554  1.1186 -0.3202  1.2151
15715TIP3   OH268559   5.595   2.242  14.914  0.0118 -0.4624  0.3856
15715TIP3    H168560   5.646   2.307  14.866  0.4663 -0.5515  0.7435
15715TIP3    H268561   5.604   2.268  15.006 -0.6501 -0.4355  0.4510
15716TIP3   OH268562   0.214   4.502   5.388  0.1535  0.8657 -0.0519
15716TIP3    H168563   0.236   4.448   5.464  0.2117  1.8891  0.6765
15716TIP3    H268564   0.122   4.484   5.371  0.5880 -0.7590 -0.9087
15717TIP3   OH268565   1.415   4.564  16.126  0.2183 -0.0867  0.3278
15717TIP3    H168566   1.494   4.593  16.080  1.6059  0.0532  2.6645
15717TIP3    H268567   1.346   4.622  16.094  1.1546  0.2091 -1.2808
15718TIP3   OH268568   3.801   5.072  15.632  0.3845  0.3755 -0.1658
15718TIP3    H168569   3.715   5.035  15.612  0.3105  1.0054 -1.0687
15718TIP3    H268570   3.859   5.039  15.563  0.6706  0.6464 -0.0592
15719TIP3   OH268571   1.362   5.635   4.633  0.4071 -0.1444 -0.0551
15719TIP3    H168572   1.424   5.708   4.631 -0.3747  0.6568  1.9822
15719TIP3    H268573   1.418   5.557   4.639  1.2377  0.3185 -1.3626
15720TIP3   OH268574   2.949   2.297   0.415 -0.1615  0.3030  0.7509
15720TIP3    H168575   2.886   2.369   0.422 -0.1320  0.4823 -0.5133
15720TIP3    H268576   2.927   2.254   0.332  0.9841 -0.0211  0.5979
15721TIP3   OH268577   2.778   2.559  16.712 -0.3886  0.5001 -0.1718
15721TIP3    H168578   2.691   2.585  16.682 -0.8839 -3.2141 -2.6392
15721TIP3    H268579   2.820   2.522  16.635  1.3793 -2.4989  2.0104
15722TIP3   OH268580   1.764   4.077  12.519 -0.1823  0.0810  0.4019
15722TIP3    H168581   1.730   4.032  12.596  2.0178 -0.3042  1.2180
15722TIP3    H268582   1.817   4.011  12.474 -0.4327  0.6529 -0.7686
15723TIP3   OH268583   4.353   2.635  11.783 -0.5172 -0.1559  0.0654
15723TIP3    H168584   4.415   2.600  11.847  0.1903  1.1742  0.1604
15723TIP3    H268585   4.285   2.676  11.836 -0.4890  0.0219 -0.0351
15724TIP3   OH268586   0.360   3.136  14.218  0.8158 -0.7900 -0.2518
15724TIP3    H168587   0.402   3.050  14.220  2.1899 -0.1819  2.9239
15724TIP3    H268588   0.309   3.140  14.298  1.3123  1.5643  0.0216
15725TIP3   OH268589   4.684   5.294   4.775  0.3822 -0.0600 -0.6512
15725TIP3    H168590   4.615   5.244   4.731 -2.0756  2.1839  0.4195
15725TIP3    H268591   4.668   5.282   4.868  1.1244  0.9192 -0.3717
15726TIP3   OH268592   5.106   2.105  11.909 -0.6379 -0.3218  0.8303
15726TIP3    H168593   5.141   2.068  11.990  0.0141  2.0587  1.7165
15726TIP3    H268594   5.064   2.031  11.866  0.8824 -2.1456  2.2781
15727TIP3   OH268595   2.531   0.064   3.518  0.2510  0.2190  0.6737
15727TIP3    H168596   2.520  -0.031   3.519  2.1376 -0.0839 -0.6738
15727TIP3    H268597   2.608   0.079   3.573  1.2879  0.6882 -0.8424
15728TIP3   OH268598   4.617   2.198  15.398  0.1876 -0.7652 -0.1295
15728TIP3    H168599   4.530   2.225  15.427  0.8900  0.6036  0.8220
15728TIP3    H268600   4.604   2.168  15.308 -0.9400  1.5242 -0.8248
15729TIP3   OH268601   6.495   5.630  13.266  0.2714  0.0361  0.5272
15729TIP3    H168602   6.507   5.568  13.194  2.5711  0.7578  0.1995
15729TIP3    H268603   6.422   5.686  13.239  1.0923  0.2937 -1.2610
15730TIP3   OH268604   1.079   0.636   5.025 -0.5711  0.3059  0.1248
15730TIP3    H168605   1.053   0.547   5.003  1.7476 -1.0358  2.3079
15730TIP3    H268606   1.036   0.653   5.108 -1.1934  1.3728 -0.3925
15731TIP3   OH268607   2.293   0.539  11.701  0.3337  0.1500  0.0831
15731TIP3    H168608   2.223   0.496  11.750  0.2780  1.9026  1.6391
15731TIP3    H268609   2.332   0.600  11.763  1.7480  0.8613 -1.4300
15732TIP3   OH268610   1.281   0.153   5.078  0.4973  0.2453  0.4789
15732TIP3    H168611   1.190   0.121   5.086  0.9843 -1.6569 -0.7412
15732TIP3    H268612   1.334   0.077   5.102  1.8110  1.4890  1.6724
15733TIP3   OH268613   1.977   4.505  14.069  0.1390  0.1537 -0.3707
15733TIP3    H168614   1.979   4.411  14.087 -0.3946  0.2750  0.3743
15733TIP3    H268615   1.884   4.525  14.058  0.3866  0.1168 -3.3315
15734TIP3   OH268616   5.456   4.918  13.674  0.0561  0.1006  0.0594
15734TIP3    H168617   5.395   4.868  13.729  1.7567 -1.4735  0.6144
15734TIP3    H268618   5.531   4.936  13.731  0.3521  1.5366 -0.7468
15735TIP3   OH268619   0.962   3.750   4.710 -0.2306 -0.4907 -0.0439
15735TIP3    H168620   0.976   3.818   4.644  0.2141  0.1309  0.6704
15735TIP3    H268621   1.048   3.737   4.748 -0.7648  0.3813  1.5668
15736TIP3   OH268622   0.449   2.141  10.867  0.4352  0.2960  0.2715
15736TIP3    H168623   0.380   2.199  10.900  0.9726  0.7055  0.6878
15736TIP3    H268624   0.525   2.198  10.855  1.1910 -0.4414  1.3685
15737TIP3   OH268625   5.693   5.526   6.064  0.0560  0.2629  0.2690
15737TIP3    H168626   5.673   5.541   6.156  1.4880 -0.5570  0.7478
15737TIP3    H268627   5.652   5.441   6.044  1.8570 -0.8267  0.9157
15738TIP3   OH268628   2.026   2.706  14.922  0.6055 -0.3474  0.0760
15738TIP3    H168629   1.973   2.686  14.844  0.0026 -1.5640  0.7676
15738TIP3    H268630   2.115   2.718  14.888 -0.0105  1.4387 -1.0734
15739TIP3   OH268631   4.485   3.864   6.440 -0.3774  0.2555 -0.1239
15739TIP3    H168632   4.524   3.777   6.428 -0.8358  0.1452 -0.8959
15739TIP3    H268633   4.391   3.848   6.442 -0.4154  0.5446  1.5470
15740TIP3   OH268634   0.954   4.151   2.854 -0.2802  0.3986 -0.1172
15740TIP3    H168635   0.861   4.142   2.875 -0.5495  1.7908 -0.6410
15740TIP3    H268636   0.957   4.210   2.780  0.8830 -1.8097 -1.9659
15741TIP3   OH268637   2.044   2.951   4.323 -0.7023 -0.3492  0.9454
15741TIP3    H168638   2.048   3.022   4.387 -1.0092  0.2700  0.2821
15741TIP3    H268639   1.963   2.904   4.344 -2.1836  1.4018 -0.5753
15742TIP3   OH268640   4.515   0.012  12.942  0.0584 -0.3687 -0.6721
15742TIP3    H168641   4.423  -0.011  12.937  0.0495 -0.0940 -2.6365
15742TIP3    H268642   4.520   0.077  13.012 -1.3622  0.1125 -0.9862
15743TIP3   OH268643   5.968   1.775   0.907 -0.0328 -0.0039  0.3132
15743TIP3    H168644   5.963   1.753   0.814 -2.6536  0.9472  0.1561
15743TIP3    H268645   5.944   1.694   0.952  1.5104 -0.5458  0.2331
15744TIP3   OH268646   0.031   5.701  17.121  0.3641 -0.0132 -0.4919
15744TIP3    H168647  -0.053   5.658  17.103 -0.1895  0.0735  1.6202
15744TIP3    H268648   0.054   5.743  17.038 -1.8159  0.1821 -1.0758
15745TIP3   OH268649   5.489   5.565  15.939 -0.2507 -0.7191  0.0577
15745TIP3    H168650   5.430   5.561  15.864 -1.5893 -3.6804  1.1216
15745TIP3    H268651   5.556   5.499  15.919  0.6636  0.0634  0.4919
15746TIP3   OH268652   2.622   4.076   5.485  0.7640  0.4343 -0.6132
15746TIP3    H168653   2.656   4.125   5.410  1.5566  0.7674 -0.0527
15746TIP3    H268654   2.658   3.988   5.475 -0.3572  0.0441 -1.4194
15747TIP3   OH268655   5.070   3.282   0.364 -0.0882  0.5431 -0.1968
15747TIP3    H168656   5.107   3.247   0.283 -1.2340  0.3218 -0.6391
15747TIP3    H268657   5.067   3.377   0.349  0.9210  0.6408  0.1213
15748TIP3   OH268658   5.211   4.229   1.005 -0.0190 -0.0068 -0.4962
15748TIP3    H168659   5.117   4.250   1.009 -0.0019  0.4338 -1.9459
15748TIP3    H268660   5.222   4.186   0.920  0.9360 -0.9495  0.0860
15749TIP3   OH268661   4.223   3.708  11.279 -0.2288 -0.0726  0.1106
15749TIP3    H168662   4.177   3.653  11.343 -1.2986 -3.0033 -2.8700
15749TIP3    H268663   4.156   3.769  11.248 -0.4708 -0.4693 -0.1467
15750TIP3   OH268664   1.571   5.529  13.062 -0.7903  0.2470 -0.2813
15750TIP3    H168665   1.601   5.458  13.005 -0.9316  1.8994 -2.5452
15750TIP3    H268666   1.611   5.510  13.147  0.6962 -1.5323 -1.3053
15751TIP3   OH268667   2.850   6.509  14.356  0.0447  0.0025  0.1200
15751TIP3    H168668   2.830   6.603  14.353 -4.4063 -0.7116 -2.7280
15751TIP3    H268669   2.793   6.475  14.425 -1.5188 -0.9685 -1.5586
15752TIP3   OH268670   0.563   6.395   0.018 -0.1060 -0.2523 -0.0854
15752TIP3    H168671   0.635   6.377  -0.042  0.0042 -0.9588  0.2568
15752TIP3    H268672   0.489   6.415  -0.040  0.1754 -0.2251 -0.4432
15753TIP3   OH268673   4.531   5.488  13.468  0.1334  0.0394  0.4044
15753TIP3    H168674   4.468   5.440  13.521  1.3497  0.5490  2.4462
15753TIP3    H268675   4.615   5.471  13.510  1.0271  1.3452 -0.7499
15754TIP3   OH268676   1.495   3.417   4.305 -0.0880 -0.5366  0.3479
15754TIP3    H168677   1.585   3.383   4.303  0.7887  1.4551  1.8646
15754TIP3    H268678   1.498   3.496   4.251 -0.9746 -0.5714  0.2426
15755TIP3   OH268679   3.991   1.085  16.950  0.0115  0.2938 -0.1456
15755TIP3    H168680   4.042   1.125  17.021  0.5200 -0.0343 -0.3245
15755TIP3    H268681   3.901   1.085  16.983  0.4935 -1.5844  1.3130
15756TIP3   OH268682   0.909   6.083   4.180  0.0654  0.2977  0.4804
15756TIP3    H168683   0.958   6.096   4.099  0.3223 -1.5907  0.2801
15756TIP3    H268684   0.967   6.030   4.235 -1.1448 -0.7528  0.8048
15757TIP3   OH268685   4.430   2.647  14.566  0.1463  0.7309 -0.8940
15757TIP3    H168686   4.501   2.705  14.593  1.4525 -0.7523 -1.0115
15757TIP3    H268687   4.435   2.572  14.625 -0.9298  0.3124 -1.3011
15758TIP3   OH268688   0.090   0.612  16.391 -0.7688  0.4804  0.2475
15758TIP3    H168689   0.088   0.705  16.367 -2.0258  0.2088 -0.7886
15758TIP3    H268690   0.140   0.610  16.473 -0.8043  2.0791  0.3478
15759TIP3   OH268691   1.919   6.348   4.460  0.0249  0.4047  0.0396
15759TIP3    H168692   1.966   6.403   4.398  1.5137  0.2715  1.0017
15759TIP3    H268693   1.954   6.260   4.446 -0.7686  0.0816  0.0043
15760TIP3   OH268694   0.152   1.493  12.450 -0.3310 -0.5511 -0.2997
15760TIP3    H168695   0.068   1.514  12.491 -0.7337  0.3200 -1.5320
15760TIP3    H268696   0.181   1.575  12.410  1.1248 -0.8394  0.1140
15761TIP3   OH268697   3.986   1.934  16.376 -0.0954 -0.0750  0.5318
15761TIP3    H168698   3.992   1.842  16.349 -1.9721 -0.0028 -0.2454
15761TIP3    H268699   3.893   1.949  16.389  0.2271  1.6234  1.0588
15762TIP3   OH268700   6.346   4.206   2.015 -0.1790  0.4900 -0.2790
15762TIP3    H168701   6.415   4.270   1.994  2.2366 -1.5730  0.8260
15762TIP3    H268702   6.356   4.191   2.109 -2.6272  0.5532  0.0652
15763TIP3   OH268703   4.389   1.744  13.771  0.5137  0.4663  0.2457
15763TIP3    H168704   4.471   1.701  13.746  0.8369  1.0135  0.3570
15763TIP3    H268705   4.370   1.804  13.699  1.1090  1.5761  0.9880
15764TIP3   OH268706   3.898   1.911  11.065  0.2680 -0.3163 -0.0137
15764TIP3    H168707   3.915   1.959  11.146 -0.8343 -0.1606  0.1481
15764TIP3    H268708   3.821   1.954  11.027  0.6531 -0.5033 -1.0543
15765TIP3   OH268709   5.067   1.313   5.659  0.6228  0.0947 -0.5757
15765TIP3    H168710   5.052   1.268   5.576  2.5567 -0.3149 -0.7565
15765TIP3    H268711   5.081   1.242   5.722  1.3920  0.4095 -0.3791
15766TIP3   OH268712   2.156   4.754   0.296  0.6228  0.2434  0.5265
15766TIP3    H168713   2.072   4.731   0.256  0.0676 -0.5078  2.0238
15766TIP3    H268714   2.222   4.717   0.237 -0.0380  1.6338 -1.1423
15767TIP3   OH268715   2.864   5.512   2.376  0.1703 -0.3240  0.0440
15767TIP3    H168716   2.820   5.448   2.431 -0.0220 -0.6422 -0.4696
15767TIP3    H268717   2.934   5.462   2.333  1.1178  0.1997  0.9406
15768TIP3   OH268718   2.211   3.510  10.582 -0.1286  0.4246 -0.4307
15768TIP3    H168719   2.196   3.454  10.658  0.1849  0.2575 -0.4924
15768TIP3    H268720   2.136   3.493  10.525 -1.5361  2.1544  0.7810
15769TIP3   OH268721   6.668   6.049   3.095  0.8148  0.0948 -0.0499
15769TIP3    H168722   6.579   6.068   3.068  0.4120 -1.2282  0.2502
15769TIP3    H268723   6.658   6.006   3.181  1.6144 -1.3179 -0.6281
15770TIP3   OH268724   5.699   5.423   1.883  0.3271  0.0435 -0.3862
15770TIP3    H168725   5.790   5.427   1.855  0.4431  2.1759  0.1353
15770TIP3    H268726   5.702   5.411   1.978 -0.0228 -2.3938 -0.6080
15771TIP3   OH268727   3.922   6.039   3.461 -0.4158 -0.1645  0.3818
15771TIP3    H168728   3.852   6.043   3.526 -0.3750 -0.3531  0.4398
15771TIP3    H268729   3.915   5.950   3.425 -1.5659  0.4869 -1.1215
15772TIP3   OH268730   5.936   4.171  13.393 -0.3580 -0.1617 -0.1590
15772TIP3    H168731   5.925   4.150  13.486 -0.0373 -0.0393 -0.0924
15772TIP3    H268732   5.983   4.254  13.392  1.5526 -1.1703 -0.4212
15773TIP3   OH268733   3.278   0.941  11.638 -0.1715 -0.5273  0.0952
15773TIP3    H168734   3.184   0.925  11.641 -0.1602 -0.7023 -0.3844
15773TIP3    H268735   3.318   0.857  11.663 -0.1417 -0.4843  0.1928
15774TIP3   OH268736   3.120   1.699  16.703 -0.3229 -0.6559  0.4131
15774TIP3    H168737   3.206   1.672  16.671 -1.4294 -1.8665 -1.7827
15774TIP3    H268738   3.091   1.767  16.642 -0.9105 -0.2001  1.1687
15775TIP3   OH268739   5.291   0.774  11.046 -0.4931  0.0010 -0.0566
15775TIP3    H168740   5.267   0.684  11.071  0.7861 -0.5265 -0.6261
15775TIP3    H268741   5.383   0.782  11.071 -0.7956  1.4559  0.7256
15776TIP3   OH268742   2.530   5.772  16.149 -0.2453 -0.0616  0.6425
15776TIP3    H168743   2.440   5.740  16.148 -0.0418 -0.6275  0.3413
15776TIP3    H268744   2.564   5.750  16.062 -0.6099  2.4649 -0.2334
15777TIP3   OH268745   5.207   1.919   0.675 -0.0799 -0.4438 -0.4477
15777TIP3    H168746   5.168   1.932   0.588  2.5320  1.2667 -1.5039
15777TIP3    H268747   5.150   1.968   0.734 -1.4619 -0.9531 -1.2964
15778TIP3   OH268748   3.676   0.022  12.105  0.2175  0.1350 -0.1522
15778TIP3    H168749   3.716   0.075  12.174 -1.6659  1.0097  0.3399
15778TIP3    H268750   3.717  -0.064  12.114  0.3130  0.3329  1.8156
15779TIP3   OH268751   1.230   4.074   1.175  0.2781 -0.3929 -0.0702
15779TIP3    H168752   1.323   4.091   1.164  0.5991 -2.5398 -1.3575
15779TIP3    H268753   1.202   4.039   1.090 -1.5818 -0.2820  0.4537
15780TIP3   OH268754   6.338   6.089   5.226  0.8519  0.2247 -0.3021
15780TIP3    H168755   6.335   6.114   5.319  0.0499 -0.2409 -0.1959
15780TIP3    H268756   6.262   6.032   5.214  2.1540 -1.4967 -0.7292
15781TIP3   OH268757   0.676   0.937  11.773 -0.3211  0.4005  0.2201
15781TIP3    H168758   0.700   0.945  11.865  0.0154 -0.5353  0.2352
15781TIP3    H268759   0.584   0.961  11.769 -0.1433  1.1923  0.6651
15782TIP3   OH268760   6.187   4.101  12.675  0.3337  0.4263 -0.3675
15782TIP3    H168761   6.196   4.099  12.770 -0.4827  0.1620 -0.2945
15782TIP3    H268762   6.165   4.012  12.650  0.7042  0.4582 -0.8257
15783TIP3   OH268763   4.236   4.646  12.336  0.0471  0.3957  0.4985
15783TIP3    H168764   4.170   4.617  12.273  0.7493 -1.0025  0.3837
15783TIP3    H268765   4.185   4.677  12.411 -0.7776 -1.5112  0.7890
15784TIP3   OH268766   5.059   4.988   5.924  0.1589  1.2442 -0.1923
15784TIP3    H168767   5.151   4.965   5.936 -0.2304  0.1268  0.9177
15784TIP3    H268768   5.045   5.063   5.982  0.3688  1.4451 -0.3979
15785TIP3   OH268769   2.446   0.494   3.041  0.5371  0.1010  0.3495
15785TIP3    H168770   2.355   0.465   3.047  0.3172  1.0592  2.2460
15785TIP3    H268771   2.445   0.585   3.071  1.8349  0.8152 -1.5226
15786TIP3   OH268772   4.645   0.731  14.544  0.2288  0.0412 -0.3981
15786TIP3    H168773   4.655   0.824  14.567 -0.9847  0.1984 -0.4219
15786TIP3    H268774   4.584   0.732  14.470  1.0513 -0.7146 -1.1015
15787TIP3   OH268775   5.534   3.414   1.316 -0.3851 -0.3808 -0.4835
15787TIP3    H168776   5.622   3.447   1.297  1.2738 -4.6725 -1.4062
15787TIP3    H268777   5.537   3.385   1.406 -0.5960 -1.2573 -0.7518
15788TIP3   OH268778   1.098   4.888  14.942  0.3259 -0.6976  0.2184
15788TIP3    H168779   1.062   4.865  15.027  0.6028 -1.7791  0.0531
15788TIP3    H268780   1.056   4.971  14.920 -0.8899 -1.1519  0.7359
15789TIP3   OH268781   1.302   4.983  16.341 -0.1042  0.1365 -0.1217
15789TIP3    H168782   1.366   4.917  16.366 -0.6107  0.5982  2.6589
15789TIP3    H268783   1.217   4.946  16.365 -0.5435  1.1088 -0.1090
15790TIP3   OH268784   5.153   1.069   4.524 -0.0816  0.2932 -0.3097
15790TIP3    H168785   5.238   1.102   4.555 -0.0680  0.7598 -0.8444
15790TIP3    H268786   5.155   1.083   4.430 -0.0406 -1.3294 -0.5773
15791TIP3   OH268787   2.544   4.376   2.110 -0.2532  0.5489 -0.2232
15791TIP3    H168788   2.546   4.303   2.171 -0.0961 -0.0859 -0.9642
15791TIP3    H268789   2.587   4.448   2.156 -0.5344  0.2126  0.5676
15792TIP3   OH268790   3.507   3.754   2.202  1.0269  0.3855 -0.5495
15792TIP3    H168791   3.418   3.766   2.235  1.0526  1.8425 -0.9417
15792TIP3    H268792   3.522   3.660   2.207 -0.1173  0.2336  0.5967
15793TIP3   OH268793   6.410   1.379  16.091 -0.4318 -0.6532  0.6977
15793TIP3    H168794   6.351   1.368  16.017 -0.3390  0.2113  0.4811
15793TIP3    H268795   6.476   1.311  16.079 -0.0775 -0.1476 -0.3609
15794TIP3   OH268796   6.444   4.653  13.717  0.2704  0.3106 -0.1778
15794TIP3    H168797   6.516   4.696  13.671  0.5271  0.6492  0.5228
15794TIP3    H268798   6.379   4.635  13.649  1.5201 -1.1398 -1.0458
15795TIP3   OH268799   4.262   3.902  12.631 -0.4203  0.6439 -0.2342
15795TIP3    H168800   4.238   3.810  12.639 -1.2563  0.8064 -0.7577
15795TIP3    H268801   4.231   3.941  12.713  0.3488  0.3867  0.1914
15796TIP3   OH268802   2.025   2.180   0.946 -0.0820 -0.0125  0.5252
15796TIP3    H168803   2.038   2.148   1.036 -0.1140  0.3579  0.6661
15796TIP3    H268804   1.960   2.121   0.909  1.2572 -1.3115  0.1276
15797TIP3   OH268805   4.401   2.700   0.083  0.2844  0.0805 -0.0562
15797TIP3    H168806   4.489   2.704   0.045  0.7629  0.2149  1.0211
15797TIP3    H268807   4.415   2.663   0.170 -0.5432  1.2823  0.6180
15798TIP3   OH268808   0.060   2.204   1.790  0.2552 -0.1099 -0.8624
15798TIP3    H168809   0.085   2.117   1.761  1.0760  0.1215 -0.8501
15798TIP3    H268810   0.135   2.260   1.769 -0.2662  0.6002 -0.8899
15799TIP3   OH268811   0.857   4.208  13.869 -0.2174  0.3860 -0.8215
15799TIP3    H168812   0.940   4.253  13.886 -0.1190 -0.3637  0.9647
15799TIP3    H268813   0.811   4.210  13.953 -0.8512 -1.4749 -1.0802
15800TIP3   OH268814   1.313   6.792   1.050 -0.0020 -0.2429  0.1603
15800TIP3    H168815   1.323   6.711   1.100 -0.5915 -0.2936  0.2052
15800TIP3    H268816   1.390   6.844   1.072  0.1386 -0.5917  0.5019
15801TIP3   OH268817   6.204   0.873  11.825 -0.1370  0.1332 -0.1224
15801TIP3    H168818   6.216   0.810  11.754 -0.8279  0.0765 -0.1945
15801TIP3    H268819   6.269   0.848  11.891 -0.2281 -0.4922 -0.2666
15802TIP3   OH268820   6.642   6.201  16.231  0.0077  0.4081  0.1770
15802TIP3    H168821   6.626   6.239  16.145 -1.0526 -1.7019 -0.6402
15802TIP3    H268822   6.557   6.171  16.260  0.4661  0.4903  1.6948
15803TIP3   OH268823   6.117   0.777   0.736 -0.0675 -0.0097  0.4775
15803TIP3    H168824   6.062   0.769   0.814 -1.4593  1.6392 -0.2738
15803TIP3    H268825   6.074   0.723   0.670  0.1441 -0.0259  0.3509
15804TIP3   OH268826   4.424   3.564   1.748  0.1961  0.1760  0.4223
15804TIP3    H168827   4.471   3.616   1.682  1.5856  0.1773  1.3789
15804TIP3    H268828   4.417   3.622   1.823  0.9824 -0.6988  1.1970
15805TIP3   OH268829   6.364   1.754   2.823  0.1653  0.2810 -0.1173
15805TIP3    H168830   6.399   1.680   2.775 -0.7411 -0.1636 -0.1146
15805TIP3    H268831   6.431   1.776   2.888  1.0315  0.3568 -1.0267
15806TIP3   OH268832   2.905   6.548  12.542  0.2526 -0.6257  0.2881
15806TIP3    H168833   2.877   6.558  12.451  0.3863 -0.0415  0.3079
15806TIP3    H268834   2.868   6.624  12.587  0.0228 -1.0176  0.7639
15807TIP3   OH268835   4.657   1.496   4.868 -0.2652 -0.1982  0.1924
15807TIP3    H168836   4.577   1.452   4.896 -0.5033  0.4702  0.5873
15807TIP3    H268837   4.663   1.479   4.774 -0.7684 -0.4052  0.1968
15808TIP3   OH268838   1.734   1.749   1.550 -0.3677  0.3774  1.1247
15808TIP3    H168839   1.808   1.795   1.590 -0.5079  0.1659  1.6327
15808TIP3    H268840   1.659   1.807   1.565  0.0288  1.6481 -1.2807
15809TIP3   OH268841   4.523   0.924   3.525  0.3348  0.2425 -0.4371
15809TIP3    H168842   4.433   0.891   3.523  1.0001 -1.8838 -3.8237
15809TIP3    H268843   4.514   1.018   3.508 -1.2811  0.5018  1.4906
15810TIP3   OH268844   4.110   2.538   0.303  0.4804  0.4183 -0.3784
15810TIP3    H168845   4.163   2.617   0.304  0.7056  0.2694  0.4921
15810TIP3    H268846   4.048   2.551   0.231  2.4523  0.0869 -2.2226
15811TIP3   OH268847   0.394   3.860   5.887  0.6336  0.4630 -0.1019
15811TIP3    H168848   0.359   3.948   5.902  1.1962  0.8769 -1.1281
15811TIP3    H268849   0.338   3.803   5.940 -1.8002  1.0600 -1.8551
15812TIP3   OH268850   4.595   2.368   0.043  0.1918 -0.2245 -0.7073
15812TIP3    H168851   4.550   2.440   0.086  0.8301  1.8428 -3.1974
15812TIP3    H268852   4.561   2.368  -0.047  1.2213 -2.1549 -1.1720
15813TIP3   OH268853   5.222   5.935  12.002  0.4233  0.2582  0.0575
15813TIP3    H168854   5.206   5.903  11.913 -0.0720 -0.2402  0.3202
15813TIP3    H268855   5.135   5.937  12.043  0.9545 -2.5774  1.5459
15814TIP3   OH268856   1.022   2.324   0.715 -0.3745  0.2006 -0.1631
15814TIP3    H168857   1.108   2.293   0.686 -0.2998  0.6529 -0.4304
15814TIP3    H268858   0.961   2.257   0.683 -0.0860 -0.3332  0.3820
15815TIP3   OH268859   3.510   1.618   4.706  0.6573  0.2449 -1.1910
15815TIP3    H168860   3.442   1.559   4.675  1.2982 -2.1201  1.5148
15815TIP3    H268861   3.592   1.570   4.691  1.2776  0.7760  0.2849
15816TIP3   OH268862   3.179   1.445   2.418  0.7785 -0.0276  0.0419
15816TIP3    H168863   3.171   1.359   2.376  1.5719  0.2209 -0.6560
15816TIP3    H268864   3.207   1.426   2.508  1.4608 -0.4905 -0.2610
15817TIP3   OH268865   2.147   0.822   0.433 -0.7416 -0.0910 -0.1925
15817TIP3    H168866   2.166   0.896   0.491  0.4637 -1.7175  1.6256
15817TIP3    H268867   2.180   0.850   0.347 -1.3462  1.8722  0.1565
15818TIP3   OH268868   3.452   2.803   0.353 -0.3948 -0.7465 -0.0921
15818TIP3    H168869   3.546   2.817   0.339 -0.2600 -1.2912  0.2512
15818TIP3    H268870   3.410   2.876   0.307  0.1813 -0.6751 -0.5172
15819TIP3   OH268871   2.473   3.050  15.880  0.2144  0.1028  0.4745
15819TIP3    H168872   2.455   2.985  15.812  0.0280 -0.4274  1.0206
15819TIP3    H268873   2.461   3.003  15.962  1.4259  0.4719  0.8808
15820TIP3   OH268874   2.821   0.192   3.374 -0.1447  0.4517 -0.5617
15820TIP3    H168875   2.780   0.120   3.326  1.3538  0.4653 -1.9862
15820TIP3    H268876   2.767   0.269   3.354 -0.0419  0.2803 -1.5704
15821TIP3   OH268877   2.967   3.961  16.131 -0.3607 -0.0918 -0.3608
15821TIP3    H168878   2.934   3.881  16.089  1.2096 -0.7646 -0.3689
15821TIP3    H268879   2.992   4.018  16.058  0.5629 -0.4886 -0.3671
15822TIP3   OH268880   0.581   5.876   0.478 -0.4886 -0.0494  0.5480
15822TIP3    H168881   0.649   5.927   0.521 -0.4134  0.1065  0.2509
15822TIP3    H268882   0.525   5.845   0.549 -0.3680  0.2021  0.7556
15823TIP3   OH268883   3.376   3.691  11.197  0.2507 -0.5116 -0.5148
15823TIP3    H168884   3.371   3.726  11.286 -2.6460 -1.3772 -0.2239
15823TIP3    H268885   3.313   3.743  11.147  2.8422  0.9207 -2.5171
15824TIP3   OH268886   3.415   5.498  14.099 -0.5979 -0.0746  0.3042
15824TIP3    H168887   3.391   5.466  14.013 -2.0603 -0.7608  0.9297
15824TIP3    H268888   3.332   5.508  14.145  0.1586  0.1197  1.6881
15825TIP3   OH268889   3.938   4.949  16.264 -0.1092 -0.4181  0.0787
15825TIP3    H168890   3.961   4.963  16.356  1.2401  0.8060 -0.4034
15825TIP3    H268891   4.005   4.890  16.231  0.0267 -0.0162 -0.3734
15826TIP3   OH268892   1.173   1.451   0.634 -0.6290 -0.2132 -0.7207
15826TIP3    H168893   1.262   1.457   0.669 -0.0922 -0.9733 -1.9199
15826TIP3    H268894   1.140   1.541   0.638  0.8955  0.4461 -2.0278
15827TIP3   OH268895   5.531   3.277  15.396 -0.2481  0.1484 -0.0547
15827TIP3    H168896   5.561   3.260  15.307  1.1912 -0.0740  0.4457
15827TIP3    H268897   5.495   3.194  15.426  1.6767 -0.5553  0.4486
15828TIP3   OH268898   2.083   3.432  14.008 -0.0073  0.0386  0.2683
15828TIP3    H168899   2.110   3.439  13.916 -0.6649  1.3660  0.1423
15828TIP3    H268900   2.023   3.358  14.010 -0.7302  0.5677 -0.5906
15829TIP3   OH268901   1.807   1.179   4.998 -0.7816 -0.2244 -0.2237
15829TIP3    H168902   1.774   1.105   4.946  0.3855  0.0688 -1.4216
15829TIP3    H268903   1.741   1.248   4.985  1.2059  1.2008 -4.5672
15830TIP3   OH268904   5.818   5.098   0.611  0.3804 -0.9747 -0.0136
15830TIP3    H168905   5.863   5.105   0.695 -3.0074 -0.7390  2.0044
15830TIP3    H268906   5.790   5.006   0.607  1.2384 -1.1920 -1.3368
15831TIP3   OH268907   3.373   6.350   0.455 -0.1434  0.0307  0.0524
15831TIP3    H168908   3.439   6.398   0.404 -0.1152 -1.1723 -1.1139
15831TIP3    H268909   3.375   6.390   0.542 -0.0940  2.0855 -0.8357
15832TIP3   OH268910   5.040   0.622   1.159  0.2234 -0.3917 -0.5264
15832TIP3    H168911   5.050   0.528   1.147  0.5988 -0.3745 -0.3484
15832TIP3    H268912   5.069   0.660   1.076  1.2372 -0.3686 -0.1775
15833TIP3   OH268913   4.942   5.943   4.879  0.5610 -0.7219  0.3916
15833TIP3    H168914   4.976   5.993   4.805  0.1326  1.4285  1.5645
15833TIP3    H268915   5.020   5.912   4.926  0.8907  0.7939  0.8801
15834TIP3   OH268916   0.053   6.380  13.633 -0.3252  0.4350 -0.2707
15834TIP3    H168917   0.143   6.393  13.662 -0.2443  0.8263 -0.6894
15834TIP3    H268918   0.021   6.307  13.686  0.1093  0.5519  0.1567
15835TIP3   OH268919   5.246   2.447   1.177  0.1302 -0.3118 -0.1998
15835TIP3    H168920   5.197   2.375   1.139 -0.8937  0.6597 -0.7917
15835TIP3    H268921   5.324   2.407   1.215 -0.3068 -1.6777 -0.7171
15836TIP3   OH268922   2.143   0.116   3.241 -0.4910  0.3449 -0.5304
15836TIP3    H168923   2.148   0.064   3.161  0.1212 -0.3025 -0.0856
15836TIP3    H268924   2.235   0.131   3.265 -0.6483 -0.5874  0.7548
15837TIP3   OH268925   1.772   2.872   6.255  0.0314  0.2192 -0.0995
15837TIP3    H168926   1.820   2.949   6.226  0.0726  0.1845 -0.1234
15837TIP3    H268927   1.776   2.812   6.181 -0.3036  0.3339 -0.2127
15838TIP3   OH268928   1.728   6.196  10.509 -0.3447 -0.5068 -0.1298
15838TIP3    H168929   1.709   6.103  10.520 -2.5461 -0.3183 -1.6156
15838TIP3    H268930   1.651   6.241  10.544 -0.4992  0.6119 -1.7950
15839TIP3   OH268931   0.655   0.718   1.231 -0.4495  0.1668 -0.2462
15839TIP3    H168932   0.575   0.684   1.271 -1.4852  1.0002 -1.5324
15839TIP3    H268933   0.711   0.641   1.219 -1.7903 -0.7272 -0.9661
15840TIP3   OH268934   3.209   6.531  15.265  0.1555  0.1395 -0.1948
15840TIP3    H168935   3.273   6.587  15.222  0.6366 -0.1167  0.1837
15840TIP3    H268936   3.255   6.448  15.280 -0.3227 -0.1137 -0.0970
15841TIP3   OH268937   1.266   2.742   0.691 -0.4953  0.2277 -0.7015
15841TIP3    H168938   1.316   2.743   0.772 -0.7824  0.1362 -0.5186
15841TIP3    H268939   1.179   2.773   0.717 -1.8226 -3.4177 -0.1222
15842TIP3   OH268940   2.142   3.062  14.948 -0.6353  0.5609  0.2357
15842TIP3    H168941   2.117   3.086  15.038 -2.1400  0.3404 -0.1023
15842TIP3    H268942   2.077   3.105  14.893 -2.3153 -2.6735 -0.5106
15843TIP3   OH268943   0.739   3.593   0.597 -0.3356  0.0803 -0.1102
15843TIP3    H168944   0.776   3.665   0.647 -0.6319 -1.1680  2.0189
15843TIP3    H268945   0.814   3.553   0.553  0.1460  0.3927  0.4171
15844TIP3   OH268946   1.310   1.965  13.411  0.2740 -0.0628  0.4456
15844TIP3    H168947   1.292   1.893  13.472  2.9501  0.3426  1.8674
15844TIP3    H268948   1.404   1.958  13.393 -0.1640  0.6775 -2.6265
15845TIP3   OH268949   1.585   4.236  13.220  0.4809 -0.1002 -0.8390
15845TIP3    H168950   1.668   4.282  13.211  0.0811  0.7390 -0.4495
15845TIP3    H268951   1.591   4.162  13.160  1.4354  0.0508 -0.9413
15846TIP3   OH268952   2.525   4.288   4.365  0.1984  0.3415  0.1344
15846TIP3    H168953   2.603   4.319   4.318  0.2522  1.4009  0.8830
15846TIP3    H268954   2.511   4.354   4.433 -0.3231 -0.7592  1.1191
15847TIP3   OH268955   2.472   6.014   1.450 -0.1660 -0.0686 -0.5998
15847TIP3    H168956   2.453   6.068   1.526  0.0103 -0.8666  0.0206
15847TIP3    H268957   2.386   5.997   1.411 -0.2406  0.4723 -0.6721
15848TIP3   OH268958   1.999   1.283   0.179  0.4387 -0.4901 -0.1778
15848TIP3    H168959   1.978   1.376   0.187  1.6170 -0.2474  0.2395
15848TIP3    H268960   1.915   1.242   0.156  0.1794  0.8336 -1.8015
15849TIP3   OH268961   1.269   5.752   3.685 -0.2980  0.0277  0.6568
15849TIP3    H168962   1.217   5.672   3.681 -1.6648  0.9275 -0.0817
15849TIP3    H268963   1.318   5.753   3.603  0.5326 -0.5552  1.1258
15850TIP3   OH268964   1.305   2.804   1.637  0.1634 -0.1154  0.2298
15850TIP3    H168965   1.341   2.888   1.608  0.6939  0.2170  1.7574
15850TIP3    H268966   1.354   2.738   1.589 -0.7571  0.4356 -1.5475
15851TIP3   OH268967   4.794   2.816   3.582  0.1454  0.2232 -0.1868
15851TIP3    H168968   4.854   2.744   3.560  0.1022  0.4601 -1.1391
15851TIP3    H268969   4.730   2.815   3.511 -0.1262  0.9093  0.0443
15852TIP3   OH268970   0.585   5.859   3.850  0.2959 -0.3594  0.3828
15852TIP3    H168971   0.615   5.883   3.938  2.3277  0.9819 -0.6138
15852TIP3    H268972   0.506   5.913   3.837  1.2049  1.0938  0.6065
15853TIP3   OH268973   1.640   0.812  13.966  0.7099  0.6027  0.2974
15853TIP3    H168974   1.659   0.878  13.898  0.3388 -0.9181 -1.3390
15853TIP3    H268975   1.720   0.810  14.019  1.2049  1.4590 -0.3804
15854TIP3   OH268976   3.729   1.588   3.829 -0.6298 -0.1732  0.5346
15854TIP3    H168977   3.738   1.619   3.919  1.9153 -2.5856  1.2544
15854TIP3    H268978   3.795   1.637   3.780 -1.4434  0.5377  0.1278
15855TIP3   OH268979   6.719   3.949  12.183  0.2556 -0.2497 -0.4095
15855TIP3    H168980   6.726   3.884  12.113  0.2374  0.1987 -0.8356
15855TIP3    H268981   6.790   3.927  12.243 -0.0693 -0.9767 -0.2808
15856TIP3   OH268982   3.055   3.222   2.615 -0.3954  0.1014  0.2640
15856TIP3    H168983   3.146   3.213   2.587 -0.2309 -1.1581  1.1187
15856TIP3    H268984   3.049   3.311   2.650  0.4049  0.3200 -0.1302
15857TIP3   OH268985   1.661   0.110  12.793 -0.2571 -0.3465 -0.0397
15857TIP3    H168986   1.704   0.028  12.771  0.4293  0.1550 -0.6065
15857TIP3    H268987   1.696   0.133  12.879 -1.7974 -1.5334  0.9542
15858TIP3   OH268988   4.984   2.094   4.070 -0.0025 -0.1641  0.0571
15858TIP3    H168989   5.023   2.145   3.999 -1.5239 -1.3393 -1.7063
15858TIP3    H268990   4.890   2.111   4.064 -0.0758  0.6564  2.6156
15859TIP3   OH268991   3.662   3.132   5.717  0.3443 -0.3345  0.4043
15859TIP3    H168992   3.607   3.206   5.691  0.1571 -0.8593 -0.7957
15859TIP3    H268993   3.752   3.162   5.704  0.2748 -0.9843 -2.3339
15860TIP3   OH268994   2.899   0.051  13.531  0.0922  0.2686  0.1763
15860TIP3    H168995   2.826   0.059  13.469  0.0206  2.2973  0.4572
15860TIP3    H268996   2.900  -0.041  13.555 -0.0952 -0.5366 -2.5592
15861TIP3   OH268997   2.772   3.935   0.669 -0.3464  0.2648 -0.0557
15861TIP3    H168998   2.864   3.913   0.686 -0.1746  1.6788  1.0163
15861TIP3    H268999   2.723   3.866   0.713  0.2001  0.2547  0.5524
15862TIP3   OH269000   5.284   4.346   5.211  0.6391  0.3470 -0.1116
15862TIP3    H169001   5.331   4.308   5.286 -0.2841 -0.1782  0.2176
15862TIP3    H269002   5.290   4.441   5.225  0.2306  0.2544  0.8065
15863TIP3   OH269003   0.664   5.523   4.681  0.2704 -0.1304  0.0575
15863TIP3    H169004   0.670   5.440   4.727 -1.3999  0.5451  1.6402
15863TIP3    H269005   0.697   5.588   4.745  2.5184  0.3812 -1.4984
15864TIP3   OH269006   2.981   4.415  14.136 -0.4974  0.1277 -0.9101
15864TIP3    H169007   2.933   4.469  14.199  0.7162 -0.4662  0.5908
15864TIP3    H269008   2.921   4.343  14.116 -0.0340 -1.0804  1.6113
15865TIP3   OH269009   6.199   2.587  14.516  0.6079  0.4643  0.6742
15865TIP3    H169010   6.153   2.603  14.433  0.7892  0.3667  0.5552
15865TIP3    H269011   6.276   2.537  14.492  0.0097 -0.6748  1.0461
15866TIP3   OH269012   2.256   3.914  14.311  0.0959 -0.4534 -0.0293
15866TIP3    H169013   2.327   3.855  14.334  1.0478 -0.2551 -2.2258
15866TIP3    H269014   2.274   3.994  14.360  0.6358 -0.8573  0.4447
15867TIP3   OH269015   3.719   3.861   2.062 -0.0174  0.1452  0.1642
15867TIP3    H169016   3.655   3.830   1.998  2.8575 -0.7295 -2.5766
15867TIP3    H269017   3.689   3.827   2.146 -0.7433 -4.3215 -1.6239
15868TIP3   OH269018   3.420   6.315   1.858  0.4703  0.1817  0.3470
15868TIP3    H169019   3.395   6.394   1.811 -0.2541 -0.6480 -0.6971
15868TIP3    H269020   3.483   6.346   1.924  1.0299  1.4655 -0.7366
15869TIP3   OH269021   5.402   6.215   3.338 -0.0774  0.3793 -0.2065
15869TIP3    H169022   5.445   6.293   3.372 -0.1381  1.1284 -1.7669
15869TIP3    H269023   5.348   6.184   3.411  1.4419  0.6516  1.0717
15870TIP3   OH269024   4.564   0.130  11.258  0.1157 -0.0778  0.2346
15870TIP3    H169025   4.492   0.080  11.295  0.1668  0.9313  1.7989
15870TIP3    H269026   4.635   0.066  11.249 -1.2533 -1.3728 -2.4862
15871TIP3   OH269027   4.128   6.784   0.989  0.2255  0.2988 -0.6380
15871TIP3    H169028   4.113   6.732   1.068 -3.0739  0.4712 -1.0254
15871TIP3    H269029   4.166   6.866   1.022 -0.2652  0.0242  0.6719
15872TIP3   OH269030   0.490   1.365  13.358 -0.5335 -0.1767  0.3351
15872TIP3    H169031   0.416   1.306  13.343 -0.8937  0.3244  0.0748
15872TIP3    H269032   0.517   1.348  13.448 -0.7318 -0.6196  0.3130
15873TIP3   OH269033   6.109   2.974   0.043 -0.0516 -0.3114  0.3921
15873TIP3    H169034   6.142   2.983  -0.046  0.8467  1.0938  0.8337
15873TIP3    H269035   6.186   2.989   0.098 -0.8414  0.0694  1.4101
15874TIP3   OH269036   6.606   4.621   2.474  0.5078 -0.5637 -0.5028
15874TIP3    H169037   6.576   4.711   2.487  2.4029  0.2364 -1.4083
15874TIP3    H269038   6.545   4.585   2.410  0.5318  0.5245 -1.1601
15875TIP3   OH269039   5.485   6.425   3.802 -0.1106  0.2933  0.3169
15875TIP3    H169040   5.520   6.493   3.745 -0.3110  0.6358  0.6036
15875TIP3    H269041   5.562   6.374   3.829  0.2826  1.4337  1.4729
15876TIP3   OH269042   0.046   4.979   2.193 -0.0878  0.1960 -0.3644
15876TIP3    H169043   0.064   4.895   2.235  0.5213  0.6897  0.3858
15876TIP3    H269044   0.016   4.956   2.105 -3.1008 -0.9565  0.8241
15877TIP3   OH269045   0.162   3.229  13.665 -0.2855 -0.5266 -0.6898
15877TIP3    H169046   0.253   3.200  13.655  0.4140  0.7643  1.3212
15877TIP3    H269047   0.149   3.235  13.759 -1.6955  1.5234 -0.9469
15878TIP3   OH269048   2.558   6.797  15.290  0.3020 -0.0274 -0.1611
15878TIP3    H169049   2.590   6.884  15.312  1.2497 -0.4464  0.1523
15878TIP3    H269050   2.618   6.764  15.223 -1.7230  0.6608 -2.4731
15879TIP3   OH269051   4.641   3.952  16.202  0.7492  0.5628 -0.2366
15879TIP3    H169052   4.671   4.000  16.279 -1.9569 -0.3960  1.5804
15879TIP3    H269053   4.549   3.979  16.191  0.4990 -0.8034 -1.9134
15880TIP3   OH269054   6.233   0.336   1.142  0.2461 -0.1132 -0.5268
15880TIP3    H169055   6.238   0.292   1.057 -0.2849 -1.4606  0.0917
15880TIP3    H269056   6.155   0.297   1.183  0.2965  0.7706  0.4383
15881TIP3   OH269057   0.954   0.516   6.017  0.2400 -1.0913 -0.3823
15881TIP3    H169058   0.887   0.514   6.086  0.2183 -2.6788 -0.4081
15881TIP3    H269059   0.909   0.554   5.941 -0.6275 -2.0448 -0.3689
15882TIP3   OH269060   4.589   2.038   2.719  0.0894  0.1097 -0.2481
15882TIP3    H169061   4.655   1.978   2.685 -0.6939 -0.2962 -1.0802
15882TIP3    H269062   4.506   2.003   2.687 -0.5466  0.5409  0.8851
15883TIP3   OH269063   0.032   4.831   0.449 -0.1993 -0.1176  0.0309
15883TIP3    H169064  -0.021   4.910   0.439  1.1692  0.9351  0.6538
15883TIP3    H269065   0.014   4.801   0.538  0.4327  0.4077  0.3462
15884TIP3   OH269066   6.136   0.580   1.126  0.1744  0.2773 -0.1675
15884TIP3    H169067   6.157   0.488   1.142  1.3443  0.2217 -1.7721
15884TIP3    H269068   6.222   0.622   1.114 -0.3993  1.1708 -1.3514
15885TIP3   OH269069   6.705   5.904   1.122 -0.5229 -0.3504 -0.0532
15885TIP3    H169070   6.641   5.854   1.071 -0.1912 -0.3006 -0.5311
15885TIP3    H269071   6.754   5.838   1.172  2.2723 -1.0076 -3.2659
15886TIP3   OH269072   0.082   6.180   1.417 -0.1838  0.6587 -0.1235
15886TIP3    H169073   0.149   6.118   1.389  0.1214  1.5252 -1.3926
15886TIP3    H269074   0.010   6.166   1.355 -0.0975  1.5818 -0.4396
15887TIP3   OH269075   6.592   0.235  17.024  0.3700 -0.5366 -0.2134
15887TIP3    H169076   6.535   0.177  17.075 -1.3653  0.7329 -0.5929
15887TIP3    H269077   6.596   0.194  16.938  1.5062 -1.5397  0.2905
15888TIP3   OH269078   2.328   1.275  13.989 -0.1250  0.1561 -0.4445
15888TIP3    H169079   2.274   1.325  14.050 -0.3172 -0.7789  0.1850
15888TIP3    H269080   2.396   1.336  13.961 -0.7865  0.9826 -0.2955
15889TIP3   OH269081   4.283   1.287   1.200 -0.2730  0.1718 -0.1320
15889TIP3    H169082   4.252   1.378   1.208 -1.5108 -0.2804  0.5848
15889TIP3    H269083   4.241   1.255   1.121 -1.4929 -0.3653  0.7016
15890TIP3   OH269084   1.783   0.946  11.573  0.1859  0.0594 -0.4492
15890TIP3    H169085   1.718   0.914  11.510 -0.8859 -1.4671  1.3516
15890TIP3    H269086   1.821   1.023  11.530 -2.2567  0.5728 -1.9115
15891TIP3   OH269087   4.689   2.727   0.336 -0.1605 -0.1964 -0.3974
15891TIP3    H169088   4.699   2.689   0.424 -1.9013  0.7947  0.2745
15891TIP3    H269089   4.717   2.818   0.347  2.5235 -0.7636 -1.6435
15892TIP3   OH269090   4.466   4.996  16.577  0.1660 -0.2285 -0.2311
15892TIP3    H169091   4.379   5.002  16.617 -0.2276 -1.6578 -0.8324
15892TIP3    H269092   4.512   5.073  16.610 -1.0678  0.1442  0.7107
15893TIP3   OH269093   0.992   0.169   5.192 -0.2507 -0.4632  0.2057
15893TIP3    H169094   1.021   0.226   5.263  0.9398 -2.2641  1.2655
15893TIP3    H269095   0.932   0.107   5.235  0.9266 -1.9261 -0.1997
15894TIP3   OH269096   5.650   1.967  16.046  0.3257  0.0073  0.1116
15894TIP3    H169097   5.724   1.972  15.984  0.0671 -1.7388 -0.3882
15894TIP3    H269098   5.678   1.904  16.111 -0.0986  0.5601  0.8426
15895TIP3   OH269099   3.000   1.183   2.041  0.2766 -0.1326 -0.3010
15895TIP3    H169100   2.922   1.145   2.082  0.5449 -0.3724 -0.0077
15895TIP3    H269101   3.028   1.118   1.977 -0.3435  0.3906 -1.1358
15896TIP3   OH269102   6.767   5.932  13.856  0.0376  0.0314 -0.4766
15896TIP3    H169103   6.696   5.892  13.906  0.4942  1.7951  1.8223
15896TIP3    H269104   6.772   6.022  13.891  3.3526 -0.0097 -0.4957
15897TIP3   OH269105   2.588   5.946  13.192 -0.6292 -0.2680  0.0137
15897TIP3    H169106   2.503   5.909  13.166  0.3210 -1.9877 -0.8163
15897TIP3    H269107   2.624   5.882  13.253 -0.8355  1.5297  2.1423
15898TIP3   OH269108   2.188   3.791   5.099 -0.3150  0.0458 -0.3109
15898TIP3    H169109   2.229   3.823   5.180 -2.2935  1.1745  0.3059
15898TIP3    H269110   2.234   3.838   5.029  1.5106 -1.0485  0.0909
15899TIP3   OH269111   1.505   1.965   5.040  0.2353 -0.4735  0.1992
15899TIP3    H169112   1.567   1.960   4.966 -0.8407  1.5902 -0.9282
15899TIP3    H269113   1.556   2.002   5.111  0.4244  0.9224 -0.6296
15900TIP3   OH269114   1.577   5.961  17.108 -0.6436  0.5179 -0.5780
15900TIP3    H169115   1.567   6.056  17.117 -1.3665  0.5148 -1.1894
15900TIP3    H269116   1.660   5.950  17.062 -0.7946  0.8911 -0.9542
15901TIP3   OH269117   6.318   4.426   3.897 -0.2434 -0.1755  0.6565
15901TIP3    H169118   6.346   4.372   3.971 -0.0353 -1.8442 -0.5688
15901TIP3    H269119   6.227   4.402   3.883 -0.8257  1.4736  1.4669
15902TIP3   OH269120   3.166   2.078  10.308 -0.2744 -0.4664  0.6254
15902TIP3    H169121   3.141   2.089  10.400  1.9598 -1.5637  1.4484
15902TIP3    H269122   3.161   1.983  10.294  0.3355 -0.4005 -0.0860
15903TIP3   OH269123   0.935   3.829  13.223  0.1306 -0.3630  0.5355
15903TIP3    H169124   1.022   3.861  13.198  0.1217 -0.2283  0.6762
15903TIP3    H269125   0.951   3.743  13.261  0.2240 -0.2688  0.7155
15904TIP3   OH269126   3.660   2.216   0.343  0.2937 -0.4087  0.0983
15904TIP3    H169127   3.652   2.124   0.318 -1.5552 -0.2924  0.1652
15904TIP3    H269128   3.746   2.222   0.386  1.0035 -1.8126 -1.0407
15905TIP3   OH269129   2.301   6.185  15.513 -0.0906  0.3318  0.0974
15905TIP3    H169130   2.266   6.202  15.600  0.7614  0.3195  0.4540
15905TIP3    H269131   2.363   6.113  15.526  0.8703  1.0671 -0.3143
15906TIP3   OH269132   0.894   4.190   5.783  0.0425 -0.4946  0.0825
15906TIP3    H169133   0.889   4.099   5.753  0.6314 -1.0371  1.5318
15906TIP3    H269134   0.917   4.183   5.876 -0.5145  1.1241  0.3727
15907TIP3   OH269135   0.848   3.326  16.760  0.2471  0.2883 -0.0699
15907TIP3    H169136   0.829   3.349  16.851  0.3080 -0.7119  0.2055
15907TIP3    H269137   0.844   3.230  16.758  0.3934  0.2923 -1.0894
15908TIP3   OH269138   2.591   1.576  14.407 -0.8233  0.0014 -0.1145
15908TIP3    H169139   2.517   1.540  14.456  0.1088  0.5106  1.7246
15908TIP3    H269140   2.603   1.514  14.335 -2.9309 -0.1701 -0.3965
15909TIP3   OH269141   0.520   1.106   4.585  0.0982  0.2381  0.3904
15909TIP3    H169142   0.429   1.120   4.558  0.5291 -0.5583 -1.6546
15909TIP3    H269143   0.513   1.083   4.678 -1.6767  1.2580  0.5633
15910TIP3   OH269144   4.714   5.214   3.155 -0.4063  0.2946 -0.1019
15910TIP3    H169145   4.775   5.146   3.185  0.4836  0.2720 -1.8376
15910TIP3    H269146   4.634   5.166   3.134 -1.3567  0.4141  2.8566
15911TIP3   OH269147   3.314   6.027   0.137 -0.2326 -0.5471  0.0558
15911TIP3    H169148   3.352   6.093   0.194 -1.3613 -0.8053  1.1421
15911TIP3    H269149   3.246   5.985   0.190  0.5660 -2.7242 -0.5207
15912TIP3   OH269150   1.888   2.362  11.696  0.0524  0.0352  0.1101
15912TIP3    H169151   1.900   2.456  11.709  3.1960 -0.2929  0.4687
15912TIP3    H269152   1.856   2.331  11.781  0.9778  0.5658  0.6818
15913TIP3   OH269153   4.434   6.412   2.669  0.2257  0.1298 -0.1793
15913TIP3    H169154   4.450   6.497   2.628 -0.2619  0.3614  0.1058
15913TIP3    H269155   4.465   6.423   2.759  0.3962 -0.0741 -0.2131
15914TIP3   OH269156   6.586   3.271   2.414  0.1972 -0.4999  0.5048
15914TIP3    H169157   6.597   3.245   2.506 -0.3680 -1.7251  0.2542
15914TIP3    H269158   6.548   3.193   2.372  0.0023  0.2056 -0.6677
15915TIP3   OH269159   3.252   1.622   2.215 -0.4805  0.4102  0.1005
15915TIP3    H169160   3.329   1.637   2.270  0.4999  0.0649 -1.1166
15915TIP3    H269161   3.192   1.571   2.270 -0.2330  1.4573  1.3679
15916TIP3   OH269162   3.262   3.680  15.208 -0.1820 -0.7423 -0.1778
15916TIP3    H169163   3.279   3.754  15.150  0.5072  0.8929  1.9671
15916TIP3    H269164   3.174   3.696  15.243 -0.2321 -1.2038 -0.0886
15917TIP3   OH269165   3.971   2.399  14.878 -0.2466 -0.0173  0.2394
15917TIP3    H169166   3.915   2.406  14.800 -1.3650 -0.2226  0.9884
15917TIP3    H269167   3.924   2.338  14.935 -0.1794  1.1639  1.6433
15918TIP3   OH269168   0.979   3.972  14.122 -0.4301 -0.3679  0.2753
15918TIP3    H169169   0.933   4.054  14.104  3.7407  2.0359 -0.6949
15918TIP3    H269170   0.989   3.931  14.036  1.3088  0.4331  0.0623
15919TIP3   OH269171   6.488   2.658  13.391  0.0280  0.1575 -0.4454
15919TIP3    H169172   6.505   2.748  13.364 -1.4026  1.1005  1.5102
15919TIP3    H269173   6.533   2.649  13.475 -1.4235 -0.2576  0.3366
15920TIP3   OH269174   1.566   1.087  10.979 -0.5588 -0.5316 -0.4836
15920TIP3    H169175   1.492   1.131  11.020 -2.0493 -2.0568 -1.4229
15920TIP3    H269176   1.576   1.129  10.894 -1.5805 -1.5430 -1.1238
15921TIP3   OH269177   4.972   5.731  11.036 -0.2087 -0.0403  0.1507
15921TIP3    H169178   4.961   5.814  10.990  0.5022 -0.1954 -0.3236
15921TIP3    H269179   4.904   5.674  10.999 -0.3610  0.1720  0.0996
15922TIP3   OH269180   2.270   5.496   3.917  0.4226 -0.5967  0.2000
15922TIP3    H169181   2.353   5.489   3.963 -0.1094  0.5972  1.4189
15922TIP3    H269182   2.225   5.569   3.960 -1.2240 -1.1708 -0.4697
15923TIP3   OH269183   2.552   4.375   2.963 -0.1372 -0.5419 -0.0058
15923TIP3    H169184   2.463   4.372   2.926 -0.3695  2.4858  0.0594
15923TIP3    H269185   2.594   4.296   2.929 -3.5435 -3.6345  2.1027
15924TIP3   OH269186   2.801   5.062  16.458 -0.1472  0.9523  0.2089
15924TIP3    H169187   2.852   4.990  16.421 -3.4507 -0.6346 -1.7390
15924TIP3    H269188   2.862   5.136  16.462  2.5148 -1.0350 -0.8389
15925TIP3   OH269189   5.548   2.006  11.915  0.0138  0.1095 -0.5821
15925TIP3    H169190   5.641   2.024  11.899 -0.3250  3.4444  0.3496
15925TIP3    H269191   5.524   1.943  11.847  2.3917  1.0194 -2.4281
15926TIP3   OH269192   6.739   6.775  12.553  0.8415  0.0646 -0.0330
15926TIP3    H169193   6.770   6.733  12.633  1.8500 -1.8822 -1.3710
15926TIP3    H269194   6.806   6.839  12.531  1.1100 -0.1620  0.1168
15927TIP3   OH269195   1.439   6.691   0.547 -0.0462  0.7996  0.4502
15927TIP3    H169196   1.413   6.636   0.620 -0.9193  2.6995  1.6424
15927TIP3    H269197   1.521   6.731   0.575 -0.1389  1.1842  0.1780
15928TIP3   OH269198   1.548   4.679   3.145  0.2196  0.1430  0.0445
15928TIP3    H169199   1.615   4.679   3.213  0.3258  0.1581 -0.0592
15928TIP3    H269200   1.573   4.749   3.086  1.6207 -1.5318 -1.4577
15929TIP3   OH269201   5.305   5.533   0.155 -0.0817 -0.1749  0.0953
15929TIP3    H169202   5.255   5.488   0.223  1.3423 -0.2388  1.1549
15929TIP3    H269203   5.262   5.618   0.147 -1.0234 -0.6236  0.1717
15930TIP3   OH269204   0.810   3.610  11.253  0.0027  0.3182 -0.0318
15930TIP3    H169205   0.843   3.679  11.196  0.1678  0.0491 -0.2649
15930TIP3    H269206   0.825   3.529  11.204 -2.4314  0.2830 -0.8180
15931TIP3   OH269207   3.752   6.013  15.400 -0.1805 -0.4502 -0.4334
15931TIP3    H169208   3.763   6.061  15.318  0.6687  0.5996  0.2619
15931TIP3    H269209   3.729   5.924  15.373  1.6894 -0.5750 -1.8712
15932TIP3   OH269210   5.231   4.023   3.455 -0.0328  0.3548 -0.5229
15932TIP3    H169211   5.260   4.114   3.466  0.3171  0.3421 -1.2943
15932TIP3    H269212   5.225   3.989   3.544 -0.3548  1.1927 -0.2185
15933TIP3   OH269213   6.416   5.032   3.510 -0.2714  0.2415 -0.5072
15933TIP3    H169214   6.445   4.941   3.521  0.4183  0.6892  1.8594
15933TIP3    H269215   6.470   5.065   3.437 -0.5565 -1.2111 -1.4259
15934TIP3   OH269216   3.296   0.681   2.875 -0.1758 -0.3595  0.0166
15934TIP3    H169217   3.315   0.681   2.782  1.4945 -0.2678  0.3302
15934TIP3    H269218   3.252   0.765   2.891 -0.4817 -0.3836 -0.6792
15935TIP3   OH269219   3.435   3.367   0.865 -0.2022  0.0998 -0.0558
15935TIP3    H169220   3.408   3.454   0.892  0.8810 -0.1632  2.1078
15935TIP3    H269221   3.494   3.337   0.934  0.9343 -1.6290 -1.6429
15936TIP3   OH269222   6.166   2.794  15.770  0.1043 -0.1978 -0.2864
15936TIP3    H169223   6.244   2.818  15.721 -0.4043 -1.0602 -1.5500
15936TIP3    H269224   6.170   2.848  15.849  0.1019  2.5095 -2.0055
15937TIP3   OH269225   5.126   0.233   2.449 -0.8211  0.3354 -0.0295
15937TIP3    H169226   5.043   0.187   2.465 -1.1975  0.8902 -0.3646
15937TIP3    H269227   5.104   0.302   2.386 -0.5454  1.7793  1.3855
15938TIP3   OH269228   2.571   1.291   3.641 -0.2885  0.1009  0.4775
15938TIP3    H169229   2.518   1.250   3.572 -0.5416  0.7035  0.3040
15938TIP3    H269230   2.538   1.381   3.646  4.1589  2.3464 -3.3586
15939TIP3   OH269231   0.533   0.134   0.363  0.2921 -0.1166  0.0592
15939TIP3    H169232   0.567   0.100   0.280  1.3186  1.0120 -0.0026
15939TIP3    H269233   0.611   0.157   0.413 -0.3495  0.4394  0.8162
15940TIP3   OH269234   0.274   6.481   2.448 -0.3368 -0.0274  0.1818
15940TIP3    H169235   0.223   6.520   2.519 -0.4238 -0.0480  0.1311
15940TIP3    H269236   0.208   6.454   2.384 -0.2306  0.4577 -0.1387
15941TIP3   OH269237   2.820   3.458  11.914 -0.1077 -0.0112 -0.0244
15941TIP3    H169238   2.814   3.478  11.820  2.3634 -1.4944 -0.5733
15941TIP3    H269239   2.898   3.505  11.944  0.1424 -0.9731  0.8672
15942TIP3   OH269240   4.856   0.876  14.873 -0.3372  0.4327 -0.3657
15942TIP3    H169241   4.886   0.792  14.909  0.0721  0.2975 -1.0253
15942TIP3    H269242   4.819   0.922  14.949  2.1835  0.9305  0.6656
15943TIP3   OH269243   3.282   0.269   6.128 -0.4840 -0.5962 -0.1743
15943TIP3    H169244   3.222   0.263   6.202  0.1163  0.7326  0.4682
15943TIP3    H269245   3.235   0.321   6.063 -0.8468 -1.4013 -0.5680
15944TIP3   OH269246   3.691   6.658   2.810  0.6535  0.3203 -0.2859
15944TIP3    H169247   3.647   6.620   2.733  1.4180  1.5093 -1.3499
15944TIP3    H269248   3.706   6.584   2.868  0.1523 -0.6362 -1.3347
15945TIP3   OH269249   5.683   0.814   5.526 -0.5812  0.4144  0.0711
15945TIP3    H169250   5.702   0.864   5.606  0.0763  0.9427 -0.4082
15945TIP3    H269251   5.745   0.847   5.461 -1.0185 -0.1062 -0.6284
15946TIP3   OH269252   5.674   4.527  14.108  0.0948 -0.0648  0.8169
15946TIP3    H169253   5.738   4.587  14.070  0.2211 -0.1483  0.8952
15946TIP3    H269254   5.648   4.470  14.036 -1.0209  0.9248  0.4112
15947TIP3   OH269255   1.836   0.566  16.437 -0.2134 -0.4084  0.0409
15947TIP3    H169256   1.913   0.520  16.403 -1.0592 -1.7504 -0.1126
15947TIP3    H269257   1.793   0.602  16.360 -0.1778 -0.3611  0.0442
15948TIP3   OH269258   1.011   4.405  16.798 -0.1955 -0.0244 -0.0145
15948TIP3    H169259   0.987   4.409  16.706  1.6290 -0.9314 -0.5775
15948TIP3    H269260   0.932   4.373  16.842 -2.2359  3.5676 -0.6947
15949TIP3   OH269261   4.089   0.285   2.716  0.0057  0.3712  0.1683
15949TIP3    H169262   4.116   0.354   2.655 -0.6463  0.1204 -0.4193
15949TIP3    H269263   4.165   0.227   2.722  0.3168  0.7723  0.1323
15950TIP3   OH269264   2.960   3.484  16.085 -0.0622 -0.2708  1.0197
15950TIP3    H169265   2.968   3.478  15.990 -0.2965 -0.2484  0.9957
15950TIP3    H269266   3.049   3.472  16.119 -0.2336 -2.0861  0.8979
15951TIP3   OH269267   3.719   6.484  16.699 -0.0547  0.0664  0.5152
15951TIP3    H169268   3.637   6.513  16.659 -0.8931 -2.4743  0.1836
15951TIP3    H269269   3.783   6.488  16.629 -0.0998  1.1663  0.5229
15952TIP3   OH269270   1.166   5.021   2.465  0.3306 -0.6333  0.4931
15952TIP3    H169271   1.099   4.953   2.470 -0.4483  0.1200  0.3786
15952TIP3    H269272   1.137   5.079   2.395 -0.0444  0.9166  1.8976
15953TIP3   OH269273   3.459   3.486   2.310  0.8759  0.4906  0.4049
15953TIP3    H169274   3.364   3.496   2.303  0.9189  1.1413  0.6127
15953TIP3    H269275   3.480   3.412   2.253 -0.2899 -2.6902  3.7099
15954TIP3   OH269276   1.454   5.265  15.731 -0.0754  0.3401 -0.0660
15954TIP3    H169277   1.428   5.333  15.669 -1.7644 -0.0844  0.1363
15954TIP3    H269278   1.399   5.279  15.808  0.9173 -0.0840  0.7513
15955TIP3   OH269279   2.639   4.917   0.178 -0.1673  0.3488  0.3066
15955TIP3    H169280   2.604   4.829   0.170 -2.4395  1.1566  0.6433
15955TIP3    H269281   2.697   4.927   0.103 -1.5152 -0.7358 -0.9399
15956TIP3   OH269282   0.870   4.270  16.366  0.2795  0.0199  0.2361
15956TIP3    H169283   0.817   4.204  16.412 -0.0359  0.6176  0.7448
15956TIP3    H269284   0.946   4.282  16.423  0.3941  0.0113  0.0835
15957TIP3   OH269285   2.201   6.151   4.510  0.7840 -0.5869 -0.9635
15957TIP3    H169286   2.209   6.195   4.594 -0.3596  0.0594 -1.1786
15957TIP3    H269287   2.266   6.081   4.514  1.5228  0.1161  0.0132
15958TIP3   OH269288   0.808   5.343  12.486  0.2272 -0.8151  0.6765
15958TIP3    H169289   0.790   5.346  12.580  1.5273 -1.4513  0.9712
15958TIP3    H269290   0.806   5.434  12.457 -1.5885 -0.7224  1.0213
15959TIP3   OH269291   6.488   4.440   0.635 -0.0850 -0.0331  0.2066
15959TIP3    H169292   6.453   4.351   0.646 -2.8560  1.0750  1.2942
15959TIP3    H269293   6.513   4.445   0.542 -0.8301 -1.6294 -0.1143
15960TIP3   OH269294   4.871   0.786  15.619 -0.2086 -0.2634  0.2074
15960TIP3    H169295   4.837   0.806  15.531 -1.1651  1.0292  0.8293
15960TIP3    H269296   4.804   0.730  15.658  0.3308 -1.0364  0.0534
15961TIP3   OH269297   6.203   0.724  13.874 -0.3150 -0.9002 -0.6439
15961TIP3    H169298   6.250   0.751  13.796  1.1838 -0.1041  0.4793
15961TIP3    H269299   6.252   0.649  13.907 -1.9287 -2.3528 -1.3471
15962TIP3   OH269300   6.034   1.784   0.263 -0.4049 -1.0337 -0.2015
15962TIP3    H169301   6.072   1.778   0.175 -0.9187 -1.3763 -0.4011
15962TIP3    H269302   6.109   1.771   0.322 -0.1516 -1.3582 -0.5880
15963TIP3   OH269303   1.168   0.451  12.365 -0.6450  0.2502  0.5906
15963TIP3    H169304   1.114   0.372  12.358  1.6144 -1.4060  0.6271
15963TIP3    H269305   1.178   0.481  12.274 -1.7488  0.7159  0.6025
15964TIP3   OH269306   1.263   6.661   3.336 -0.1848 -0.3340 -0.3454
15964TIP3    H169307   1.299   6.587   3.287  1.9688  0.4464 -0.0563
15964TIP3    H269308   1.265   6.734   3.273  1.3474  0.3549  0.4439
15965TIP3   OH269309   2.640   4.899  11.875  0.5223  0.1502  0.6970
15965TIP3    H169310   2.593   4.816  11.875 -0.8018  0.8764  0.4782
15965TIP3    H269311   2.572   4.966  11.880  1.5753  1.2279  1.1846
15966TIP3   OH269312   5.482   3.193   1.137 -0.1768  0.3116  0.6042
15966TIP3    H169313   5.494   3.274   1.186  1.1124 -0.2944  1.3271
15966TIP3    H269314   5.569   3.172   1.104 -0.1165 -1.6707  1.8728
15967TIP3   OH269315   3.256   1.791  15.533 -0.0072 -0.3181 -0.4447
15967TIP3    H169316   3.171   1.830  15.513 -0.1103 -0.8323 -1.0367
15967TIP3    H269317   3.244   1.749  15.618 -0.2967 -0.2474 -0.4490
15968TIP3   OH269318   5.984   5.686  13.752 -0.0743 -0.1398 -0.4217
15968TIP3    H169319   6.017   5.772  13.726 -1.3001 -0.2476 -2.6061
15968TIP3    H269320   5.957   5.645  13.670 -2.3475 -1.4131  0.8544
15969TIP3   OH269321   5.014   5.428  14.870  0.8317 -0.4465  0.2592
15969TIP3    H169322   4.980   5.456  14.786  0.8022  2.0191  1.0310
15969TIP3    H269323   5.109   5.437  14.862  0.7930  0.3383  0.6687
15970TIP3   OH269324   6.027   0.072  16.619  0.0036 -0.1927  0.0142
15970TIP3    H169325   6.017   0.043  16.709  1.1487 -1.2513 -0.1612
15970TIP3    H269326   5.941   0.058  16.579  0.1924 -2.3766  0.2540
15971TIP3   OH269327   1.345   5.462   1.403 -0.3189  0.3968  0.5638
15971TIP3    H169328   1.327   5.534   1.342  3.1493  0.5195 -0.5129
15971TIP3    H269329   1.355   5.504   1.488 -1.5411  0.6911  0.5893
15972TIP3   OH269330   4.944   2.949  14.631  0.2241  0.0342  0.1493
15972TIP3    H169331   4.961   2.864  14.672 -0.9419 -0.0793  0.4394
15972TIP3    H269332   5.017   3.003  14.658  0.2542 -0.4810  1.1636
15973TIP3   OH269333   6.084   4.968   3.878  0.2487  0.3077  0.3770
15973TIP3    H169334   6.020   4.987   3.809 -0.4623 -2.2219  0.2378
15973TIP3    H269335   6.067   5.034   3.945 -0.2370  1.7325 -1.0584
15974TIP3   OH269336   5.851   3.404   4.935  0.1548  0.8778  0.3816
15974TIP3    H169337   5.827   3.493   4.911  0.6815  1.4531  1.9009
15974TIP3    H269338   5.833   3.398   5.029 -0.7652 -0.9175  0.1485
15975TIP3   OH269339   0.751   1.501   3.368  0.1669 -0.0488  0.2199
15975TIP3    H169340   0.839   1.464   3.364 -0.1415 -0.7530 -0.5445
15975TIP3    H269341   0.722   1.504   3.276 -0.6346  0.0709  0.4645
15976TIP3   OH269342   2.786   5.152  12.421 -0.0494 -0.3644  0.3640
15976TIP3    H169343   2.712   5.210  12.406 -0.7539 -1.2110  0.5128
15976TIP3    H269344   2.852   5.207  12.462  0.2522  0.9507 -1.7116
15977TIP3   OH269345   5.334   3.452  15.765  0.5904  0.2900  0.1170
15977TIP3    H169346   5.277   3.385  15.726  1.6798 -1.1602  0.8754
15977TIP3    H269347   5.422   3.414  15.759  1.0894  1.0979  1.6882
15978TIP3   OH269348   3.810   4.306  14.920  0.1997  0.5986 -0.9705
15978TIP3    H169349   3.822   4.330  15.012 -0.6153  1.2061 -1.0172
15978TIP3    H269350   3.826   4.212  14.918  0.0601  0.5505 -0.1762
15979TIP3   OH269351   2.389   2.950  12.807 -0.0465 -0.8197 -0.3046
15979TIP3    H169352   2.481   2.931  12.827 -0.1208 -2.1725 -1.1654
15979TIP3    H269353   2.353   2.867  12.776 -1.5349 -0.2718 -0.1288
15980TIP3   OH269354   2.602   2.091   0.200  0.1958  0.2428 -0.3397
15980TIP3    H169355   2.531   2.143   0.162 -1.1639 -0.5438  1.0018
15980TIP3    H269356   2.560   2.040   0.269  2.0497 -0.4086  0.3743
15981TIP3   OH269357   2.818   1.302  16.369  0.0125  0.3694  0.1503
15981TIP3    H169358   2.834   1.238  16.439 -2.9892 -0.0688  0.5548
15981TIP3    H269359   2.856   1.261  16.291 -0.2171 -1.0991  0.7626
15982TIP3   OH269360   4.842   4.422  16.010 -1.1074 -0.4086  0.4743
15982TIP3    H169361   4.926   4.419  15.963 -2.1874 -2.6943 -1.5266
15982TIP3    H269362   4.794   4.494  15.970 -0.8206 -0.3245  0.2778
15983TIP3   OH269363   2.326   2.928  14.784 -0.3631  0.0117 -0.3213
15983TIP3    H169364   2.263   2.971  14.842  2.2420  2.7518  0.7488
15983TIP3    H269365   2.383   2.878  14.843  0.0591 -0.2742 -0.9539
15984TIP3   OH269366   2.675   4.400   3.652 -0.5533  0.2459  0.2972
15984TIP3    H169367   2.765   4.394   3.620 -0.7468  0.1300 -0.2330
15984TIP3    H269368   2.668   4.488   3.689  0.2667 -0.3112  1.8700
15985TIP3   OH269369   0.145   3.298  16.768 -0.9763 -0.4150 -0.5707
15985TIP3    H169370   0.154   3.212  16.807  2.1605 -1.1624 -2.5967
15985TIP3    H269371   0.124   3.356  16.841  2.1242 -2.0885  1.8742
15986TIP3   OH269372   3.401   3.258   1.359  0.3966  0.1403 -0.1717
15986TIP3    H169373   3.458   3.216   1.294 -0.5254  0.1352 -1.0038
15986TIP3    H269374   3.384   3.345   1.323 -0.2355  0.0851 -0.0109
15987TIP3   OH269375   6.748   4.137   1.213 -0.3588 -0.5817 -0.3968
15987TIP3    H169376   6.816   4.183   1.164 -1.0689  0.9891  0.0429
15987TIP3    H269377   6.783   4.129   1.301 -1.6149  2.3803  0.4751
15988TIP3   OH269378   2.297   2.318  12.862  0.3002 -0.2006 -0.1662
15988TIP3    H169379   2.276   2.227  12.881  0.0185 -0.0537  0.2589
15988TIP3    H269380   2.390   2.319  12.843  0.3882 -0.5189  0.2340
15989TIP3   OH269381   3.361   0.390   0.293 -0.1018  0.0363  0.1364
15989TIP3    H169382   3.327   0.309   0.256 -0.5644  0.3338 -0.0948
15989TIP3    H269383   3.308   0.459   0.254 -0.6421  0.3586  1.3826
15990TIP3   OH269384   1.515   0.658  14.482 -0.0028  0.1510  0.1342
15990TIP3    H169385   1.554   0.680  14.398  0.0101  0.5917  0.2518
15990TIP3    H269386   1.457   0.584  14.463  0.0653  0.1931 -0.2462
15991TIP3   OH269387   3.164   4.796   2.051  0.0713  0.4847  0.0566
15991TIP3    H169388   3.178   4.829   1.962  1.9014 -1.0012 -0.2670
15991TIP3    H269389   3.188   4.868   2.108  0.6248  0.8792 -0.6540
15992TIP3   OH269390   4.423   0.857   5.921  0.5972  0.0905 -0.5905
15992TIP3    H169391   4.365   0.896   5.856  0.2148  0.0988 -0.2523
15992TIP3    H269392   4.400   0.765   5.922  0.9185  0.0079 -0.7903
15993TIP3   OH269393   1.169   0.363   1.405  0.1133  0.5466  0.7415
15993TIP3    H169394   1.187   0.411   1.486  0.9170 -0.5934  1.2683
15993TIP3    H269395   1.245   0.381   1.350  2.0214 -2.4891  2.1191
15994TIP3   OH269396   5.822   1.686   2.715  0.1672 -1.1055 -0.2740
15994TIP3    H169397   5.809   1.653   2.627 -0.0501  0.1889 -0.7454
15994TIP3    H269398   5.734   1.687   2.754 -0.1348  0.6036 -0.9032
15995TIP3   OH269399   1.370   1.483   3.001  0.1948 -0.8890  0.1755
15995TIP3    H169400   1.293   1.489   2.945  0.1913 -2.9790 -0.1428
15995TIP3    H269401   1.354   1.406   3.055  0.7988  0.3146  2.1540
15996TIP3   OH269402   5.290   5.888   0.724 -0.1377  0.3070  0.0149
15996TIP3    H169403   5.201   5.862   0.700  0.0649 -0.9504  0.5715
15996TIP3    H269404   5.344   5.858   0.650 -0.3423  2.5404 -1.1146
15997TIP3   OH269405   4.585   6.730   0.898  0.5682  0.2878 -0.2240
15997TIP3    H169406   4.512   6.687   0.942  0.9605  1.1108  1.2699
15997TIP3    H269407   4.599   6.677   0.819  0.3076 -1.6473  0.9571
15998TIP3   OH269408   2.709   2.289   1.712  0.0726  0.2197 -0.1162
15998TIP3    H169409   2.759   2.222   1.758  2.7367  1.9669 -0.2471
15998TIP3    H269410   2.759   2.370   1.725 -0.9600  1.4738 -3.0656
15999TIP3   OH269411   3.232   6.367  13.103 -0.9117 -0.3308 -0.0649
15999TIP3    H169412   3.230   6.271  13.110 -0.2231 -0.3851 -0.5377
15999TIP3    H269413   3.278   6.384  13.021  1.7521  0.4479  1.4680
16000TIP3   OH269414   6.632   5.027  12.412  0.1912 -0.0843  0.2309
16000TIP3    H169415   6.591   5.009  12.327  0.2745 -0.7171  0.3149
16000TIP3    H269416   6.676   4.945  12.435 -0.0065  0.0077  0.9834
16001TIP3   OH269417   3.511   5.904  14.848  0.4899 -0.5171  0.0094
16001TIP3    H169418   3.431   5.955  14.834  0.5066 -0.0863  1.3265
16001TIP3    H269419   3.481   5.827  14.897  0.5907 -1.3816 -1.2531
16002TIP3   OH269420   5.224   5.102  14.965 -0.2824  0.2620  0.6910
16002TIP3    H169421   5.135   5.069  14.957 -0.2085  0.0445  0.7436
16002TIP3    H269422   5.271   5.063  14.891 -0.2894  0.5715  0.5231
16003TIP3   OH269423   0.905   4.986  14.183  0.0526 -0.1678  0.2741
16003TIP3    H169424   0.836   4.947  14.129  1.3138 -0.8204 -0.9312
16003TIP3    H269425   0.859   5.047  14.241 -1.5388 -0.6992 -0.3747
16004TIP3   OH269426   0.822   6.382  16.291  0.6076  0.4547  0.6651
16004TIP3    H169427   0.868   6.311  16.336  1.2507  0.7014  0.4185
16004TIP3    H269428   0.730   6.364  16.305  0.6218 -1.8704 -1.5059
16005TIP3   OH269429   6.576   1.031  12.167 -0.0441  0.0155 -0.2572
16005TIP3    H169430   6.581   1.126  12.167  1.3244 -0.0280 -0.1500
16005TIP3    H269431   6.494   1.010  12.123 -0.2841  1.2405 -0.4097
16006TIP3   OH269432   0.960   0.481   2.227  0.1464  0.0084  0.0433
16006TIP3    H169433   0.911   0.508   2.150 -0.4960 -3.0053 -0.7381
16006TIP3    H269434   0.892   0.460   2.292  0.4966 -1.0405  0.0913
16007TIP3   OH269435   0.337   1.768  12.153  0.9725 -0.3738  0.2421
16007TIP3    H169436   0.365   1.822  12.079  0.8749 -0.4635  0.1389
16007TIP3    H269437   0.390   1.689  12.148  1.2227 -0.2244  0.4830
16008TIP3   OH269438   0.123   6.324  15.971  0.0917 -0.5044  0.0771
16008TIP3    H169439   0.046   6.332  15.915  1.4587 -1.3539 -2.0743
16008TIP3    H269440   0.190   6.377  15.927  1.2019 -1.0993  0.9810
16009TIP3   OH269441   3.398   6.444  12.901  0.2418 -0.1731  0.1212
16009TIP3    H169442   3.398   6.532  12.863 -0.1396  0.4655  1.5341
16009TIP3    H269443   3.488   6.433  12.934  0.1794 -0.1378  0.3068
16010TIP3   OH269444   1.158   5.589   3.304 -0.1174  0.6891  0.0700
16010TIP3    H169445   1.219   5.628   3.367  2.0909  0.9884 -2.1143
16010TIP3    H269446   1.143   5.658   3.240 -1.8659  0.2087 -0.0819
16011TIP3   OH269447   0.288   0.150   3.392  0.5345  0.1717 -0.3891
16011TIP3    H169448   0.241   0.130   3.311 -1.3200  2.2344  0.0722
16011TIP3    H269449   0.335   0.231   3.372  1.2436 -0.0857  0.1844
16012TIP3   OH269450   5.796   0.135   5.645 -0.7774  0.1265 -0.1246
16012TIP3    H169451   5.869   0.097   5.595 -0.1781  0.9925  0.0602
16012TIP3    H269452   5.805   0.098   5.732  1.5946  2.7704  0.9244
16013TIP3   OH269453   5.924   3.159   0.193  0.1315  0.5272 -0.5505
16013TIP3    H169454   5.966   3.089   0.144  0.3809  0.0767  0.2880
16013TIP3    H269455   5.961   3.239   0.156  1.3313  0.1552 -0.2075
16014TIP3   OH269456   4.577   6.343  16.260  0.0962  0.2957  0.0356
16014TIP3    H169457   4.485   6.364  16.271  0.1879  0.5993  0.2400
16014TIP3    H269458   4.593   6.355  16.166 -0.1085  0.0870 -0.0263
16015TIP3   OH269459   6.249   4.334   5.236  0.0234 -0.0164  0.0293
16015TIP3    H169460   6.156   4.319   5.255  0.2243 -0.3589  0.8018
16015TIP3    H269461   6.273   4.266   5.174 -0.2238  0.0312 -0.1201
16016TIP3   OH269462   1.383   2.692   0.941  0.1912  0.3417  0.2698
16016TIP3    H169463   1.448   2.622   0.932 -1.0471 -0.6981 -1.0851
16016TIP3    H269464   1.299   2.649   0.924 -0.6861  1.9896  0.2565
16017TIP3   OH269465   2.416   3.557   2.414  0.0935  0.2341  0.4567
16017TIP3    H169466   2.426   3.614   2.338 -0.2992 -0.0009  0.2263
16017TIP3    H269467   2.421   3.615   2.489 -1.1286  0.6993  0.2018
16018TIP3   OH269468   5.010   0.509   5.907  0.2612 -0.0712 -0.3561
16018TIP3    H169469   4.937   0.501   5.968 -1.0527 -0.5904 -1.9204
16018TIP3    H269470   5.083   0.466   5.951 -0.3483  0.4383  1.2359
16019TIP3   OH269471   5.715   1.138  11.986  0.1963  0.0237 -0.1696
16019TIP3    H169472   5.690   1.059  11.939  2.3911  0.1901 -1.7880
16019TIP3    H269473   5.740   1.108  12.073 -1.2765 -0.6910  0.0291
16020TIP3   OH269474   5.187   1.956   1.876  0.1318 -0.5725  0.3432
16020TIP3    H169475   5.254   1.954   1.945 -1.1310 -2.4740  1.6199
16020TIP3    H269476   5.209   1.882   1.819  0.1315 -0.0997 -0.2850
16021TIP3   OH269477   4.585   1.308   3.896  0.3415 -0.2866 -0.5929
16021TIP3    H169478   4.630   1.298   3.980 -2.2498 -1.5318  0.7857
16021TIP3    H269479   4.620   1.238   3.841  3.1328  1.4234 -1.2039
16022TIP3   OH269480   1.483   3.538   1.629 -0.6334 -0.1237  0.2274
16022TIP3    H169481   1.567   3.491   1.634 -0.0824  0.9401  2.6001
16022TIP3    H269482   1.417   3.470   1.644 -0.3350 -1.0918 -2.2874
16023TIP3   OH269483   0.480   4.025  15.936  0.0580 -0.0727  0.0561
16023TIP3    H169484   0.472   4.118  15.957 -0.3758 -0.7475  3.4003
16023TIP3    H269485   0.390   3.993  15.936  0.3108 -0.8176  0.8339
16024TIP3   OH269486   5.517   3.100   2.821 -0.2190 -0.1403 -0.1360
16024TIP3    H169487   5.595   3.077   2.871 -0.2328  1.3421  0.6290
16024TIP3    H269488   5.486   3.017   2.784  0.9277 -0.9543  0.6867
16025TIP3   OH269489   5.386   4.500  16.580 -0.0962 -0.3470 -0.3942
16025TIP3    H169490   5.457   4.467  16.635  0.7191  0.2220 -1.0663
16025TIP3    H269491   5.417   4.486  16.490 -0.4896  0.6131 -0.6963
16026TIP3   OH269492   3.835   1.071   1.058 -0.2067 -0.2285  0.2647
16026TIP3    H169493   3.854   1.158   1.093  0.3630  0.4066 -1.4932
16026TIP3    H269494   3.899   1.014   1.100 -0.9703  0.0474  1.8928
16027TIP3   OH269495   2.790   5.563  11.193 -0.6201  0.0181  0.0758
16027TIP3    H169496   2.714   5.508  11.173 -0.2534 -1.4912  2.3965
16027TIP3    H269497   2.763   5.614  11.269  0.6491 -0.5371  0.9325
16028TIP3   OH269498   5.565   4.517   5.526  0.2380 -0.2535 -0.0418
16028TIP3    H169499   5.643   4.557   5.565  1.3779  0.4597 -2.7994
16028TIP3    H269500   5.534   4.456   5.592  1.3290  1.6396  2.3696
16029TIP3   OH269501   2.793   5.487   1.460 -0.1323  0.0721 -0.0431
16029TIP3    H169502   2.767   5.494   1.369  1.0484  3.6032 -0.2816
16029TIP3    H269503   2.731   5.543   1.507  0.0764 -0.6542  1.1415
16030TIP3   OH269504   1.283   5.731  11.269  0.8489  0.1362  0.0856
16030TIP3    H169505   1.256   5.659  11.212 -1.1624  0.7680  0.1660
16030TIP3    H269506   1.315   5.688  11.348 -0.2142 -0.6770  0.0886
16031TIP3   OH269507   4.007   6.006   4.457 -0.8825  0.1675  0.0434
16031TIP3    H169508   3.958   6.077   4.499  0.3787  0.6287  0.7991
16031TIP3    H269509   3.940   5.954   4.413 -1.9916  1.0397  0.6281
16032TIP3   OH269510   2.479   4.031  16.501  0.3062 -0.3628  0.3831
16032TIP3    H169511   2.412   3.965  16.482 -0.7276  0.3005  1.5479
16032TIP3    H269512   2.465   4.098  16.433  0.1102 -0.4577  0.3277
16033TIP3   OH269513   5.582   6.668   3.458  0.1474 -0.3047  0.1635
16033TIP3    H169514   5.637   6.724   3.402  2.6625 -1.9975  0.7779
16033TIP3    H269515   5.573   6.718   3.539  0.0667  0.3363 -0.2264
16034TIP3   OH269516   6.486   2.113  12.721 -0.2081 -0.3178 -0.2953
16034TIP3    H169517   6.474   2.186  12.782 -0.0083  0.8695 -1.6363
16034TIP3    H269518   6.483   2.035  12.777 -1.3299  0.6394  1.0586
16035TIP3   OH269519   0.477   6.075  16.463  0.2082 -0.4133  0.4812
16035TIP3    H169520   0.496   6.097  16.554  0.5723  0.6936  0.1642
16035TIP3    H269521   0.478   6.160  16.418  1.0799 -1.0500 -0.7387
16036TIP3   OH269522   1.062   3.532  16.084 -0.1545 -0.1023  0.0885
16036TIP3    H169523   1.003   3.548  16.158 -1.0466  0.4529 -0.7225
16036TIP3    H269524   1.062   3.614  16.035 -1.5752 -1.1911 -1.8990
16037TIP3   OH269525   6.351   1.741  10.980  0.3989 -0.1618  0.3204
16037TIP3    H169526   6.294   1.764  10.907  1.7862  1.7590 -0.2496
16037TIP3    H269527   6.306   1.669  11.024 -1.2407 -0.3325 -1.4955
16038TIP3   OH269528   6.541   0.063   0.724 -0.3947 -0.0371 -0.6019
16038TIP3    H169529   6.511   0.115   0.798 -3.6208 -1.5214 -0.7046
16038TIP3    H269530   6.614   0.012   0.757 -1.1204  0.0927  1.2899
16039TIP3   OH269531   4.744   4.647  15.903 -0.1446  0.6314 -0.3578
16039TIP3    H169532   4.772   4.728  15.945 -0.6208  0.4277  0.3837
16039TIP3    H269533   4.697   4.675  15.824 -2.2386  1.2143  1.0055
16040TIP3   OH269534   1.920   5.467  15.595  0.7321 -0.2800  0.0041
16040TIP3    H169535   1.888   5.380  15.570 -0.0672  0.1158 -0.3840
16040TIP3    H269536   1.875   5.487  15.677  0.4744  0.0142 -0.2096
16041TIP3   OH269537   6.108   2.031   4.170 -0.6540 -0.8371  0.6737
16041TIP3    H169538   6.091   1.991   4.255 -0.2183  0.9705  1.6573
16041TIP3    H269539   6.067   2.117   4.175  1.2629  0.1693 -0.1170
16042TIP3   OH269540   1.595   6.280  12.340 -0.0496  0.1787 -0.1052
16042TIP3    H169541   1.622   6.320  12.422 -0.7811  0.5284 -0.0211
16042TIP3    H269542   1.518   6.330  12.314 -1.0824 -1.2688  0.0622
16043TIP3   OH269543   1.906   1.606  16.684 -0.1802 -0.1351 -0.6328
16043TIP3    H169544   1.870   1.522  16.714 -2.2372  0.3760 -1.4656
16043TIP3    H269545   1.879   1.612  16.592 -1.3362  2.0184 -0.2177
16044TIP3   OH269546   1.472   6.357   2.811 -0.3584  0.2475  0.4730
16044TIP3    H169547   1.515   6.285   2.858  0.3824  2.0460  2.7304
16044TIP3    H269548   1.401   6.315   2.762  2.1700 -2.4704 -1.1844
16045TIP3   OH269549   5.857   2.307   2.856 -0.2042  0.2545 -0.1348
16045TIP3    H169550   5.803   2.247   2.908 -0.2034  0.4335  0.0765
16045TIP3    H269551   5.932   2.255   2.828  0.2216  0.3726  0.7491
16046TIP3   OH269552   3.833   3.259   3.831 -0.0758  0.5877  0.2118
16046TIP3    H169553   3.756   3.315   3.818 -1.0962 -0.9378 -0.6401
16046TIP3    H269554   3.896   3.315   3.877 -1.2743  2.2175 -0.0379
16047TIP3   OH269555   4.379   3.241   1.472  0.5052 -0.0151  0.6263
16047TIP3    H169556   4.407   3.194   1.393 -0.4428  0.3856  0.0332
16047TIP3    H269557   4.287   3.260   1.457  0.2946  0.0163  1.8703
16048TIP3   OH269558   4.263   3.944   1.854  0.0571  0.3626  0.1075
16048TIP3    H169559   4.300   3.962   1.940  0.5792  1.1932 -0.2757
16048TIP3    H269560   4.339   3.927   1.798 -0.1921  1.0831 -0.4620
16049TIP3   OH269561   4.726   1.889   3.313 -0.6817 -0.4541 -0.3453
16049TIP3    H169562   4.733   1.858   3.403  0.4798  0.1287 -0.2112
16049TIP3    H269563   4.686   1.817   3.265  0.6846 -1.6311  0.2232
16050TIP3   OH269564   2.993   5.971  15.288 -0.0390  0.2604  0.6966
16050TIP3    H169565   2.939   5.939  15.216  2.2771 -1.4680 -0.4043
16050TIP3    H269566   2.998   6.066  15.274 -1.3801  0.2384 -0.1209
16051TIP3   OH269567   5.031   3.259  16.414  0.2948 -0.5846  0.3789
16051TIP3    H169568   5.007   3.195  16.481  2.2708  1.2315  3.1094
16051TIP3    H269569   5.123   3.240  16.395 -0.2650 -1.1622 -2.0882
16052TIP3   OH269570   6.433   4.711   3.298 -0.3614 -0.1723 -0.0191
16052TIP3    H169571   6.463   4.636   3.246 -0.2815  0.3264 -0.7023
16052TIP3    H269572   6.508   4.770   3.301 -1.0214  0.7545 -1.1302
16053TIP3   OH269573   4.653   5.395  12.817  0.0491  0.5797  0.0059
16053TIP3    H169574   4.592   5.368  12.748 -1.2914  0.1249  1.3111
16053TIP3    H269575   4.738   5.400  12.773 -0.7818  0.4618 -1.7010
16054TIP3   OH269576   2.870   4.561   3.833  0.1593 -0.3041 -0.0397
16054TIP3    H169577   2.941   4.592   3.890  1.5530  0.5264 -2.1248
16054TIP3    H269578   2.848   4.636   3.779 -3.6250  0.0285  1.6361
16055TIP3   OH269579   0.412   1.138   2.788 -0.3612 -0.1761  0.6215
16055TIP3    H169580   0.395   1.045   2.777  0.2561  0.0255 -3.4609
16055TIP3    H269581   0.497   1.142   2.832 -0.5835 -1.4817  1.2176
16056TIP3   OH269582   5.264   6.800   0.489 -0.3809  0.7405  0.3068
16056TIP3    H169583   5.213   6.732   0.533 -0.5360 -0.0276 -1.0076
16056TIP3    H269584   5.221   6.811   0.405  1.4669  0.2436 -0.7504
16057TIP3   OH269585   5.026   5.232   1.502  0.4375  0.8195  0.1610
16057TIP3    H169586   5.034   5.298   1.571  0.2879 -0.8041  1.8213
16057TIP3    H269587   4.991   5.155   1.547  0.9123 -0.4988 -1.6242
16058TIP3   OH269588   4.589   4.083   3.855  0.3981  0.6292 -0.7876
16058TIP3    H169589   4.586   4.141   3.932  3.4966  1.2893 -1.0305
16058TIP3    H269590   4.639   4.007   3.885 -0.3988 -0.1926 -1.5259
16059TIP3   OH269591   6.254   2.439  15.645  0.6083 -0.5105 -0.1451
16059TIP3    H169592   6.326   2.416  15.705 -0.8561  0.1239  1.9832
16059TIP3    H269593   6.179   2.452  15.703 -1.2224 -1.0720 -2.2875
16060TIP3   OH269594   4.751   3.238  13.775 -0.4149 -0.8002  0.9566
16060TIP3    H169595   4.804   3.301  13.824 -0.3312 -0.3132  0.2469
16060TIP3    H269596   4.672   3.286  13.752 -0.8276 -1.2867  1.3404
16061TIP3   OH269597   3.076   0.261  13.426 -0.3671  0.3335  0.1078
16061TIP3    H169598   3.039   0.339  13.467 -0.4968  0.8844 -1.0231
16061TIP3    H269599   3.018   0.190  13.452  1.5244 -0.1055  3.9141
16062TIP3   OH269600   0.142   3.875  13.404  0.5329 -0.3804 -0.6261
16062TIP3    H169601   0.174   3.865  13.494 -0.5878 -0.5676 -0.2338
16062TIP3    H269602   0.047   3.872  13.412  0.3356  1.8631 -1.5572
16063TIP3   OH269603   3.724   1.336   1.568 -0.5728 -0.6478  0.2240
16063TIP3    H169604   3.696   1.420   1.531  1.6657 -0.4502 -1.2329
16063TIP3    H269605   3.673   1.270   1.520 -0.1067 -0.2167 -0.9057
16064TIP3   OH269606   1.807   2.324   2.505 -0.1546  0.0435  0.4853
16064TIP3    H169607   1.755   2.268   2.447 -0.4470  0.5134  0.2897
16064TIP3    H269608   1.856   2.381   2.446  0.3801 -0.2116  0.6776
16065TIP3   OH269609   6.277   6.131   3.633  0.0994  0.5926 -0.4280
16065TIP3    H169610   6.235   6.124   3.547 -0.7290 -0.2148  0.0294
16065TIP3    H269611   6.219   6.188   3.684  0.6288  1.1351 -0.4185
16066TIP3   OH269612   2.720   5.791  14.270  0.8177  0.5904 -0.1972
16066TIP3    H169613   2.755   5.764  14.186 -1.1268 -0.5546 -0.7081
16066TIP3    H269614   2.711   5.886  14.263  2.3844  0.7433 -0.5498
16067TIP3   OH269615   4.571   3.016   1.025  0.1828 -0.2060  0.0758
16067TIP3    H169616   4.500   3.069   1.062 -1.4269 -2.1111 -0.1668
16067TIP3    H269617   4.561   3.025   0.930  1.5241  1.0535  0.0083
16068TIP3   OH269618   1.988   2.885  16.644 -0.2554 -0.4563  0.1917
16068TIP3    H169619   1.938   2.902  16.723  1.2080  2.1415  0.6728
16068TIP3    H269620   1.946   2.938  16.576  0.0313 -0.6540 -0.1514
16069TIP3   OH269621   2.697   1.426   5.576  0.2682  0.2091 -0.5657
16069TIP3    H169622   2.634   1.416   5.647  1.5480  0.2658  0.6147
16069TIP3    H269623   2.748   1.345   5.578  0.9415  0.6164 -0.7831
16070TIP3   OH269624   4.177   0.941   1.868 -0.7168 -0.3081 -0.1906
16070TIP3    H169625   4.182   1.035   1.852 -0.7429 -0.0583  1.2126
16070TIP3    H269626   4.261   0.907   1.837 -0.1826  0.3648  0.5049
16071TIP3   OH269627   2.911   4.572   1.462 -0.4973 -0.6274 -0.4153
16071TIP3    H169628   2.973   4.604   1.396 -1.2191 -0.4010 -1.0004
16071TIP3    H269629   2.963   4.564   1.542 -0.3113  2.4044 -0.0950
16072TIP3   OH269630   4.083   0.959   4.253 -0.2173 -0.7869 -0.3733
16072TIP3    H169631   4.138   1.001   4.187  0.0735 -1.0981 -0.3315
16072TIP3    H269632   3.995   0.962   4.216  0.0219 -1.4510 -1.0304
16073TIP3   OH269633   4.210   4.065  15.698  0.0533  0.1079 -0.3384
16073TIP3    H169634   4.266   4.094  15.770 -0.5299 -0.9806  0.5893
16073TIP3    H269635   4.138   4.127  15.698  1.9806  2.5812 -2.6464
16074TIP3   OH269636   5.507   3.562  15.476 -0.3211  0.2593  0.4010
16074TIP3    H169637   5.480   3.498  15.410 -1.9872 -0.1642  1.4282
16074TIP3    H269638   5.591   3.529  15.509  0.4403  0.3769 -1.3298
16075TIP3   OH269639   4.619   2.466  11.592  0.1070 -0.2521  0.1124
16075TIP3    H169640   4.704   2.449  11.552  0.9223  1.8168  0.8733
16075TIP3    H269641   4.613   2.402  11.664  1.2341 -0.1055  0.3489
16076TIP3   OH269642   5.946   5.279  14.718  0.6558 -0.0180 -0.6811
16076TIP3    H169643   5.992   5.195  14.720  0.1224 -0.2999 -0.0116
16076TIP3    H269644   5.912   5.286  14.629  0.4348 -0.6638 -0.6510
16077TIP3   OH269645   1.382   4.623  15.036 -0.3477 -0.4959 -0.2378
16077TIP3    H169646   1.301   4.573  15.050 -1.0786  0.8178  0.3991
16077TIP3    H269647   1.409   4.650  15.123  1.1623 -1.4256 -0.3793
16078TIP3   OH269648   4.121   4.948   6.134  0.3782  0.0356  0.2453
16078TIP3    H169649   4.210   4.933   6.166  0.6301  0.1168 -0.4167
16078TIP3    H269650   4.065   4.919   6.206  0.9464  1.2205  1.2067
16079TIP3   OH269651   3.348   0.566  11.553  0.1916  0.1186 -0.0855
16079TIP3    H169652   3.329   0.526  11.637  1.3274 -0.2362  0.0261
16079TIP3    H269653   3.405   0.640  11.574 -0.0413  0.4145 -0.4835
16080TIP3   OH269654   3.050   0.912   0.786  0.3313 -0.2874  0.1337
16080TIP3    H169655   3.113   0.875   0.847  2.0111  0.7209 -0.9050
16080TIP3    H269656   2.991   0.839   0.765  1.4121 -1.3915  0.8114
16081TIP3   OH269657   6.491   1.340   1.317  0.3552 -0.3817 -0.1686
16081TIP3    H169658   6.410   1.306   1.279 -0.0470  0.4958 -0.1222
16081TIP3    H269659   6.518   1.410   1.257 -0.6611  1.5145  1.4378
16082TIP3   OH269660   3.635   4.066  12.773  0.8828 -0.2710  0.4601
16082TIP3    H169661   3.547   4.050  12.739  0.8190  2.7889 -1.1911
16082TIP3    H269662   3.624   4.140  12.832  2.4394  0.9140 -0.6498
16083TIP3   OH269663   2.888   4.863  11.397  0.2371 -0.1639  0.1125
16083TIP3    H169664   2.808   4.867  11.450 -0.1673 -0.2639 -0.4763
16083TIP3    H269665   2.954   4.825  11.455  0.4217  1.7819  1.2794
16084TIP3   OH269666   0.500   1.983   6.269  0.7522  0.1095 -0.1636
16084TIP3    H169667   0.522   1.926   6.343 -1.1195  0.2879  0.5957
16084TIP3    H269668   0.530   2.070   6.296  2.4587 -0.2683 -0.7756
16085TIP3   OH269669   0.716   1.432   3.852 -0.5227  0.6723  0.4494
16085TIP3    H169670   0.694   1.476   3.770 -1.0616  0.9746  0.7450
16085TIP3    H269671   0.643   1.454   3.911 -0.6123 -0.3089  0.7228
16086TIP3   OH269672   1.053   4.561  14.117 -0.7798  0.2837 -0.2925
16086TIP3    H169673   1.001   4.605  14.184 -0.5931 -0.2445  0.2086
16086TIP3    H269674   1.082   4.631  14.059 -1.5108  0.6594 -0.2129
16087TIP3   OH269675   1.200   4.454  15.115 -0.1865  0.1176 -0.5523
16087TIP3    H169676   1.216   4.369  15.072 -0.2211  0.8965 -2.1963
16087TIP3    H269677   1.193   4.433  15.208  1.9359 -1.3993 -0.6556
16088TIP3   OH269678   6.382   4.432  15.159 -0.2060 -0.4005  0.3439
16088TIP3    H169679   6.469   4.404  15.129  0.8833  2.0063  1.0102
16088TIP3    H269680   6.389   4.433  15.254  0.1970  2.8824  0.3799
16089TIP3   OH269681   4.276   5.700  13.718  0.7679  0.0903  0.1426
16089TIP3    H169682   4.181   5.703  13.731  0.7897 -1.6504  0.9608
16089TIP3    H269683   4.304   5.792  13.726 -0.5122  0.3426  2.6697
16090TIP3   OH269684   2.211   5.028  13.145 -0.6245 -0.3729 -0.1349
16090TIP3    H169685   2.306   5.032  13.161 -0.8286  0.2431  0.9427
16090TIP3    H269686   2.192   5.107  13.095 -0.8099  0.2624  0.9327
16091TIP3   OH269687   5.514   6.686   6.572  0.2488 -0.0156 -0.0343
16091TIP3    H169688   5.552   6.774   6.579  0.7916 -0.2124 -0.4398
16091TIP3    H269689   5.578   6.629   6.616  0.8381 -0.4630 -1.4187
16092TIP3   OH269690   3.295   1.895   5.743 -0.2722  0.3555  0.0158
16092TIP3    H169691   3.385   1.929   5.740  0.1302 -0.6164  0.5216
16092TIP3    H269692   3.240   1.973   5.746  0.5246  0.9804 -0.8871
16093TIP3   OH269693   0.201   1.911  15.568  0.6837 -0.1161 -0.8760
16093TIP3    H169694   0.252   1.991  15.570  0.4880  0.0237 -1.3267
16093TIP3    H269695   0.247   1.854  15.506  0.7568 -0.3070 -0.6475
16094TIP3   OH269696   1.993   4.454   5.007  0.4046  0.1673 -0.5175
16094TIP3    H169697   1.912   4.404   4.995 -0.0614  0.9315 -0.6484
16094TIP3    H269698   2.050   4.396   5.057 -0.2796 -0.3301 -0.2937
16095TIP3   OH269699   2.766   4.428  16.792 -0.5673  0.0467 -0.0115
16095TIP3    H169700   2.811   4.398  16.713 -0.8793  1.2924 -0.6987
16095TIP3    H269701   2.674   4.408  16.775 -0.4441 -1.3615  0.8529
16096TIP3   OH269702   5.820   5.955  14.295 -0.2969 -0.1391  0.2662
16096TIP3    H169703   5.796   5.881  14.240  0.9555  0.9715 -1.9182
16096TIP3    H269704   5.737   6.002  14.309 -0.6420 -0.4317 -0.7233
16097TIP3   OH269705   4.042   1.810   4.044 -0.2470 -0.1477  0.2969
16097TIP3    H169706   4.067   1.800   4.136 -1.1670  0.2478  0.6011
16097TIP3    H269707   3.987   1.734   4.026  0.5183 -0.6036 -0.1414
16098TIP3   OH269708   4.952   2.551   6.038 -0.2019 -0.2297  0.5086
16098TIP3    H169709   4.916   2.593   5.961 -0.1028 -0.8262  0.1308
16098TIP3    H269710   4.996   2.621   6.086  0.1514  0.0482 -0.2201
16099TIP3   OH269711   4.827   0.620   5.351 -0.8487  0.6466  0.1061
16099TIP3    H169712   4.857   0.707   5.326  1.1378 -0.0324 -0.0345
16099TIP3    H269713   4.904   0.579   5.392 -1.2641 -1.5497 -1.1411
16100TIP3   OH269714   1.453   2.382   0.483 -0.1007  0.6631 -0.2978
16100TIP3    H169715   1.472   2.312   0.420  0.3384 -0.7704  1.3351
16100TIP3    H269716   1.532   2.387   0.537 -0.5808  1.6339  0.3387
16101TIP3   OH269717   0.910   1.360   5.437 -0.1620  0.7525  0.5482
16101TIP3    H169718   0.945   1.449   5.429  2.0009  0.0286  1.3348
16101TIP3    H269719   0.926   1.335   5.528  2.5705 -1.6627 -0.4399
16102TIP3   OH269720   0.448   5.245   5.811  0.0932 -0.5672 -0.5447
16102TIP3    H169721   0.387   5.257   5.884  0.5619 -1.1499 -0.0531
16102TIP3    H269722   0.399   5.276   5.734  0.8234  3.6559  0.4225
16103TIP3   OH269723   1.717   1.497  12.112  0.0420  0.2527 -0.1452
16103TIP3    H169724   1.636   1.457  12.145 -0.5658  1.2079 -0.4101
16103TIP3    H269725   1.720   1.473  12.020  0.0970  0.1514 -0.1162
16104TIP3   OH269726   0.415   4.169   4.988 -0.4456  0.1979 -0.5005
16104TIP3    H169727   0.449   4.091   5.033  0.4688  1.0992  0.4343
16104TIP3    H269728   0.332   4.188   5.031 -0.0228  0.5074  0.2004
16105TIP3   OH269729   3.168   0.744  15.564  0.1956  0.1699 -0.0728
16105TIP3    H169730   3.220   0.790  15.630 -0.3060  0.4472  0.1391
16105TIP3    H269731   3.120   0.678  15.614  1.2527 -0.9075 -0.4362
16106TIP3   OH269732   1.180   1.727   3.979 -0.1315  0.4208 -0.2259
16106TIP3    H169733   1.096   1.730   4.024  0.5260  0.7627  1.0182
16106TIP3    H269734   1.205   1.635   3.980 -0.0037  0.4579  0.3514
16107TIP3   OH269735   0.394   3.275   1.791  0.7061  0.2506  0.2572
16107TIP3    H169736   0.488   3.267   1.776  0.9286  0.3046  1.5389
16107TIP3    H269737   0.354   3.234   1.714  1.7748 -0.5129  0.0929
16108TIP3   OH269738   0.551   6.697   0.110 -0.0011  0.3760 -0.2177
16108TIP3    H169739   0.509   6.702   0.024 -0.7665 -1.0135  0.0466
16108TIP3    H269740   0.534   6.608   0.140  2.8391 -0.1751  0.0818
16109TIP3   OH269741   2.607   1.000  16.198  0.2866 -0.1234  0.3148
16109TIP3    H169742   2.550   0.936  16.241 -1.6782  1.5900  0.4255
16109TIP3    H269743   2.646   0.952  16.125  0.5930 -1.9978  1.6366
16110TIP3   OH269744   0.605   2.634   3.168  0.0785  0.6097 -0.0767
16110TIP3    H169745   0.581   2.574   3.097 -1.8966 -0.1687  1.1623
16110TIP3    H269746   0.652   2.579   3.231  1.8639  1.3073 -0.7405
16111TIP3   OH269747   2.836   3.467  16.700  0.0744 -0.1978 -0.1354
16111TIP3    H169748   2.868   3.555  16.679 -0.5794  0.1706  0.3616
16111TIP3    H269749   2.910   3.425  16.744 -0.5950  1.2442  2.6021
16112TIP3   OH269750   5.829   5.333   1.175  0.2134  0.0076  0.4200
16112TIP3    H169751   5.900   5.273   1.154 -1.4751 -1.4966 -1.4273
16112TIP3    H269752   5.851   5.413   1.128  1.8492  0.4715  1.8711
16113TIP3   OH269753   6.035   5.256   3.015  0.0477  0.3324 -0.7907
16113TIP3    H169754   5.952   5.300   3.031  1.0193  1.3625  2.1948
16113TIP3    H269755   6.014   5.163   3.014 -1.2430  0.6127 -1.0564
16114TIP3   OH269756   4.223   5.103  16.782  0.0095  0.3673  0.1650
16114TIP3    H169757   4.300   5.130  16.831  0.5531  1.3542 -1.1700
16114TIP3    H269758   4.174   5.048  16.843  1.9409 -0.6172  0.9437
16115TIP3   OH269759   0.312   5.657   6.245 -0.0322  0.4534  0.3249
16115TIP3    H169760   0.336   5.567   6.222 -1.6639 -0.1174  0.6779
16115TIP3    H269761   0.225   5.649   6.284  0.2066  2.0777  1.2944
16116TIP3   OH269762   6.272   1.607   0.855  0.4206 -0.0686  0.0136
16116TIP3    H169763   6.205   1.635   0.917  1.3265 -0.6091  1.2840
16116TIP3    H269764   6.315   1.534   0.899  2.6344  1.0240 -0.2212
16117TIP3   OH269765   1.633   5.971  10.670 -0.1248 -0.1132 -0.6556
16117TIP3    H169766   1.720   5.942  10.643 -0.3072 -0.2716 -1.0766
16117TIP3    H269767   1.576   5.951  10.596 -0.2363  1.4862 -1.0526
16118TIP3   OH269768   3.975   2.964  10.908  0.9342  0.2510  0.1577
16118TIP3    H169769   4.053   3.011  10.937  1.4928  0.2891 -1.3295
16118TIP3    H269770   4.007   2.879  10.877  0.3064  0.0299  0.0891
16119TIP3   OH269771   2.596   5.277  12.703  0.4104 -0.3590  0.4163
16119TIP3    H169772   2.590   5.183  12.721 -1.4268 -0.1303  1.1893
16119TIP3    H269773   2.631   5.315  12.783 -1.2973 -0.1225  1.0874
16120TIP3   OH269774   6.426   5.103  15.666 -0.0573  0.1495 -0.2994
16120TIP3    H169775   6.503   5.153  15.640  0.1487  0.3645  0.7074
16120TIP3    H269776   6.375   5.094  15.585  0.4066  1.0950 -0.7068
16121TIP3   OH269777   6.273   3.695  15.633 -0.4758  0.5580 -0.1710
16121TIP3    H169778   6.291   3.773  15.686 -0.4472  0.5919 -0.2314
16121TIP3    H269779   6.179   3.679  15.647 -0.4428  0.4944 -0.0137
16122TIP3   OH269780   1.614   3.430   2.211  0.0037  0.1788  0.2241
16122TIP3    H169781   1.658   3.403   2.292  3.3426  3.4593 -0.2589
16122TIP3    H269782   1.637   3.363   2.147  2.2667  0.5030  0.6413
16123TIP3   OH269783   5.243   6.746  16.417 -0.1424  0.0599 -0.4688
16123TIP3    H169784   5.298   6.716  16.345 -0.1585  1.0203 -0.8979
16123TIP3    H269785   5.229   6.668  16.471  3.7033  0.2184  1.0720
16124TIP3   OH269786   1.256   4.792   1.491 -0.2754  0.1962 -0.4376
16124TIP3    H169787   1.344   4.829   1.497 -0.4509  0.9417 -1.9356
16124TIP3    H269788   1.236   4.792   1.397 -1.7654 -0.2161 -0.1509
16125TIP3   OH269789   0.065   4.575  14.310 -0.7302 -0.3522  0.1846
16125TIP3    H169790   0.134   4.591  14.246 -1.1532 -1.6682 -0.6553
16125TIP3    H269791   0.009   4.509  14.269 -1.4566 -0.6651  1.6003
16126TIP3   OH269792   4.949   2.473  16.437 -0.1568  0.4748 -0.1644
16126TIP3    H169793   4.889   2.399  16.437 -1.2812  1.3606  0.2811
16126TIP3    H269794   5.031   2.437  16.471 -1.3354 -0.0979  2.3718
16127TIP3   OH269795   6.256   6.271   1.011  0.2335 -0.1209 -0.2666
16127TIP3    H169796   6.238   6.282   1.104 -1.2210 -0.4163 -0.4944
16127TIP3    H269797   6.349   6.249   1.007  0.5216  0.7339  1.0403
16128TIP3   OH269798   6.683   2.657  14.805  0.2381 -0.2864 -0.4695
16128TIP3    H169799   6.754   2.625  14.750 -0.0953  1.2670 -1.8932
16128TIP3    H269800   6.726   2.686  14.886  1.1053 -0.1881 -0.9566
16129TIP3   OH269801   4.616   6.592  15.679  0.1379 -0.3211  0.0370
16129TIP3    H169802   4.568   6.559  15.603 -0.2651 -1.5598  0.8003
16129TIP3    H269803   4.553   6.587  15.751  0.2760  1.5499  0.3314
16130TIP3   OH269804   2.075   0.738  17.018  0.3973  0.5828  0.4025
16130TIP3    H169805   2.141   0.677  17.052 -0.4380  0.3928  1.7508
16130TIP3    H269806   2.051   0.791  17.093 -0.4695  1.1250 -0.2466
16131TIP3   OH269807   0.297   4.523  12.034  0.2929 -0.0319 -0.0216
16131TIP3    H169808   0.258   4.458  12.092 -0.1564  1.7815  1.8309
16131TIP3    H269809   0.244   4.602  12.048  2.3190  1.4411 -0.2950
16132TIP3   OH269810   1.525   0.908   1.810 -0.0099  0.0770  0.0038
16132TIP3    H169811   1.480   0.972   1.755  0.3617 -0.4054 -0.8844
16132TIP3    H269812   1.600   0.956   1.846 -1.0269  0.7920  1.2468
16133TIP3   OH269813   3.457   0.363   2.324 -0.2744  0.4089  0.3225
16133TIP3    H169814   3.400   0.298   2.283  1.1671 -0.2879 -0.6705
16133TIP3    H269815   3.536   0.364   2.269  1.7021 -0.3949  2.9311
16134TIP3   OH269816   1.270   4.358  10.728 -0.3120 -0.5071 -0.2990
16134TIP3    H169817   1.193   4.312  10.759  0.9222 -1.3100  1.7747
16134TIP3    H269818   1.332   4.355  10.801  0.2635  3.5590 -0.3654
16135TIP3   OH269819   2.092   0.076  11.288 -0.3186 -0.3061  0.5785
16135TIP3    H169820   2.160   0.067  11.222  0.4496  0.3810  1.2599
16135TIP3    H269821   2.110   0.005  11.351 -0.9861 -0.8952  0.1293
16136TIP3   OH269822   4.934   2.214   2.523 -0.1248  0.1846  0.1972
16136TIP3    H169823   4.949   2.119   2.516  3.8771  0.7511 -1.9910
16136TIP3    H269824   4.895   2.238   2.439  0.1471  0.6441  0.2009
16137TIP3   OH269825   0.665   6.262  12.316 -0.1234 -0.0816 -0.4240
16137TIP3    H169826   0.619   6.229  12.393  1.2874  2.1429  1.5380
16137TIP3    H269827   0.634   6.208  12.244 -1.2414 -2.5588  1.7500
16138TIP3   OH269828   1.015   2.558   0.852 -0.4412 -0.5317 -0.0411
16138TIP3    H169829   1.007   2.648   0.823  0.8570  0.2700  1.8813
16138TIP3    H269830   1.023   2.507   0.772  2.1855  1.4345 -1.1488
16139TIP3   OH269831   0.174   4.036  11.124 -1.2111 -0.3066  0.0773
16139TIP3    H169832   0.162   4.002  11.036  1.7166  0.3746 -0.7114
16139TIP3    H269833   0.204   3.961  11.175  0.7858  0.0316 -0.5190
16140TIP3   OH269834   5.045   2.053   3.254  0.2062 -0.2517 -0.2802
16140TIP3    H169835   5.115   2.109   3.288 -0.0629 -0.1710  0.1411
16140TIP3    H269836   4.965   2.102   3.270  0.1350  0.1803 -1.8050
16141TIP3   OH269837   0.457   4.440  17.014 -0.5020 -0.2451  0.5013
16141TIP3    H169838   0.373   4.484  17.024 -0.5481 -0.2707  0.2240
16141TIP3    H269839   0.505   4.461  17.094 -1.1339 -1.0162  1.0945
16142TIP3   OH269840   6.063   2.796  11.754 -0.1950  0.1768 -0.7557
16142TIP3    H169841   6.100   2.884  11.741  2.7005 -0.8591 -0.1913
16142TIP3    H269842   6.139   2.738  11.753 -1.9502 -2.2554 -0.2723
16143TIP3   OH269843   5.161   0.315   4.843  0.1311  0.0383  0.0190
16143TIP3    H169844   5.125   0.269   4.767  0.6371 -1.2573  0.5306
16143TIP3    H269845   5.239   0.360   4.809  0.6255 -0.9136 -0.1654
16144TIP3   OH269846   5.727   3.295   1.008  0.6428  0.6165 -0.1892
16144TIP3    H169847   5.673   3.304   0.930  1.3686 -0.3896 -0.8319
16144TIP3    H269848   5.794   3.231   0.984  1.0301  0.4673  1.1769
16145TIP3   OH269849   6.317   6.288  16.209  0.7849  0.9429  0.4712
16145TIP3    H169850   6.358   6.219  16.157 -0.2974  2.7036 -3.0877
16145TIP3    H269851   6.224   6.266  16.209  0.4157  2.3020 -0.7542
16146TIP3   OH269852   1.052   1.344  16.490 -0.3058  0.2942  0.4631
16146TIP3    H169853   1.037   1.427  16.446 -0.1634  0.5793  0.9417
16146TIP3    H269854   1.104   1.367  16.567 -0.7109 -0.1646  0.8797
16147TIP3   OH269855   2.280   2.174   3.788  0.6563  0.4983  0.4076
16147TIP3    H169856   2.319   2.188   3.874  0.7353  0.3250  0.3997
16147TIP3    H269857   2.351   2.139   3.735  0.6243  0.6630  0.2541
16148TIP3   OH269858   2.085   1.812   3.912  0.2912  0.3561 -0.4107
16148TIP3    H169859   2.178   1.791   3.920  0.9909  2.1836 -2.6416
16148TIP3    H269860   2.072   1.884   3.973  0.1692 -0.2758  0.3253
16149TIP3   OH269861   4.557   3.423  15.549  0.4979 -0.0462  0.0746
16149TIP3    H169862   4.505   3.361  15.497  1.4110  1.0590 -2.2818
16149TIP3    H269863   4.495   3.493  15.572 -0.5007 -1.5946  2.6218
16150TIP3   OH269864   1.121   1.411  15.716 -1.0172  0.2663  0.2528
16150TIP3    H169865   1.090   1.457  15.793 -0.2109  0.2172  0.6150
16150TIP3    H269866   1.181   1.472  15.673 -0.7377 -0.0551  0.1782
16151TIP3   OH269867   0.260   6.584  11.907  0.3653  0.3254 -0.5733
16151TIP3    H169868   0.309   6.594  11.826  0.6071 -0.8521 -0.5783
16151TIP3    H269869   0.326   6.568  11.974  0.0805 -0.0157 -0.3704
16152TIP3   OH269870   4.466   1.081  12.291 -0.0434  0.2791  0.3621
16152TIP3    H169871   4.494   1.042  12.373 -1.3925  0.7136  1.0594
16152TIP3    H269872   4.478   1.012  12.226 -2.7712 -1.5503  1.6142
16153TIP3   OH269873   5.129   1.465   5.363 -0.2030  0.2593  0.0549
16153TIP3    H169874   5.167   1.474   5.276 -0.9902  0.5164 -0.2735
16153TIP3    H269875   5.080   1.383   5.359 -2.1281  1.3815 -0.5010
16154TIP3   OH269876   4.734   5.147  11.827 -0.4022 -0.0296 -0.2399
16154TIP3    H169877   4.793   5.138  11.752  1.4104  0.0182  1.1128
16154TIP3    H269878   4.791   5.137  11.904 -2.0959  0.4712  1.1454
16155TIP3   OH269879   6.391   2.849  10.686 -0.3317 -0.5456  0.0019
16155TIP3    H169880   6.328   2.777  10.684 -1.2209 -0.0497  3.4808
16155TIP3    H269881   6.337   2.928  10.688  0.5089  0.0389 -0.0938
16156TIP3   OH269882   4.833   2.019  17.082  0.1738  0.4692  0.5224
16156TIP3    H169883   4.772   1.979  17.144 -1.5054  2.1154  0.0128
16156TIP3    H269884   4.913   2.032  17.133  0.3049 -2.0534  1.1127
16157TIP3   OH269885   0.206   4.634  12.516  0.3336  0.0799  0.3072
16157TIP3    H169886   0.173   4.546  12.536  1.7297 -0.5732 -0.1328
16157TIP3    H269887   0.183   4.647  12.424 -0.3218  0.4021  0.5088
16158TIP3   OH269888   3.401   2.000   2.850  0.1539 -0.1387 -0.1320
16158TIP3    H169889   3.359   1.930   2.800 -0.7620 -0.6779  1.3289
16158TIP3    H269890   3.461   1.954   2.909  0.0827  0.3602  0.3328
16159TIP3   OH269891   4.024   6.591   1.614 -0.0041  0.0669  0.4137
16159TIP3    H169892   3.936   6.554   1.603 -1.0096  2.1651  0.9367
16159TIP3    H269893   4.040   6.586   1.708  0.1765  0.2650  0.3912
16160TIP3   OH269894   0.938   6.564  16.542 -0.4694 -0.4163  0.0220
16160TIP3    H169895   0.899   6.601  16.621 -2.8883 -0.0155 -1.2850
16160TIP3    H269896   0.868   6.566  16.477  0.7279 -2.9434 -1.4857
16161TIP3   OH269897   0.017   0.200  14.644  0.3095  0.3775 -0.4457
16161TIP3    H169898   0.063   0.121  14.673  1.3952  0.4550 -1.8529
16161TIP3    H269899  -0.033   0.172  14.568 -2.0000  0.3189  1.0037
16162TIP3   OH269900   2.672   3.795  14.740  0.1026  0.1189  0.0791
16162TIP3    H169901   2.587   3.839  14.746 -0.4555 -0.8135 -0.7188
16162TIP3    H269902   2.667   3.722  14.801  0.5281  0.3558  0.4054
16163TIP3   OH269903   6.730   3.660   1.392  0.0111 -0.0736  0.5370
16163TIP3    H169904   6.786   3.710   1.334 -0.8701  0.7348  0.3597
16163TIP3    H269905   6.770   3.667   1.478  1.2074 -1.0972  0.0975
16164TIP3   OH269906   6.330   2.492   5.493 -0.0278  0.0197  1.3446
16164TIP3    H169907   6.273   2.563   5.524 -0.4973  0.2145  0.1118
16164TIP3    H269908   6.358   2.520   5.406 -2.1025 -2.2854 -0.2153
16165TIP3   OH269909   1.176   3.259  11.809 -0.0560  0.1291 -0.5207
16165TIP3    H169910   1.152   3.200  11.737  1.1772 -1.1611  0.0839
16165TIP3    H269911   1.095   3.271  11.858 -0.6110 -0.0229 -1.3718
16166TIP3   OH269912   4.619   1.826   2.308  0.0139 -0.7243  0.5747
16166TIP3    H169913   4.582   1.738   2.315 -1.1455 -0.2937  0.0811
16166TIP3    H269914   4.592   1.857   2.222  3.0572 -1.0336 -0.6218
16167TIP3   OH269915   0.860   3.265  12.592  0.2750  0.5677 -0.2502
16167TIP3    H169916   0.794   3.215  12.641 -0.9211  0.1744 -2.1418
16167TIP3    H269917   0.903   3.199  12.537  2.1569  0.8601  0.8092
16168TIP3   OH269918   0.582   4.988   3.251 -0.1124  0.3792 -0.1214
16168TIP3    H169919   0.642   4.977   3.177 -0.2238  1.2064 -0.3458
16168TIP3    H269920   0.566   4.899   3.282  0.8502  0.1080 -0.3574
16169TIP3   OH269921   3.694   1.598  11.452 -0.0604 -0.4834 -0.1464
16169TIP3    H169922   3.679   1.504  11.437  0.8452 -0.7220  0.3797
16169TIP3    H269923   3.607   1.633  11.471 -0.3004 -1.3766  0.4742
16170TIP3   OH269924   6.246   1.101  10.618 -0.5176 -0.0718  0.9615
16170TIP3    H169925   6.264   1.125  10.528  0.0986  2.1931  1.6240
16170TIP3    H269926   6.160   1.139  10.636 -1.0088 -1.2147  1.1132
16171TIP3   OH269927   4.284   0.824   3.037  0.6897 -0.3282 -0.1892
16171TIP3    H169928   4.327   0.797   3.118 -0.9171  0.1060  0.8590
16171TIP3    H269929   4.330   0.905   3.012 -0.6173  1.1732  1.9361
16172TIP3   OH269930   1.832   5.408   2.716 -0.0379 -0.2150 -0.2582
16172TIP3    H169931   1.821   5.490   2.765 -0.7331 -0.7091  0.4326
16172TIP3    H269932   1.916   5.419   2.671  0.2349  0.5784  0.4093
16173TIP3   OH269933   0.908   6.409  15.160 -0.3864  0.3576  0.3551
16173TIP3    H169934   0.944   6.333  15.115  0.5880  1.2936 -0.5266
16173TIP3    H269935   0.828   6.377  15.202  0.8720 -1.5484  1.4508
16174TIP3   OH269936   3.332   5.590   6.202  0.3044  0.5893  0.4257
16174TIP3    H169937   3.284   5.549   6.274 -1.0435 -0.0517 -0.7754
16174TIP3    H269938   3.269   5.651   6.164  0.4455 -0.2034 -1.1467
16175TIP3   OH269939   3.345   3.207  12.180  0.2174  0.2896  0.1692
16175TIP3    H169940   3.263   3.210  12.229  0.6819 -0.7480  1.0406
16175TIP3    H269941   3.355   3.116  12.153  1.0077  0.4318 -0.0686
16176TIP3   OH269942   1.498   2.462   3.300 -0.3343 -0.3374 -0.2775
16176TIP3    H169943   1.441   2.512   3.241  1.0963  0.1319 -1.3196
16176TIP3    H269944   1.584   2.502   3.290  0.7794 -2.6453 -0.7768
16177TIP3   OH269945   1.531   4.651   4.011  0.2069 -0.1547  0.4352
16177TIP3    H169946   1.450   4.668   4.059 -0.9443 -1.2486 -0.9997
16177TIP3    H269947   1.570   4.737   3.999 -1.2886  0.5434  0.2613
16178TIP3   OH269948   1.766   3.016  12.682 -0.2366 -0.6865  0.5090
16178TIP3    H169949   1.741   3.095  12.634  2.8630  0.2267  0.1236
16178TIP3    H269950   1.782   3.047  12.771  0.6029 -0.9369  0.4523
16179TIP3   OH269951   5.869   6.053   2.289 -0.0227 -0.3613  0.1346
16179TIP3    H169952   5.831   6.121   2.345 -2.0686 -0.1541 -1.3860
16179TIP3    H269953   5.869   6.091   2.201  1.3240 -1.3700 -0.3339
16180TIP3   OH269954   1.805   4.584   2.492  0.1276  0.0264  0.4515
16180TIP3    H169955   1.772   4.495   2.499 -0.5911  0.0557 -1.8507
16180TIP3    H269956   1.857   4.585   2.412  1.0181  1.4210  1.0117
16181TIP3   OH269957   6.092   1.949  13.958 -0.1140  0.7771 -0.9683
16181TIP3    H169958   6.051   1.937  14.044  0.9033 -1.1142 -0.6982
16181TIP3    H269959   6.138   2.032  13.965 -0.9818  1.2066 -0.0823
16182TIP3   OH269960   1.237   3.991  16.820  0.5442  0.1950  0.1372
16182TIP3    H169961   1.250   4.082  16.849  2.1935  0.1485 -0.3814
16182TIP3    H269962   1.302   3.978  16.752 -1.2651 -0.6411 -1.5254
16183TIP3   OH269963   5.060   6.747   2.405 -0.1090 -0.0121  0.4441
16183TIP3    H169964   5.119   6.703   2.466  1.0009 -0.3205 -0.8251
16183TIP3    H269965   4.984   6.772   2.459 -0.1465 -2.2055  1.5017
16184TIP3   OH269966   6.010   2.642   5.332 -0.3041  0.4388 -0.3370
16184TIP3    H169967   5.927   2.642   5.284 -0.3727  0.4289 -0.2172
16184TIP3    H269968   6.058   2.568   5.295 -1.1617 -0.8492  0.9977
16185TIP3   OH269969   3.250   6.461   4.746 -0.3443 -0.1458 -0.0251
16185TIP3    H169970   3.325   6.519   4.741 -0.5142  0.0757 -0.0007
16185TIP3    H269971   3.247   6.417   4.661  0.3354 -0.8079  0.2841
16186TIP3   OH269972   2.891   3.010   1.316  0.2258  0.5987 -0.5971
16186TIP3    H169973   2.983   3.034   1.331  0.3555  0.3244 -0.9455
16186TIP3    H269974   2.862   3.069   1.246  0.0333  0.9187 -0.2520
16187TIP3   OH269975   5.670   1.594  15.185  0.3734 -0.7095 -0.0718
16187TIP3    H169976   5.626   1.531  15.241  1.5483  0.4476  2.3477
16187TIP3    H269977   5.763   1.570  15.189  0.7091  0.5007  0.0527
16188TIP3   OH269978   5.922   3.671   4.553 -0.0973  0.9599  0.1969
16188TIP3    H169979   5.992   3.726   4.519  1.6973 -0.8574  0.7390
16188TIP3    H269980   5.878   3.636   4.476  0.8867  0.5825 -0.2087
16189TIP3   OH269981   5.308   5.313   0.369  0.0873  0.0494  0.1052
16189TIP3    H169982   5.266   5.391   0.405 -0.7326 -0.9042  1.2755
16189TIP3    H269983   5.402   5.333   0.372 -0.1466  1.4345 -0.7317
16190TIP3   OH269984   0.451   2.148  13.625 -0.4608 -0.6323 -0.6335
16190TIP3    H169985   0.506   2.173  13.551 -0.1096  1.3036  0.2134
16190TIP3    H269986   0.496   2.183  13.702 -0.6192 -2.8845  0.5963
16191TIP3   OH269987   4.449   5.169  11.268 -0.1591  0.2580 -0.2274
16191TIP3    H169988   4.532   5.151  11.312 -0.3818 -1.3290 -0.3842
16191TIP3    H269989   4.472   5.173  11.175 -0.0484  1.2588 -0.1629
16192TIP3   OH269990   4.078   5.835  11.550 -0.7533  0.2915 -0.2428
16192TIP3    H169991   4.084   5.894  11.476 -1.9973 -0.1862 -0.7488
16192TIP3    H269992   4.120   5.882  11.622  3.0752 -0.3303 -1.8291
16193TIP3   OH269993   0.473   3.579  16.929  0.1845 -0.2675  0.1897
16193TIP3    H169994   0.538   3.632  16.975  0.4746  0.7610 -1.3224
16193TIP3    H269995   0.513   3.561  16.844 -0.3164 -2.1468  0.3023
16194TIP3   OH269996   2.661   2.943  11.778  0.7638 -0.0348  0.2934
16194TIP3    H169997   2.654   2.995  11.698 -0.0293 -0.9408 -0.2528
16194TIP3    H269998   2.602   2.986  11.839 -1.6646 -1.4913 -0.8732
16195TIP3   OH269999   3.115   2.844   3.472  0.5790  0.1954  0.4118
16195TIP3    H170000   3.043   2.808   3.420 -0.0640 -1.4151  2.3201
16195TIP3    H270001   3.115   2.938   3.450  0.1493 -0.3357 -2.1865
16196TIP3   OH270002   0.922   5.370  16.237 -0.3751  0.0268  0.1405
16196TIP3    H170003   0.953   5.445  16.187 -0.3768 -1.6282 -2.4996
16196TIP3    H270004   0.981   5.366  16.313  0.8790  1.5089 -0.6922
16197TIP3   OH270005   4.764   1.329  11.313  0.0540  0.4762 -0.1568
16197TIP3    H170006   4.691   1.389  11.324 -1.7601 -1.1666 -2.3336
16197TIP3    H270007   4.796   1.347  11.224 -0.9834 -2.1141 -1.1368
16198TIP3   OH270008   5.827   1.621   2.101  0.2644 -0.0590  0.6737
16198TIP3    H170009   5.841   1.624   2.007 -0.4417  0.0305  0.5697
16198TIP3    H270010   5.845   1.711   2.131 -2.9884  0.8925  0.1071
16199TIP3   OH270011   1.609   1.775   3.752 -0.0720 -0.6378  0.5455
16199TIP3    H170012   1.583   1.860   3.789  0.7857 -0.4612  0.7656
16199TIP3    H270013   1.653   1.730   3.823 -0.7740 -1.3960  0.5073
16200TIP3   OH270014   4.283   6.519   3.073 -0.4002 -0.0538  0.2615
16200TIP3    H170015   4.232   6.451   3.028 -0.9157  0.7771 -0.4504
16200TIP3    H270016   4.343   6.471   3.130 -1.0661 -1.0874  0.1108
16201TIP3   OH270017   2.257   6.069   0.252 -0.1002  0.3635  0.1478
16201TIP3    H170018   2.167   6.045   0.233 -0.7151  2.1139  0.6572
16201TIP3    H270019   2.308   6.032   0.179 -1.5033  1.1022 -1.2845
16202TIP3   OH270020   4.517   0.268   2.393 -0.1234 -0.1042 -0.2558
16202TIP3    H170021   4.523   0.286   2.300  0.4737  1.4152  0.0602
16202TIP3    H270022   4.529   0.352   2.436  0.0524 -0.8366  1.2215
16203TIP3   OH270023   5.553   5.799   3.831  0.2774 -0.1863  0.6025
16203TIP3    H170024   5.560   5.892   3.808  0.0571 -0.2309  0.3436
16203TIP3    H270025   5.609   5.789   3.908 -0.5675  0.4020  1.3187
16204TIP3   OH270026   3.478   3.572   4.283 -0.1758 -0.4669  0.1271
16204TIP3    H170027   3.570   3.551   4.297 -0.7767 -2.7083  1.2892
16204TIP3    H270028   3.460   3.646   4.341  0.4849 -1.2025  1.3071
16205TIP3   OH270029   0.701   3.181   1.223 -0.3453  0.0071  0.0879
16205TIP3    H170030   0.672   3.185   1.131  0.8175 -1.4313 -0.3772
16205TIP3    H270031   0.671   3.095   1.253  1.3571 -0.5330  0.3055
16206TIP3   OH270032   5.140   4.751   5.744  0.3394  0.3766 -0.4939
16206TIP3    H170033   5.090   4.827   5.774  0.1297 -0.4893  1.4796
16206TIP3    H270034   5.074   4.688   5.716  0.4271  0.2499 -0.4181
16207TIP3   OH270035   5.477   3.592  15.201 -0.3998 -0.2708  0.5687
16207TIP3    H170036   5.464   3.683  15.173 -0.4658  0.0174  1.5262
16207TIP3    H270037   5.388   3.557  15.212 -0.3702 -0.3439  0.5782
16208TIP3   OH270038   0.054   3.810   1.186 -0.3431 -0.3173  0.0959
16208TIP3    H170039   0.107   3.874   1.234  0.3683 -0.2321 -0.7822
16208TIP3    H270040  -0.008   3.862   1.136  0.5466 -0.2536 -0.9916
16209TIP3   OH270041   5.796   4.762  15.623  0.2838  0.0870 -0.3934
16209TIP3    H170042   5.780   4.676  15.583  1.7959  0.7006 -2.5042
16209TIP3    H270043   5.767   4.824  15.557  1.6720  1.1822 -0.0086
16210TIP3   OH270044   0.881   0.848  14.435 -0.3105  0.0205  0.2980
16210TIP3    H170045   0.868   0.800  14.516 -1.2832 -2.1920 -1.0937
16210TIP3    H270046   0.972   0.831  14.411 -0.4982 -0.7240  0.0897
16211TIP3   OH270047   2.041   1.247   1.421 -0.4940 -0.3523  0.1201
16211TIP3    H170048   2.066   1.187   1.492  0.6490  0.8499  0.7686
16211TIP3    H270049   2.006   1.189   1.353 -2.6061 -1.4533  2.0365
16212TIP3   OH270050   5.955   6.462  10.886 -0.6563 -0.1308 -0.3078
16212TIP3    H170051   5.950   6.550  10.924 -0.8265 -0.2681 -0.0078
16212TIP3    H270052   5.920   6.473  10.797  2.3528  0.7641 -1.4927
16213TIP3   OH270053   1.039   6.205  10.838 -0.6132  0.1032  1.0621
16213TIP3    H170054   0.956   6.246  10.863 -0.3551 -0.0465  2.2134
16213TIP3    H270055   1.106   6.270  10.860 -0.3332 -0.2735  1.3325
16214TIP3   OH270056   5.333   4.144   4.798  0.1851  0.7007 -0.0914
16214TIP3    H170057   5.378   4.193   4.867 -0.7253  0.8810  0.3944
16214TIP3    H270058   5.244   4.180   4.797 -0.1190 -0.0413 -0.6309
16215TIP3   OH270059   1.163   3.887   4.963 -0.3057 -0.2815  0.2682
16215TIP3    H170060   1.144   3.797   4.989 -1.6660  0.4498  1.9773
16215TIP3    H270061   1.077   3.929   4.956  0.2437  0.6596 -1.5124
16216TIP3   OH270062   4.136   2.727  15.728  0.0174 -0.0404  0.0907
16216TIP3    H170063   4.159   2.722  15.635  1.0601 -2.6371  0.3880
16216TIP3    H270064   4.162   2.815  15.755  0.1594  0.5937 -1.9391
16217TIP3   OH270065   6.650   4.301  16.999 -0.2553  0.4659  0.1131
16217TIP3    H170066   6.631   4.384  17.042 -0.4613  0.5762 -0.1893
16217TIP3    H270067   6.596   4.237  17.046  1.7940  0.0162  2.0714
16218TIP3   OH270068   3.017   2.013  14.466 -0.8271  0.6782 -0.2015
16218TIP3    H170069   3.057   1.930  14.492  1.2082  1.6233 -0.0961
16218TIP3    H270070   2.928   1.990  14.440 -1.0798 -1.1877  1.9920
16219TIP3   OH270071   4.820   6.772  15.633 -0.1251  0.4777 -0.2512
16219TIP3    H170072   4.831   6.736  15.545  0.9544  0.8798 -0.2892
16219TIP3    H270073   4.763   6.709  15.677  1.3251 -1.0736 -0.4725
16220TIP3   OH270074   5.223   3.792  12.523 -0.0344 -0.3003  0.5838
16220TIP3    H170075   5.302   3.765  12.569  0.0584  3.3311  2.9819
16220TIP3    H270076   5.252   3.865  12.467 -1.2796 -0.5477 -0.4401
16221TIP3   OH270077   5.515   1.714  16.667 -0.2426 -0.1760  0.4218
16221TIP3    H170078   5.523   1.808  16.678  0.7705 -0.2802  0.6666
16221TIP3    H270079   5.517   1.679  16.756 -0.8185 -0.4262  0.3447
16222TIP3   OH270080   6.225   0.302  16.553  0.0533  0.0251  0.5267
16222TIP3    H170081   6.189   0.230  16.605  0.4455 -0.4628  0.1345
16222TIP3    H270082   6.205   0.279  16.462 -1.0399  1.1014  0.4571
16223TIP3   OH270083   2.959   0.977   4.888 -0.5013 -0.6033 -0.2117
16223TIP3    H170084   2.954   0.907   4.953 -2.4057 -0.1281  0.1893
16223TIP3    H270085   2.978   0.931   4.806  0.8277 -1.3103  0.4483
16224TIP3   OH270086   6.546   3.638  11.954  0.3823 -0.2543 -0.1130
16224TIP3    H170087   6.459   3.628  11.914  0.0839 -1.7238  0.7886
16224TIP3    H270088   6.605   3.593  11.894  0.8970  2.3190 -1.6871
16225TIP3   OH270089   6.185   1.029   6.111 -0.4332  0.0915  0.5900
16225TIP3    H170090   6.269   1.072   6.128 -0.3148  0.3417 -0.5770
16225TIP3    H270091   6.159   1.061   6.025 -1.3481 -0.5963  0.6035
16226TIP3   OH270092   3.945   6.483  12.999 -0.0486  0.3331 -0.1607
16226TIP3    H170093   4.024   6.529  12.971  0.1460  0.6634  0.8774
16226TIP3    H270094   3.904   6.542  13.063 -0.9814  0.0400 -0.4661
16227TIP3   OH270095   2.685   5.645  16.756 -0.3594  0.4033 -0.1635
16227TIP3    H170096   2.772   5.670  16.725  0.7346  0.4956  2.6421
16227TIP3    H270097   2.666   5.564  16.709  2.0097 -0.5189  0.2913
16228TIP3   OH270098   2.162   2.727  10.618  0.4939 -0.4041 -0.0011
16228TIP3    H170099   2.095   2.710  10.552  0.4988  1.4023 -0.5388
16228TIP3    H270100   2.244   2.726  10.569  0.5517  0.3672  0.0649
16229TIP3   OH270101   1.569   0.598   5.991 -0.2695  0.2343 -0.0196
16229TIP3    H170102   1.566   0.512   6.034 -0.2417  1.5177  2.8272
16229TIP3    H270103   1.477   0.619   5.974 -0.6819  1.1576  2.8309
16230TIP3   OH270104   1.118   4.918   3.147 -0.3735  0.0520  0.8250
16230TIP3    H170105   1.125   5.003   3.192 -0.0870  0.4414  0.0644
16230TIP3    H270106   1.089   4.858   3.215  1.4369  0.3155  1.9060
16231TIP3   OH270107   1.143   4.750  13.592 -0.3258  0.7150  0.4125
16231TIP3    H170108   1.049   4.759  13.577 -0.3669 -0.7039 -0.4222
16231TIP3    H270109   1.183   4.785  13.512 -0.3210 -1.5912 -0.6971
16232TIP3   OH270110   2.121   1.955  15.221  0.2333  0.8526 -0.1495
16232TIP3    H170111   2.175   2.017  15.171  0.2984  2.0510  1.3263
16232TIP3    H270112   2.115   1.994  15.308  1.0032 -1.6836  1.1237
16233TIP3   OH270113   0.128   5.966   2.083 -0.0461 -0.0956 -0.1465
16233TIP3    H170114   0.223   5.953   2.082  0.1361  0.8412  1.3718
16233TIP3    H270115   0.095   5.896   2.138  0.0181  0.7926  1.0584
16234TIP3   OH270116   3.472   0.999  16.555  0.0600  0.2984 -0.4615
16234TIP3    H170117   3.404   1.058  16.588 -0.1907  0.0716 -0.5732
16234TIP3    H270118   3.437   0.911  16.569  0.0235  0.1953 -1.1672
16235TIP3   OH270119   3.235   5.455  14.965  0.5128 -0.0631  0.5491
16235TIP3    H170120   3.162   5.399  14.937  0.4552  0.3411 -0.1497
16235TIP3    H270121   3.312   5.397  14.963  0.6604  0.1191 -1.2909
16236TIP3   OH270122   1.867   6.641   1.712 -0.5264 -0.0189 -0.1256
16236TIP3    H170123   1.780   6.672   1.687 -0.1309  0.3786 -1.0454
16236TIP3    H270124   1.906   6.715   1.758 -0.8770 -0.3993  0.8120
16237TIP3   OH270125   0.102   2.023  13.956  0.2001  0.9305 -0.2834
16237TIP3    H170126   0.021   2.056  13.995 -0.0690 -1.4688  1.4129
16237TIP3    H270127   0.087   2.030  13.862 -2.1227  0.3932 -0.0420
16238TIP3   OH270128   4.172   5.226  15.913  0.2055 -0.0641 -0.7100
16238TIP3    H170129   4.231   5.218  15.988 -0.0614 -0.3426 -0.5264
16238TIP3    H270130   4.165   5.136  15.879 -1.0214 -0.2427 -0.0310
16239TIP3   OH270131   5.794   5.720   0.096 -0.4089 -0.2478 -0.2214
16239TIP3    H170132   5.842   5.639   0.077 -1.5527 -1.0844  0.3694
16239TIP3    H270133   5.862   5.782   0.123  0.5027 -0.9480 -0.8546
16240TIP3   OH270134   1.318   1.673   1.899 -0.5000 -0.1951  0.3341
16240TIP3    H170135   1.265   1.612   1.848 -0.6238 -0.3127  0.6044
16240TIP3    H270136   1.283   1.668   1.987  0.7654 -1.2202  0.8189
16241TIP3   OH270137   1.615   4.178  11.584  0.2557 -0.2225 -0.3418
16241TIP3    H170138   1.576   4.265  11.572 -0.5323 -0.7236 -1.5352
16241TIP3    H270139   1.684   4.192  11.649  0.5894  1.4424 -0.9923
16242TIP3   OH270140   0.377   0.709  13.213  0.1036 -0.2859 -0.2037
16242TIP3    H170141   0.419   0.634  13.169  0.6764 -0.7217  1.0331
16242TIP3    H270142   0.404   0.700  13.304  1.4737  2.2933 -0.2695
16243TIP3   OH270143   1.010   4.270   1.109  0.3749  0.5495 -0.3065
16243TIP3    H170144   1.046   4.190   1.147  0.3056  0.1575 -1.0671
16243TIP3    H270145   1.062   4.341   1.148  2.2501 -0.0159 -1.6901
16244TIP3   OH270146   1.937   0.063  14.241  0.4614  0.2434  0.1641
16244TIP3    H170147   1.968   0.026  14.324 -1.3929  0.9170  1.2243
16244TIP3    H270148   1.852   0.101  14.262  0.9732  2.5529 -1.5300
16245TIP3   OH270149   4.528   5.834  16.662  0.1899  0.0381 -0.1863
16245TIP3    H170150   4.567   5.906  16.613  1.4516 -0.8266 -0.5154
16245TIP3    H270151   4.565   5.842  16.750  0.1392 -0.0669 -0.1556
16246TIP3   OH270152   1.768   1.503   1.332  0.1843  0.8789  0.6629
16246TIP3    H170153   1.784   1.521   1.425  1.9234  1.1018  0.3596
16246TIP3    H270154   1.673   1.509   1.322 -0.3504 -1.7157  2.9340
16247TIP3   OH270155   5.071   2.780   5.369  0.1497 -0.7038 -0.1669
16247TIP3    H170156   5.164   2.789   5.349  0.0501 -0.9657 -0.7486
16247TIP3    H270157   5.029   2.849   5.318  0.2960  1.5036  2.4328
16248TIP3   OH270158   4.292   6.528   0.519 -0.1036 -0.6594  0.6551
16248TIP3    H170159   4.341   6.597   0.565  1.3336  0.1727 -1.9449
16248TIP3    H270160   4.318   6.537   0.427 -0.4315 -4.2105  0.0749
16249TIP3   OH270161   1.049   4.143  11.647  0.3444  0.4084 -0.4477
16249TIP3    H170162   0.999   4.062  11.653 -1.5944  1.4683 -1.1539
16249TIP3    H270163   1.024   4.193  11.726  1.9336  0.1557  0.2684
16250TIP3   OH270164   3.830   5.470  16.294 -0.0828 -0.1770 -0.0714
16250TIP3    H170165   3.810   5.388  16.339 -2.0246  0.2726 -0.0286
16250TIP3    H270166   3.861   5.528  16.363 -0.2706 -0.3765  0.1853
16251TIP3   OH270167   6.175   4.371   1.709  0.2219 -0.2291 -0.2882
16251TIP3    H170168   6.260   4.376   1.754 -0.7086  0.3435  1.5079
16251TIP3    H270169   6.152   4.462   1.692 -0.5974 -0.2941  0.3983
16252TIP3   OH270170   1.677   5.530  11.217 -0.0995  0.1277  0.1299
16252TIP3    H170171   1.614   5.544  11.288  0.1155 -1.7403  0.7528
16252TIP3    H270172   1.689   5.435  11.215  3.2109  0.4159  0.4865
16253TIP3   OH270173   6.271   4.566  14.544 -0.0645  0.0595  0.2091
16253TIP3    H170174   6.209   4.638  14.539  0.5067  0.5788  0.5450
16253TIP3    H270175   6.216   4.488  14.552 -0.6665  0.5408  0.8595
16254TIP3   OH270176   5.582   1.590  13.086 -0.5043 -0.5200 -0.1397
16254TIP3    H170177   5.546   1.560  13.003 -1.1226  2.8677 -1.2716
16254TIP3    H270178   5.672   1.557  13.087 -0.5503 -0.8131 -2.0631
16255TIP3   OH270179   4.049   6.294   1.058  0.1147  0.0170  0.6939
16255TIP3    H170180   3.981   6.228   1.044  1.8251 -2.0830  1.6503
16255TIP3    H270181   4.011   6.353   1.123 -0.5507 -1.5558  1.8084
16256TIP3   OH270182   2.891   1.288   2.450  0.9735 -0.1342  0.2475
16256TIP3    H170183   2.823   1.324   2.394  2.6725  2.6755 -0.1946
16256TIP3    H270184   2.854   1.288   2.538 -1.0579 -2.8631 -0.4604
16257TIP3   OH270185   4.036   2.831   2.223  0.4052 -0.3808  0.6044
16257TIP3    H170186   4.005   2.847   2.134  0.6539 -0.1957  0.5480
16257TIP3    H270187   3.959   2.845   2.278  0.6040  1.0713  0.5580
16258TIP3   OH270188   0.689   1.325  11.614 -0.6490  0.1756  0.5676
16258TIP3    H170189   0.679   1.343  11.520 -1.9992  2.3150  1.0566
16258TIP3    H270190   0.601   1.332  11.649 -0.2490 -1.1800  1.9621
16259TIP3   OH270191   5.915   2.870  12.773 -0.3675 -0.3193  0.1152
16259TIP3    H170192   5.876   2.798  12.822 -1.4777 -0.0734 -0.3723
16259TIP3    H270193   5.974   2.912  12.835  1.0588 -2.2022  0.1415
16260TIP3   OH270194   4.449   0.676   2.715 -0.0165 -0.3025 -0.6738
16260TIP3    H170195   4.541   0.658   2.696  0.0475 -0.5793 -0.1118
16260TIP3    H270196   4.424   0.610   2.779 -0.5814 -0.1672 -0.7477
16261TIP3   OH270197   4.320   3.365   5.193 -0.1642  0.4174  0.0079
16261TIP3    H170198   4.354   3.382   5.105 -2.3442  0.0429 -0.9687
16261TIP3    H270199   4.259   3.292   5.181 -0.0568 -0.0281  1.9583
16262TIP3   OH270200   1.043   2.860   0.286 -0.1455 -0.5126  0.4519
16262TIP3    H170201   0.965   2.907   0.254  1.0260  1.5218  0.3900
16262TIP3    H270202   1.097   2.849   0.208  1.3267  1.6355  1.0928
16263TIP3   OH270203   2.211   4.740  13.279 -0.1992 -0.2856  0.3832
16263TIP3    H170204   2.193   4.708  13.367  0.4002 -0.8396  0.3091
16263TIP3    H270205   2.263   4.819  13.292 -1.1064  0.3004  0.5475
16264TIP3   OH270206   6.796   5.061  15.318 -0.7965  0.2825 -0.6790
16264TIP3    H170207   6.818   5.073  15.410 -0.4784 -1.5238 -0.4928
16264TIP3    H270208   6.851   5.124  15.272 -0.5497  0.8233  0.3219
16265TIP3   OH270209   3.344   0.023   5.380 -0.0270 -0.0029 -0.0271
16265TIP3    H170210   3.328  -0.051   5.321 -0.3683  0.4713 -0.5443
16265TIP3    H270211   3.266   0.078   5.371  0.4045  0.6299  0.0312
16266TIP3   OH270212   4.174   0.515   2.554  0.0845  0.4308  0.4223
16266TIP3    H170213   4.262   0.546   2.536  0.2285 -0.5569 -0.6108
16266TIP3    H270214   4.142   0.480   2.471  0.3835 -3.3530  1.7065
16267TIP3   OH270215   4.724   0.044   1.805  0.1964 -0.6331 -0.2371
16267TIP3    H170216   4.653   0.107   1.799  0.2283 -0.4714  0.8658
16267TIP3    H270217   4.688  -0.036   1.767 -0.9943 -0.8725  1.2558
16268TIP3   OH270218   0.700   5.699   2.258  0.2083 -0.3285 -0.5394
16268TIP3    H170219   0.759   5.671   2.327  2.0154 -0.8080 -2.1875
16268TIP3    H270220   0.630   5.634   2.258  0.8399 -1.0238  0.0166
16269TIP3   OH270221   3.845   1.713  15.963 -0.1737 -0.0990  0.0381
16269TIP3    H170222   3.765   1.731  16.013 -0.3177 -0.2152 -0.1482
16269TIP3    H270223   3.829   1.753  15.878  1.0059  2.1880  0.8144
16270TIP3   OH270224   0.973   0.939  11.913  0.2435  0.2639 -0.2848
16270TIP3    H170225   0.947   0.890  11.992 -1.6401 -0.1309 -1.0921
16270TIP3    H270226   0.928   1.023  11.921 -1.1127 -0.3072 -1.5749
16271TIP3   OH270227   3.034   1.841   1.313 -0.2539 -0.4432 -0.2771
16271TIP3    H170228   2.989   1.769   1.268 -2.7330  0.1937  1.0196
16271TIP3    H270229   2.969   1.911   1.318  1.3196  1.0283  0.6133
16272TIP3   OH270230   4.559   0.589  16.792  0.2678  0.0170  0.4329
16272TIP3    H170231   4.519   0.671  16.763  0.1285 -0.4265 -0.7086
16272TIP3    H270232   4.568   0.538  16.711  2.0493 -0.3625  0.8291
16273TIP3   OH270233   3.094   2.899  12.136  0.5512 -0.5352  0.3855
16273TIP3    H170234   3.072   2.878  12.227  0.7240  0.9326  0.7792
16273TIP3    H270235   3.024   2.857  12.085 -0.8390  0.5116  1.3469
16274TIP3   OH270236   0.043   5.760   0.599 -0.2096  0.2338 -0.2298
16274TIP3    H170237   0.016   5.849   0.574  1.8817  0.6995 -0.9992
16274TIP3    H270238   0.052   5.764   0.694 -2.8916 -0.0194  0.1246
16275TIP3   OH270239   5.429   1.009   2.719  0.2951  0.0325  0.3148
16275TIP3    H170240   5.440   1.066   2.643 -0.5308 -0.1993  0.0103
16275TIP3    H270241   5.338   1.021   2.746  0.3592 -0.4709  0.7900
16276TIP3   OH270242   3.647   4.837   0.221  0.5631 -0.2261  0.3636
16276TIP3    H170243   3.736   4.805   0.207  0.8582  0.4194  0.7015
16276TIP3    H270244   3.594   4.758   0.232  1.0258 -0.6225 -0.2368
16277TIP3   OH270245   1.007   6.790  16.220 -0.0777 -0.0782 -0.1213
16277TIP3    H170246   0.924   6.766  16.180 -0.4902 -1.0032  1.2371
16277TIP3    H270247   1.073   6.740  16.171 -0.2932  0.6328 -1.1788
16278TIP3   OH270248   2.072   2.584   2.114  0.5168 -0.1207 -0.0080
16278TIP3    H170249   2.135   2.597   2.043  2.1805  1.1267  1.5997
16278TIP3    H270250   2.116   2.523   2.174 -1.0414 -1.5185 -0.2193
16279TIP3   OH270251   6.213   1.835  11.233 -0.6103  0.4187  0.3824
16279TIP3    H170252   6.186   1.750  11.198  0.6432 -0.2516  0.9734
16279TIP3    H270253   6.300   1.819  11.269 -0.4956  1.8862  0.8024
16280TIP3   OH270254   4.286   2.357  10.568  0.3749  1.0660 -0.0794
16280TIP3    H170255   4.262   2.411  10.644 -1.8787 -1.1541  0.9166
16280TIP3    H270256   4.237   2.394  10.495 -0.4612  0.9211  0.4030
16281TIP3   OH270257   4.003   0.329   4.688 -0.2266  0.2589 -0.3320
16281TIP3    H170258   3.970   0.416   4.710  0.7305  0.8291 -1.0615
16281TIP3    H270259   3.926   0.273   4.690 -0.9001  1.1699 -0.0764
16282TIP3   OH270260   4.361   0.606  14.627  0.1566 -0.3418 -0.3037
16282TIP3    H170261   4.448   0.640  14.605  0.9930 -2.2969 -0.2006
16282TIP3    H270262   4.377   0.545  14.699 -1.0939 -1.7724 -1.1898
16283TIP3   OH270263   1.526   2.227  16.427  0.1502  0.0317 -0.5409
16283TIP3    H170264   1.482   2.312  16.426 -0.1317 -0.1129 -0.5613
16283TIP3    H270265   1.478   2.176  16.493  1.2767  0.3892  0.5832
16284TIP3   OH270266   6.177   6.792  11.414  0.5574 -0.2013  0.4797
16284TIP3    H170267   6.267   6.783  11.446  0.4371 -3.4037  0.1836
16284TIP3    H270268   6.123   6.790  11.493  0.6459  1.2336  0.6179
16285TIP3   OH270269   5.894   3.474  13.876  0.3834  0.0868  0.0554
16285TIP3    H170270   5.968   3.532  13.894  0.8816  0.0510 -1.6370
16285TIP3    H270271   5.843   3.521  13.810  0.1109 -0.8585 -0.4165
16286TIP3   OH270272   5.867   1.878  10.268  0.0397  0.1078 -0.0653
16286TIP3    H170273   5.838   1.810  10.329 -1.4475 -2.4494 -3.2698
16286TIP3    H270274   5.934   1.926  10.316 -0.9383 -1.6902  3.4784
16287TIP3   OH270275   2.264   5.792  11.500 -0.0039 -0.2930 -0.3452
16287TIP3    H170276   2.304   5.749  11.576 -0.1227  0.5504  0.2132
16287TIP3    H270277   2.336   5.839  11.459  0.2903 -1.5915 -1.4044
16288TIP3   OH270278   1.413   3.286   3.326  0.1086  0.1310  0.1555
16288TIP3    H170279   1.359   3.207   3.328 -1.3363  1.0844 -0.1812
16288TIP3    H270280   1.486   3.267   3.385 -2.2574 -0.0210  3.2593
16289TIP3   OH270281   1.315   2.642  12.367 -0.3207  0.0323  0.2387
16289TIP3    H170282   1.339   2.693  12.290 -0.3510  1.7385  1.2956
16289TIP3    H270283   1.228   2.674  12.391  0.3678  0.7697  1.9298
16290TIP3   OH270284   3.889   2.852   2.459 -0.1707  0.4082 -0.3646
16290TIP3    H170285   3.935   2.936   2.451 -0.0465  0.2934 -0.8859
16290TIP3    H270286   3.844   2.858   2.543  1.2723  0.2893  0.4560
16291TIP3   OH270287   4.136   2.574  12.593  0.0036  0.2278  0.1406
16291TIP3    H170288   4.045   2.550  12.572  0.7273 -3.1467  0.2897
16291TIP3    H270289   4.133   2.602  12.685 -1.0087  1.3400 -0.2000
16292TIP3   OH270290   6.729   2.564   5.211 -0.0939  0.1522 -0.0192
16292TIP3    H170291   6.689   2.503   5.273  0.2594  0.8371  0.9186
16292TIP3    H270292   6.665   2.571   5.140  0.1396 -1.7665 -0.4587
16293TIP3   OH270293   5.556   0.185   3.845 -0.0786  0.6548  0.2735
16293TIP3    H170294   5.487   0.127   3.876 -0.4027  0.5335 -0.6599
16293TIP3    H270295   5.615   0.194   3.920 -0.6634  0.0928  0.8088
16294TIP3   OH270296   0.140   5.240  13.244  0.4519 -0.4054  0.1551
16294TIP3    H170297   0.163   5.315  13.298  1.7758 -0.5975 -0.0972
16294TIP3    H270298   0.203   5.243  13.171 -0.8476 -0.5478 -0.9996
16295TIP3   OH270299   5.981   1.318   1.621  0.9464 -0.2881 -0.4692
16295TIP3    H170300   5.892   1.352   1.624  1.5604  1.3545  0.9920
16295TIP3    H270301   6.018   1.357   1.542  0.5305 -0.5912 -0.8204
16296TIP3   OH270302   0.780   5.579   0.485  0.2626  0.1428 -0.1215
16296TIP3    H170303   0.756   5.492   0.518 -0.5266  0.6659  0.7293
16296TIP3    H270304   0.720   5.593   0.412  2.6316 -1.4147 -2.5625
16297TIP3   OH270305   0.674   2.318   2.995  0.1269  0.2182  0.1507
16297TIP3    H170306   0.633   2.327   2.909 -0.1250 -0.2894  0.2168
16297TIP3    H270307   0.601   2.312   3.056  0.2223 -2.2513  0.1230
16298TIP3   OH270308   4.236   5.850   0.875  0.9908  0.1658  0.0678
16298TIP3    H170309   4.173   5.853   0.948  0.5817  3.9227 -0.2585
16298TIP3    H270310   4.183   5.826   0.799  1.1183 -2.1875  0.6505
16299TIP3   OH270311   3.166   1.285  16.426 -0.3599  0.1488 -0.2786
16299TIP3    H170312   3.222   1.325  16.360  1.8423 -2.8002 -0.4029
16299TIP3    H270313   3.107   1.229  16.377 -2.6318  2.1370 -0.0197
16300TIP3   OH270314   4.688   4.415   0.528  0.1687 -0.7733 -0.6343
16300TIP3    H170315   4.669   4.325   0.556  1.1552 -0.4867  1.0519
16300TIP3    H270316   4.645   4.470   0.593 -0.0646 -0.0084 -1.4234
16301TIP3   OH270317   2.315   2.051  12.981  0.1768  0.1298 -0.8524
16301TIP3    H170318   2.261   1.992  12.928 -0.3362 -1.0075  0.8558
16301TIP3    H270319   2.293   2.029  13.071  2.5224  0.5674 -0.1112
16302TIP3   OH270320   3.779   5.798   3.366 -0.4456 -0.1317 -0.0022
16302TIP3    H170321   3.844   5.729   3.375 -0.3471 -0.2584 -1.4218
16302TIP3    H270322   3.731   5.776   3.286 -0.1389  1.6281 -0.7386
16303TIP3   OH270323   0.496   5.050  11.047 -0.0421  0.0918  0.3613
16303TIP3    H170324   0.586   5.054  11.015 -0.0499  0.8449  0.4165
16303TIP3    H270325   0.493   5.110  11.122 -0.5427 -0.0514  0.4647
16304TIP3   OH270326   5.590   2.863  15.938 -0.1238  0.0737 -0.1777
16304TIP3    H170327   5.534   2.939  15.953 -1.1695 -0.5679 -0.6659
16304TIP3    H270328   5.608   2.829  16.025 -1.0073 -0.0499 -0.0337
16305TIP3   OH270329   1.706   6.027  14.775 -0.4900  0.6216  0.8294
16305TIP3    H170330   1.790   6.037  14.729 -0.6546  0.8334  0.5741
16305TIP3    H270331   1.687   5.934  14.771 -0.2401  0.5633  0.9365
16306TIP3   OH270332   5.042   2.137   4.499 -0.0322 -0.0508 -0.0886
16306TIP3    H170333   4.983   2.064   4.519  1.3759 -0.7695  1.7625
16306TIP3    H270334   5.028   2.199   4.570  2.5336 -1.0100  1.4153
16307TIP3   OH270335   2.062   1.125  14.303  0.1054 -0.3438  0.3510
16307TIP3    H170336   1.980   1.086  14.331  2.0172 -2.8879  3.1096
16307TIP3    H270337   2.100   1.060  14.244 -0.2752  1.3674 -1.9364
16308TIP3   OH270338   6.349   1.065  11.335  0.1237  0.3908 -0.6500
16308TIP3    H170339   6.301   0.991  11.373 -1.7713  1.3571 -1.0495
16308TIP3    H270340   6.370   1.037  11.246  1.3222 -0.4680 -0.1167
16309TIP3   OH270341   0.452   0.806   1.649 -0.1939  0.0767  0.2722
16309TIP3    H170342   0.383   0.816   1.583  0.7558 -0.7490 -0.8777
16309TIP3    H270343   0.430   0.724   1.694  0.2390 -0.3868 -0.3524
16310TIP3   OH270344   4.226   2.209   4.797 -0.4371  0.0974  0.3076
16310TIP3    H170345   4.135   2.178   4.800 -0.3495 -0.3289 -0.9667
16310TIP3    H270346   4.231   2.260   4.717  0.1868  1.0345  0.9251
16311TIP3   OH270347   4.527   4.502  11.329  0.0755 -0.2271 -0.1194
16311TIP3    H170348   4.511   4.409  11.342  0.6937 -0.3957 -0.5720
16311TIP3    H270349   4.441   4.538  11.306 -0.1138 -0.7230 -0.1922
16312TIP3   OH270350   4.933   3.061  13.557 -0.6396  0.0217 -0.1638
16312TIP3    H170351   4.892   3.147  13.567 -0.7590  0.1939 -1.8984
16312TIP3    H270352   5.019   3.080  13.520 -1.0820 -0.6351 -1.5986
16313TIP3   OH270353   6.242   1.580  15.389 -0.0490  0.2416  0.0582
16313TIP3    H170354   6.309   1.556  15.325 -0.1034  1.1801 -0.3665
16313TIP3    H270355   6.160   1.578  15.339  0.0706  2.3360 -0.2867
16314TIP3   OH270356   5.292   0.105  13.909  0.0939  0.2162  0.0993
16314TIP3    H170357   5.201   0.095  13.935  0.1503 -0.8947 -0.0945
16314TIP3    H270358   5.340   0.045  13.967  0.4248 -0.9314 -1.3041
16315TIP3   OH270359   5.092   0.650  15.153  0.2798 -0.0687 -0.8771
16315TIP3    H170360   5.029   0.722  15.144 -2.7043 -2.4402 -0.2288
16315TIP3    H270361   5.067   0.588  15.084  0.7141 -1.8886  0.5484
16316TIP3   OH270362   4.683   2.440  11.274  0.3884 -0.1702 -0.8839
16316TIP3    H170363   4.776   2.457  11.291  0.4999  0.5726 -2.1177
16316TIP3    H270364   4.639   2.521  11.297  0.1298 -0.2967 -0.9290
16317TIP3   OH270365   2.636   6.204  16.111  0.0938 -0.6718 -0.2189
16317TIP3    H170366   2.551   6.159  16.114 -1.1721  1.5727  0.7107
16317TIP3    H270367   2.701   6.135  16.120 -1.6775 -2.4119 -0.2787
16318TIP3   OH270368   0.287   1.116  11.201 -0.3391 -0.1135  0.1857
16318TIP3    H170369   0.216   1.067  11.159  0.1459 -0.7551  0.1006
16318TIP3    H270370   0.242   1.180  11.256 -0.9807  0.0239 -0.4820
16319TIP3   OH270371   1.081   3.223   3.798  0.0136  0.2214 -0.1547
16319TIP3    H170372   1.082   3.133   3.764  1.5012 -0.1173  0.6745
16319TIP3    H270373   1.106   3.213   3.890  0.1300  1.4817 -0.0413
16320TIP3   OH270374   6.480   0.494  10.362  0.1178  0.0053 -0.2931
16320TIP3    H170375   6.503   0.459  10.448 -1.2576 -0.6870 -0.1704
16320TIP3    H270376   6.426   0.571  10.381 -1.5196 -1.0411 -0.4637
16321TIP3   OH270377   0.532   0.291  16.107 -0.2476  0.0356 -0.2823
16321TIP3    H170378   0.587   0.248  16.041  0.7452  0.6356  0.1338
16321TIP3    H270379   0.529   0.230  16.180  0.7601  0.4393  0.1143
16322TIP3   OH270380   4.753   0.345   2.688 -0.3137 -0.8807  0.3095
16322TIP3    H170381   4.745   0.366   2.782 -1.5362 -1.0276  0.2465
16322TIP3    H270382   4.728   0.426   2.643  0.2613 -0.8145  0.0923
16323TIP3   OH270383   6.645   0.885   1.185 -0.2331 -0.1910  0.6485
16323TIP3    H170384   6.599   0.801   1.193  0.4398 -0.7998 -1.2280
16323TIP3    H270385   6.731   0.869   1.222  1.0528 -1.4167 -2.5034
16324TIP3   OH270386   3.285   4.640  15.764  0.1777  0.6511 -0.1876
16324TIP3    H170387   3.357   4.581  15.786 -0.2828  0.4720  0.9216
16324TIP3    H270388   3.279   4.637  15.669  0.9995 -0.0916 -0.2253
16325TIP3   OH270389   4.413   4.607  11.694  0.6860 -0.8209 -0.4071
16325TIP3    H170390   4.459   4.664  11.755  1.9115 -2.0506 -0.1193
16325TIP3    H270391   4.463   4.613  11.613  2.1197 -2.9925  0.2187
16326TIP3   OH270392   5.469   3.703  11.258  0.3923 -0.0807 -0.5072
16326TIP3    H170393   5.500   3.778  11.309 -1.7965  0.1315  0.6760
16326TIP3    H270394   5.483   3.628  11.315  0.7951 -0.2979 -0.8898
16327TIP3   OH270395   2.478   5.783   4.768  0.1958 -0.1753  0.4486
16327TIP3    H170396   2.526   5.702   4.784  2.2669  0.6338 -1.1003
16327TIP3    H270397   2.389   5.756   4.746  0.9264 -2.0510 -0.3704
16328TIP3   OH270398   2.916   3.528  15.524 -0.6927 -0.1838  0.3529
16328TIP3    H170399   3.008   3.554  15.528 -0.9424  0.6406  1.0956
16328TIP3    H270400   2.868   3.605  15.553 -1.6202 -0.6401  0.0733
16329TIP3   OH270401   5.764   2.357   4.639  0.2506 -0.0712  0.2009
16329TIP3    H170402   5.821   2.282   4.657 -0.9365 -1.2775 -0.8630
16329TIP3    H270403   5.824   2.431   4.628  1.5914 -1.2504 -0.6872
16330TIP3   OH270404   3.187   5.844  13.741 -0.4076  0.0971  0.6356
16330TIP3    H170405   3.105   5.889  13.760 -1.4003 -1.0080 -0.8466
16330TIP3    H270406   3.184   5.765  13.796  0.3100  0.7022  1.5767
16331TIP3   OH270407   1.534   0.048   5.275  0.0020 -0.4689  0.2323
16331TIP3    H170408   1.485  -0.003   5.211  1.1070 -1.7551  0.3493
16331TIP3    H270409   1.602  -0.012   5.306  1.1199  0.9659  0.6837
16332TIP3   OH270410   0.379   4.644  13.230 -0.5956  0.5425 -0.2771
16332TIP3    H170411   0.451   4.666  13.171 -0.7864 -0.6619 -0.9954
16332TIP3    H270412   0.422   4.609  13.308 -0.3758  0.2930 -0.5060
16333TIP3   OH270413   4.924   4.202  14.997  0.2294 -0.3112 -0.6513
16333TIP3    H170414   4.931   4.200  15.092  0.3804  2.4400 -0.5042
16333TIP3    H270415   4.833   4.230  14.981  1.2846  3.5630 -1.0190
16334TIP3   OH270416   4.227   2.232  14.444 -0.0620  0.0973 -1.0226
16334TIP3    H170417   4.168   2.160  14.422 -0.6012  1.0351 -2.8785
16334TIP3    H270418   4.170   2.308  14.458  0.5234  0.3064  0.4725
16335TIP3   OH270419   3.442   1.781  14.719 -0.0324  0.4428 -0.2518
16335TIP3    H170420   3.399   1.707  14.676 -0.9798  1.4400 -1.0905
16335TIP3    H270421   3.386   1.856  14.699  2.3931  1.9514 -1.9667
16336TIP3   OH270422   1.974   4.650  15.685 -0.6098  0.2724  0.3159
16336TIP3    H170423   1.967   4.742  15.658 -2.3275  1.0998  3.2225
16336TIP3    H270424   2.068   4.636  15.698 -0.4477  2.1957  1.5159
16337TIP3   OH270425   0.143   5.006   5.269 -0.3432  0.1550  0.0161
16337TIP3    H170426   0.185   4.971   5.348 -2.3712 -1.1426  0.6024
16337TIP3    H270427   0.094   4.932   5.233 -0.1891  0.9640 -1.9833
16338TIP3   OH270428   2.273   6.244  11.169  0.5640 -0.1488  0.0727
16338TIP3    H170429   2.340   6.270  11.233  0.7624 -2.6474  1.0282
16338TIP3    H270430   2.210   6.194  11.221 -0.5609 -0.2200 -1.3142
16339TIP3   OH270431   1.652   4.839  17.125  0.2714  0.3340 -0.0677
16339TIP3    H170432   1.672   4.899  17.197 -1.4414  0.3187  0.4609
16339TIP3    H270433   1.569   4.871  17.090  0.0685 -0.8615 -0.7279
16340TIP3   OH270434   2.183   5.366  14.318 -0.4121 -0.0990  0.0528
16340TIP3    H170435   2.114   5.371  14.252 -1.4055  2.3009  1.1471
16340TIP3    H270436   2.147   5.311  14.387 -0.5326 -0.2740 -0.1513
16341TIP3   OH270437   5.583   3.042  15.561  0.5624 -0.1170 -0.2616
16341TIP3    H170438   5.658   3.053  15.503  0.2958 -0.1214 -0.6082
16341TIP3    H270439   5.529   2.975  15.519 -0.2599  0.7689 -0.6643
16342TIP3   OH270440   3.921   5.405  14.630 -0.6270  0.1517  0.1214
16342TIP3    H170441   4.005   5.359  14.622 -0.8721 -0.0546 -1.3882
16342TIP3    H270442   3.905   5.442  14.544 -2.6615 -0.8103  0.0296
16343TIP3   OH270443   2.888   2.265   4.656  0.2647  0.3912  0.4605
16343TIP3    H170444   2.805   2.303   4.627  0.7547  1.1928  0.0871
16343TIP3    H270445   2.914   2.207   4.584  0.4952  0.8658  0.1570
16344TIP3   OH270446   5.025   3.733   5.277  0.0431  0.0430 -0.2834
16344TIP3    H170447   4.997   3.720   5.368 -1.1910 -0.3104 -0.6934
16344TIP3    H270448   4.973   3.670   5.227 -0.3060  1.1750 -1.3953
16345TIP3   OH270449   0.292   4.430   5.654  0.0807 -0.2405  0.5764
16345TIP3    H170450   0.240   4.458   5.729 -0.4724 -0.0504  0.1303
16345TIP3    H270451   0.381   4.420   5.688 -0.0241  0.5280  1.0914
16346TIP3   OH270452   1.164   6.687   3.994  0.4939  0.8705 -0.6283
16346TIP3    H170453   1.072   6.662   3.987  0.7417 -0.0666 -0.6232
16346TIP3    H270454   1.161   6.781   4.015 -0.5690  0.1335  3.2960
16347TIP3   OH270455   1.683   2.275  11.521  0.0476 -0.4100 -0.0873
16347TIP3    H170456   1.756   2.295  11.579  0.7583  0.6343 -1.3042
16347TIP3    H270457   1.616   2.340  11.543 -0.3495 -1.0300  0.6455
16348TIP3   OH270458   5.905   4.544  11.544 -0.4610 -0.7336  0.1635
16348TIP3    H170459   5.822   4.542  11.497 -1.0613  1.0605  1.0593
16348TIP3    H270460   5.892   4.489  11.620 -0.5983 -0.9997 -0.0517
16349TIP3   OH270461   0.515   1.306  16.656 -0.1717 -0.0980  0.1035
16349TIP3    H170462   0.608   1.304  16.632 -0.2727 -0.2753 -0.2858
16349TIP3    H270463   0.514   1.287  16.750  0.1556 -0.5507  0.0207
16350TIP3   OH270464   0.360   3.725  11.820 -0.3773  0.9177 -0.5229
16350TIP3    H170465   0.264   3.725  11.816 -0.4038  1.1294  0.0770
16350TIP3    H270466   0.382   3.802  11.873  0.1380  1.0435 -0.9078
16351TIP3   OH270467   6.389   0.465   4.033 -0.0913 -0.0540  0.1686
16351TIP3    H170468   6.424   0.552   4.012  0.7875 -0.3196  0.4942
16351TIP3    H270469   6.302   0.483   4.069  0.7345  0.8413  1.8302
16352TIP3   OH270470   0.504   3.854  12.366 -0.2283 -0.6720 -0.8066
16352TIP3    H170471   0.492   3.767  12.403  1.4212 -0.5205  0.1918
16352TIP3    H270472   0.513   3.911  12.442  0.3710  0.0933 -1.4384
16353TIP3   OH270473   2.482   3.994   1.579 -0.1801 -0.2205  0.3688
16353TIP3    H170474   2.508   3.968   1.667 -0.7443  1.9327  1.2303
16353TIP3    H270475   2.562   4.029   1.539 -0.1612 -0.1982  0.4268
16354TIP3   OH270476   5.648   0.581  15.212  0.1227  0.5813  0.4824
16354TIP3    H170477   5.561   0.616  15.190  0.5218  1.9584  0.9606
16354TIP3    H270478   5.631   0.494  15.246 -0.9206  0.2151 -0.8952
16355TIP3   OH270479   2.999   0.026   3.898  0.2269 -0.1282  0.3843
16355TIP3    H170480   2.969   0.104   3.852 -0.8602 -0.8478 -0.1563
16355TIP3    H270481   3.069  -0.009   3.843 -1.2862 -1.1728 -0.9410
16356TIP3   OH270482   1.429   5.664   2.985 -0.7280 -0.5178 -0.2562
16356TIP3    H170483   1.335   5.661   3.002 -0.4776 -0.3709  1.3865
16356TIP3    H270484   1.438   5.715   2.904 -2.1602 -2.4083 -1.6878
16357TIP3   OH270485   5.311   0.513   4.698  0.0239 -0.2768  0.2427
16357TIP3    H170486   5.298   0.592   4.750  1.9152 -0.8041  1.6068
16357TIP3    H270487   5.396   0.526   4.655 -0.6863 -0.6211 -1.3692
16358TIP3   OH270488   5.529   1.831  11.695  0.0781  0.2249  0.3878
16358TIP3    H170489   5.595   1.763  11.708 -0.7863 -0.4547  1.4053
16358TIP3    H270490   5.551   1.870  11.611  1.8602  0.1294  0.7776
16359TIP3   OH270491   3.652   1.538   0.255  0.5453  0.2565 -0.1840
16359TIP3    H170492   3.559   1.534   0.278  0.4836 -0.4977 -0.5182
16359TIP3    H270493   3.698   1.511   0.334  0.3837 -1.2381 -0.5692
16360TIP3   OH270494   5.399   0.068   1.983 -0.0923  0.0186  0.1734
16360TIP3    H170495   5.381   0.073   2.077 -0.1961 -0.3714  0.1728
16360TIP3    H270496   5.326   0.018   1.947 -0.4768  0.8505 -0.2348
16361TIP3   OH270497   6.603   3.312   5.727 -0.2495  0.1194  0.8217
16361TIP3    H170498   6.562   3.243   5.779 -0.6239 -0.3322 -0.0540
16361TIP3    H270499   6.565   3.393   5.761 -0.6925 -0.1900  1.0815
16362TIP3   OH270500   4.233   1.786  17.008 -0.3458 -0.3467 -0.0399
16362TIP3    H170501   4.196   1.700  16.988 -0.2705 -0.2605 -0.5569
16362TIP3    H270502   4.324   1.781  16.977  0.8647 -1.3277  3.2061
16363TIP3   OH270503   0.793   6.158  14.190  0.2381 -0.1744  0.5460
16363TIP3    H170504   0.702   6.185  14.178  0.0616 -0.5717  0.9907
16363TIP3    H270505   0.837   6.191  14.112  0.2546  2.3786  1.5185
16364TIP3   OH270506   1.009   1.962  14.573 -0.7430 -0.3744 -0.1266
16364TIP3    H170507   1.068   1.907  14.625 -1.1421 -0.3485  0.3686
16364TIP3    H270508   0.996   2.040  14.627 -0.2914  0.1457 -0.7640
16365TIP3   OH270509   0.355   6.760   1.248  0.2115 -0.3323 -0.5699
16365TIP3    H170510   0.410   6.685   1.272 -0.5325 -0.5156  0.6220
16365TIP3    H270511   0.268   6.738   1.280  0.1757  1.4799  0.7675
16366TIP3   OH270512   0.825   3.650  12.473 -1.1538  0.8306 -0.3534
16366TIP3    H170513   0.898   3.617  12.524 -0.5222  0.3042 -1.5597
16366TIP3    H270514   0.788   3.720  12.526 -1.6191 -0.8291  1.6190
16367TIP3   OH270515   0.870   2.266   3.224  0.1806 -0.4514 -0.3677
16367TIP3    H170516   0.804   2.267   3.154 -0.1185  0.3387 -0.0797
16367TIP3    H270517   0.926   2.191   3.202  1.7056  1.2916 -2.9204
16368TIP3   OH270518   0.889   2.013   2.054 -0.3284  0.2625 -0.2780
16368TIP3    H170519   0.947   1.956   2.004  1.2665  0.7504  0.9174
16368TIP3    H270520   0.901   2.099   2.015  0.5792  0.5590  0.6037
16369TIP3   OH270521   4.620   5.038  15.082  0.0632 -0.1755 -0.3880
16369TIP3    H170522   4.617   5.083  14.998 -1.2124  2.1027  0.7847
16369TIP3    H270523   4.656   5.102  15.143 -0.6365 -1.1624  1.1434
16370TIP3   OH270524   5.679   5.522  12.841  0.2635 -0.6047 -0.2749
16370TIP3    H170525   5.728   5.512  12.760  0.2147  0.6028 -0.4698
16370TIP3    H270526   5.723   5.463  12.903  0.1545 -1.7261 -1.2145
16371TIP3   OH270527   5.128   2.679  11.773 -0.4392  0.5381 -0.2692
16371TIP3    H170528   5.136   2.584  11.765 -0.1101  0.6128 -0.8184
16371TIP3    H270529   5.206   2.705  11.821 -0.5158  0.5380 -0.1434
16372TIP3   OH270530   2.891   5.391  15.672 -0.6969  0.3500 -0.4325
16372TIP3    H170531   2.888   5.485  15.690  1.0124  0.3532 -0.0477
16372TIP3    H270532   2.893   5.350  15.758 -0.7359 -0.0205 -0.6046
16373TIP3   OH270533   3.366   4.546  16.376 -0.6232 -0.4936 -0.4648
16373TIP3    H170534   3.390   4.506  16.293  0.5646  1.0511 -0.9086
16373TIP3    H270535   3.439   4.526  16.435 -0.3818  0.3450 -0.4720
16374TIP3   OH270536   5.840   0.624   1.713  0.2450 -0.2194 -0.4331
16374TIP3    H170537   5.789   0.564   1.767 -0.3031 -0.1728 -0.8932
16374TIP3    H270538   5.796   0.709   1.722  0.8231  0.0552 -0.0510
16375TIP3   OH270539   0.316   4.178   1.494  0.4364  0.7556  0.7020
16375TIP3    H170540   0.361   4.146   1.572 -0.2419  1.0292  1.2222
16375TIP3    H270541   0.354   4.265   1.478  0.7874  0.5749  0.5459
16376TIP3   OH270542   6.672   3.924  14.514  0.6084  0.1228  0.0480
16376TIP3    H170543   6.645   4.016  14.509  1.4200  0.5412  2.2621
16376TIP3    H270544   6.622   3.888  14.587  1.2894 -0.8227  0.0685
16377TIP3   OH270545   0.119   5.668   4.850 -0.1287  0.5362 -0.6060
16377TIP3    H170546   0.164   5.584   4.842 -1.8929 -0.6837  1.1605
16377TIP3    H270547   0.118   5.703   4.761  0.2637 -1.5439 -1.4984
16378TIP3   OH270548   4.058   5.496   2.914  0.1921 -0.0303  0.5594
16378TIP3    H170549   4.026   5.528   2.998  0.9799  1.0119  0.4818
16378TIP3    H270550   4.123   5.561   2.887  0.8800 -1.0344 -0.2425
16379TIP3   OH270551   6.332   5.953   2.402  0.1858  0.0890 -0.7184
16379TIP3    H170552   6.248   5.925   2.365  0.2005  0.7844 -1.3055
16379TIP3    H270553   6.385   5.978   2.326  0.5840  0.5778 -0.2910
16380TIP3   OH270554   3.428   2.324  16.864 -0.3478  0.1598  0.7933
16380TIP3    H170555   3.486   2.306  16.790 -0.6544  2.3666 -0.0436
16380TIP3    H270556   3.482   2.307  16.941  0.4921 -0.5738  0.0637
16381TIP3   OH270557   5.930   5.831   3.426  0.2038 -0.3379 -0.1769
16381TIP3    H170558   5.904   5.923   3.436  0.4357 -0.1470 -1.1501
16381TIP3    H270559   5.852   5.781   3.448  0.3228  0.0485  1.2000
16382TIP3   OH270560   0.098   6.497  12.165 -0.1399 -0.2570  0.0154
16382TIP3    H170561   0.137   6.455  12.241 -0.4854  1.3028  1.0875
16382TIP3    H270562   0.156   6.472  12.092  2.2483  1.0573  1.3558
16383TIP3   OH270563   5.350   2.692   1.294 -0.0644  0.0411 -0.0676
16383TIP3    H170564   5.329   2.627   1.227 -0.5499 -0.1680  0.2760
16383TIP3    H270565   5.269   2.743   1.303  0.3355  0.7454 -0.3886
16384TIP3   OH270566   3.503   6.798  11.506 -0.5811 -0.0678  0.0770
16384TIP3    H170567   3.499   6.816  11.412 -0.6169 -0.5072 -0.0065
16384TIP3    H270568   3.416   6.820  11.538 -0.0762  1.7688  0.3250
16385TIP3   OH270569   4.389   5.916   1.530 -0.0478  0.5517 -0.1433
16385TIP3    H170570   4.382   5.981   1.460 -0.4997  0.0480 -0.5685
16385TIP3    H270571   4.355   5.835   1.492 -0.5565  0.3345  0.7496
16386TIP3   OH270572   6.400   5.112  11.831  0.6491 -0.2678 -0.0566
16386TIP3    H170573   6.392   5.199  11.791  2.9871  0.3254  0.6476
16386TIP3    H270574   6.424   5.055  11.759  1.8047  0.2171 -0.0774
16387TIP3   OH270575   2.814   6.511  12.268  0.4181 -0.5139  0.0899
16387TIP3    H170576   2.774   6.542  12.186 -0.9042 -2.2411  0.0233
16387TIP3    H270577   2.891   6.462  12.239  1.6321  1.2748  0.1101
16388TIP3   OH270578   1.670   6.060   2.580  0.2757 -0.1049 -0.2101
16388TIP3    H170579   1.580   6.026   2.582  0.5274 -0.8811 -1.0838
16388TIP3    H270580   1.719   5.999   2.635  0.1140  0.8768  1.0687
16389TIP3   OH270581   1.044   5.792  14.198 -0.0739 -0.3459 -0.2464
16389TIP3    H170582   1.069   5.883  14.178  1.6624 -0.4903  0.9920
16389TIP3    H270583   0.955   5.784  14.166  0.0756  1.5069 -1.2911
16390TIP3   OH270584   1.108   4.028  16.090  0.1634 -0.4721 -0.0756
16390TIP3    H170585   1.200   4.047  16.108  0.0680  1.5883 -1.4451
16390TIP3    H270586   1.071   4.005  16.175  1.6238  0.0602  0.7453
16391TIP3   OH270587   0.734   4.660  11.533 -0.3374 -0.4184  0.6398
16391TIP3    H170588   0.668   4.660  11.603 -1.3737 -2.1321 -0.2794
16391TIP3    H270589   0.784   4.580  11.548 -0.7005 -0.9109 -0.6789
16392TIP3   OH270590   5.096   5.596   1.372  0.0876 -0.4489 -0.3165
16392TIP3    H170591   5.061   5.555   1.293 -0.1648 -2.1131  0.6333
16392TIP3    H270592   5.191   5.593   1.361  0.0575  0.9234 -1.3081
16393TIP3   OH270593   5.138   6.607  12.904  0.5271 -0.0629 -0.0891
16393TIP3    H170594   5.088   6.526  12.905 -0.2641  0.3497 -1.7641
16393TIP3    H270595   5.109   6.652  12.824  0.6075  2.0814  1.0177
16394TIP3   OH270596   2.851   5.413   0.140 -0.1660  0.2381 -0.3289
16394TIP3    H170597   2.849   5.362   0.059 -0.7958  1.4709 -1.1263
16394TIP3    H270598   2.912   5.484   0.121  0.1895  0.1694  0.5270
16395TIP3   OH270599   0.424   3.507  16.208  0.5041  0.7082 -0.3290
16395TIP3    H170600   0.337   3.470  16.220  0.4405  1.0471  0.2772
16395TIP3    H270601   0.467   3.447  16.147 -0.3266  0.8256 -1.0611
16396TIP3   OH270602   1.322   4.189  17.074 -0.5805  0.0688  1.1412
16396TIP3    H170603   1.312   4.237  16.991  0.7008  0.6790  1.3145
16396TIP3    H270604   1.258   4.118  17.068 -0.0855 -0.2852 -0.6464
16397TIP3   OH270605   2.970   3.290  13.343  0.4995 -0.5089  0.3675
16397TIP3    H170606   3.033   3.359  13.322  0.0301 -0.0507  0.4501
16397TIP3    H270607   2.906   3.293  13.272  0.4571 -0.8439  0.3863
16398TIP3   OH270608   0.101   3.903  15.470 -0.4100  0.2841  0.4973
16398TIP3    H170609   0.035   3.880  15.535 -2.0733  0.0880 -1.1760
16398TIP3    H270610   0.070   3.863  15.389  0.8151  1.7146 -0.7476
16399TIP3   OH270611   5.328   1.758  14.744 -0.0283  0.2007  0.4784
16399TIP3    H170612   5.386   1.724  14.812  1.2085 -1.0601 -1.0962
16399TIP3    H270613   5.283   1.680  14.710  0.4297  0.5461 -1.0326
16400TIP3   OH270614   4.766   1.573  15.537 -0.6586  0.0268 -0.8110
16400TIP3    H170615   4.834   1.640  15.530 -0.0064 -0.1073  2.6018
16400TIP3    H270616   4.690   1.619  15.572 -0.2370 -0.8868  1.4761
16401TIP3   OH270617   4.193   3.881  13.357  0.1300 -0.3732  0.0162
16401TIP3    H170618   4.153   3.961  13.392 -0.6859 -0.1369 -1.3715
16401TIP3    H270619   4.158   3.811  13.411 -0.5368  0.0434  0.1425
16402TIP3   OH270620   0.607   0.558   3.381 -0.2400  0.4861  0.2366
16402TIP3    H170621   0.613   0.638   3.434 -0.1061  0.9976 -0.5222
16402TIP3    H270622   0.691   0.515   3.393 -0.0830  0.7708  0.1799
16403TIP3   OH270623   5.036   6.184   1.247  0.8555 -0.2407 -0.6085
16403TIP3    H170624   5.013   6.272   1.219 -2.9905 -1.1678 -0.9726
16403TIP3    H270625   5.062   6.193   1.339 -0.6290  1.1856 -0.2819
16404TIP3   OH270626   3.620   3.170  11.568 -0.3772  0.5144  0.0779
16404TIP3    H170627   3.701   3.222  11.571  0.5203 -0.7983 -0.4394
16404TIP3    H270628   3.641   3.098  11.509 -2.1771  0.5269 -0.6186
16405TIP3   OH270629   2.068   4.152   5.230  0.0070  0.6456 -0.1338
16405TIP3    H170630   2.131   4.086   5.258  1.1373  1.0349 -1.6541
16405TIP3    H270631   2.121   4.228   5.207 -1.1840  1.7018  0.4793
16406TIP3   OH270632   4.116   1.476  15.735 -0.7433 -0.1796 -0.4330
16406TIP3    H170633   4.060   1.474  15.658  0.3603  1.2744 -1.3414
16406TIP3    H270634   4.124   1.569  15.757  1.3364 -0.2980 -0.4103
16407TIP3   OH270635   2.049   0.919   0.076 -0.1620 -0.5079  0.5660
16407TIP3    H170636   1.989   0.854   0.114  0.2404 -0.0316  2.1167
16407TIP3    H270637   2.122   0.922   0.139  0.1507  0.9344  0.1520
16408TIP3   OH270638   3.049   0.317   6.411  0.5590  0.1399 -0.0943
16408TIP3    H170639   3.050   0.226   6.440  1.5484  0.2959  0.4329
16408TIP3    H270640   3.131   0.353   6.446 -0.2503  1.4760  0.4962
16409TIP3   OH270641   6.271   2.606   1.701  0.6646  0.6216 -0.1460
16409TIP3    H170642   6.343   2.662   1.672  1.3873 -1.6043 -3.2558
16409TIP3    H270643   6.315   2.530   1.741  0.1891 -0.7159 -1.9981
16410TIP3   OH270644   2.765   6.168   6.003  0.3191 -0.3473  0.1276
16410TIP3    H170645   2.801   6.249   6.040  0.8890 -0.0110 -1.1028
16410TIP3    H270646   2.676   6.162   6.040  0.4484  0.5725  0.6196
16411TIP3   OH270647   2.044   4.995  13.348 -0.1130  0.2658  0.0777
16411TIP3    H170648   2.114   5.011  13.284  0.1114 -0.2881  0.1759
16411TIP3    H270649   2.089   4.961  13.425 -0.4228  0.5741  0.3987
16412TIP3   OH270650   2.781   5.905   2.214 -0.3197  0.1829  0.1666
16412TIP3    H170651   2.734   5.981   2.249 -1.4222 -0.6438  0.5283
16412TIP3    H270652   2.869   5.938   2.195 -0.0666  1.0227  2.4415
16413TIP3   OH270653   6.339   4.423  16.799  0.2061 -0.2737 -0.1965
16413TIP3    H170654   6.419   4.460  16.761  1.2403 -3.9400 -1.9947
16413TIP3    H270655   6.271   4.442  16.734  0.4318 -0.3947 -0.4700
16414TIP3   OH270656   5.848   3.534  11.903 -0.7731 -0.4581  0.2766
16414TIP3    H170657   5.767   3.506  11.860 -0.3100 -1.2801 -0.0916
16414TIP3    H270658   5.850   3.483  11.984 -0.6852 -0.3407  0.3478
16415TIP3   OH270659   1.030   6.485  11.719 -0.3727 -0.7740 -0.3443
16415TIP3    H170660   1.044   6.416  11.784  0.0583 -1.6029 -1.2952
16415TIP3    H270661   1.118   6.507  11.688 -0.6594 -1.7187 -1.9716
16416TIP3   OH270662   6.061   5.534   4.012  0.0664 -0.2675 -0.3873
16416TIP3    H170663   6.111   5.524   4.093  1.2535 -0.6420 -1.1345
16416TIP3    H270664   6.122   5.577   3.952 -1.1644  1.0352 -0.7553
16417TIP3   OH270665   3.651   2.721  13.563 -0.3357 -0.3848  0.6327
16417TIP3    H170666   3.570   2.708  13.612 -1.6189  1.9498 -0.6505
16417TIP3    H270667   3.721   2.707  13.627 -1.8751  0.8280  2.7219
16418TIP3   OH270668   0.553   4.689  12.804 -0.3467  0.2576 -0.6127
16418TIP3    H170669   0.602   4.607  12.796 -1.9896 -0.8178 -0.1937
16418TIP3    H270670   0.602   4.752  12.751  1.2891 -0.8210 -0.4581
16419TIP3   OH270671   6.542   6.085  12.234  0.4523 -0.2073 -0.5217
16419TIP3    H170672   6.475   6.037  12.185 -0.2451  0.8055 -0.5896
16419TIP3    H270673   6.493   6.145  12.290  1.2881 -0.1125  0.1287
16420TIP3   OH270674   5.385   6.160  14.080  0.3323 -0.4234  0.0024
16420TIP3    H170675   5.442   6.237  14.082 -1.9032  1.3385  1.4386
16420TIP3    H270676   5.299   6.194  14.053 -0.5829 -2.5636 -0.0216
16421TIP3   OH270677   4.322   2.675  11.079  0.0123  0.2025  0.2163
16421TIP3    H170678   4.410   2.637  11.087  0.0490  0.4371  0.9008
16421TIP3    H270679   4.303   2.667  10.985  1.9990  2.9066 -0.5475
16422TIP3   OH270680   4.131   1.059   6.170  0.0550 -0.4092  0.4668
16422TIP3    H170681   4.176   0.974   6.173 -2.7727 -1.9870  1.8912
16422TIP3    H270682   4.073   1.058   6.246 -2.2822  1.5277 -1.1551
16423TIP3   OH270683   3.967   1.765   6.131 -0.1460  0.1830  0.2739
16423TIP3    H170684   4.023   1.693   6.103 -1.4505 -0.7899  0.0480
16423TIP3    H270685   4.016   1.810   6.200  0.7545 -0.8284  0.3013
16424TIP3   OH270686   6.007   1.698   5.815 -0.1271 -0.4288  0.6926
16424TIP3    H170687   5.924   1.698   5.767  1.0151 -0.9866 -1.4469
16424TIP3    H270688   5.985   1.664   5.902 -2.3620  0.8384  0.6938
16425TIP3   OH270689   4.768   3.810   4.270 -1.1447 -0.2462  0.1179
16425TIP3    H170690   4.822   3.889   4.279 -2.4782  0.5092  2.7115
16425TIP3    H270691   4.813   3.744   4.322 -0.2890 -1.1104 -1.6484
16426TIP3   OH270692   2.855   3.637   4.583  0.0937  0.0776  0.2602
16426TIP3    H170693   2.940   3.598   4.563  0.5088  0.3420  1.4205
16426TIP3    H270694   2.844   3.622   4.677  0.1693  2.5198  0.7368
16427TIP3   OH270695   2.211   0.376   1.133 -0.3669  0.2273  0.1228
16427TIP3    H170696   2.165   0.394   1.050  1.0318 -1.6833 -1.1544
16427TIP3    H270697   2.163   0.302   1.171 -0.5741  0.6397  0.6665
16428TIP3   OH270698   4.490   0.426   4.946 -0.5543 -0.1193 -0.3434
16428TIP3    H170699   4.418   0.369   4.974  1.2640 -1.4525  2.0856
16428TIP3    H270700   4.548   0.429   5.022  1.6398  1.4019 -1.9666
16429TIP3   OH270701   0.156   1.063   5.135  0.0447 -0.1093  0.5494
16429TIP3    H170702   0.137   1.055   5.228 -0.7989  1.5956  0.5607
16429TIP3    H270703   0.210   1.142   5.128 -1.6181  1.0087 -0.5819
16430TIP3   OH270704   2.835   0.641   4.331  0.6141 -0.1607 -0.0349
16430TIP3    H170705   2.745   0.670   4.311  0.5030 -1.0230 -0.8344
16430TIP3    H270706   2.889   0.716   4.307  0.1311  0.2778  0.2100
16431TIP3   OH270707   1.893   2.022   0.716 -0.5339  0.6857 -0.0442
16431TIP3    H170708   1.911   2.030   0.622  1.5972  0.9757  0.3396
16431TIP3    H270709   1.962   1.964   0.749 -0.8210  1.1598  1.4655
16432TIP3   OH270710   3.712   4.392   4.077 -0.5963  0.2726 -0.1957
16432TIP3    H170711   3.752   4.319   4.125  2.4372  1.9145  0.0218
16432TIP3    H270712   3.640   4.421   4.134  0.5351 -0.1953  1.5722
16433TIP3   OH270713   2.990   4.357  16.103 -0.0254  0.3714 -0.0596
16433TIP3    H170714   2.945   4.298  16.164  0.3550  0.0241 -0.1082
16433TIP3    H270715   2.951   4.443  16.119 -2.0902 -0.2308 -1.4408
16434TIP3   OH270716   3.723   4.695  14.691 -0.6955  0.3777 -0.2662
16434TIP3    H170717   3.696   4.733  14.774 -1.0431 -0.1405 -0.1398
16434TIP3    H270718   3.667   4.737  14.625  0.7623  2.1175 -0.4884
16435TIP3   OH270719   1.041   3.274  14.418 -0.4862 -0.1948 -0.0418
16435TIP3    H170720   1.089   3.249  14.498  0.5214  1.2476 -0.1462
16435TIP3    H270721   0.967   3.213  14.414 -0.1365 -0.7819  1.5826
16436TIP3   OH270722   4.557   2.610  16.136 -0.0664  0.3711 -0.1949
16436TIP3    H170723   4.566   2.695  16.178  0.1070  0.2766 -0.0386
16436TIP3    H270724   4.512   2.556  16.201  1.6756 -0.2567  0.5539
16437TIP3   OH270725   6.781   2.426   2.731  0.3237  0.1243  0.3779
16437TIP3    H170726   6.801   2.338   2.763 -2.0579 -0.8092 -0.4117
16437TIP3    H270727   6.801   2.422   2.637 -0.3187  0.2187  0.2319
16438TIP3   OH270728   5.605   6.232  11.970 -0.0849 -0.1918  0.5543
16438TIP3    H170729   5.558   6.205  11.892  0.2753  2.3976 -0.6428
16438TIP3    H270730   5.696   6.241  11.942  0.0176  0.9476  1.1895
16439TIP3   OH270731   4.731   0.899  12.316 -0.0989  0.1840  0.4416
16439TIP3    H170732   4.704   0.897  12.224 -1.1666  0.1520  0.7343
16439TIP3    H270733   4.826   0.893  12.314 -0.1080  0.2374 -0.6638
16440TIP3   OH270734   0.891   3.687   5.895 -0.2644 -0.1858 -0.1389
16440TIP3    H170735   0.828   3.623   5.864 -1.0515 -0.5455  2.0522
16440TIP3    H270736   0.976   3.643   5.887 -0.5473 -0.6161 -0.8202
16441TIP3   OH270737   6.249   0.882  13.135 -0.9675 -0.1111  0.2822
16441TIP3    H170738   6.320   0.841  13.184 -1.6853  0.5818  1.9942
16441TIP3    H270739   6.213   0.947  13.196 -1.6777  1.0640 -1.3167
16442TIP3   OH270740   1.598   4.763   5.743  1.4206 -0.2262  0.8128
16442TIP3    H170741   1.562   4.718   5.667  2.9083 -1.4911  0.8099
16442TIP3    H270742   1.527   4.817   5.775  0.6466  0.0465 -1.2558
16443TIP3   OH270743   6.582   3.996   1.044  0.2137  0.3870 -0.5620
16443TIP3    H170744   6.638   4.042   1.106 -0.1209  2.0872 -1.4639
16443TIP3    H270745   6.520   4.062   1.015 -0.1311 -0.5774 -2.1138
16444TIP3   OH270746   0.692   6.317   0.306 -0.3844 -0.1580  0.5240
16444TIP3    H170747   0.692   6.354   0.218 -1.7284  1.2653  1.0668
16444TIP3    H270748   0.778   6.340   0.342 -1.4508  3.4670  1.1596
16445TIP3   OH270749   1.312   6.397   2.450  1.0354 -0.0850 -0.1166
16445TIP3    H170750   1.293   6.489   2.473 -0.2654 -0.5828  0.9440
16445TIP3    H270751   1.404   6.386   2.474  1.3616  1.0724 -0.7368
16446TIP3   OH270752   6.285   1.842   3.676 -0.4919 -0.0109 -0.1764
16446TIP3    H170753   6.364   1.853   3.623 -0.7446  0.4610 -0.4550
16446TIP3    H270754   6.213   1.846   3.613 -0.8082  0.7429  0.2192
16447TIP3   OH270755   3.932   0.296   0.937  0.3910  0.5734  0.8878
16447TIP3    H170756   3.889   0.234   0.997 -0.3520  1.6013  1.4540
16447TIP3    H270757   3.936   0.378   0.987  2.4293  0.6910  0.5910
16448TIP3   OH270758   1.381   2.118   4.816  0.1136 -0.0614  0.2295
16448TIP3    H170759   1.411   2.131   4.906  0.2743  1.6340 -0.0324
16448TIP3    H270760   1.300   2.167   4.810  0.3795  0.2832 -0.6952
16449TIP3   OH270761   2.111   3.760   2.685 -0.2935 -0.4515 -0.0397
16449TIP3    H170762   2.185   3.755   2.744 -0.5217  2.5752  0.6804
16449TIP3    H270763   2.034   3.753   2.741 -0.5070  0.7164 -0.1497
16450TIP3   OH270764   1.152   3.594   4.001  0.5634 -0.3906  0.0268
16450TIP3    H170765   1.193   3.678   3.981 -0.3677  0.5440  1.7839
16450TIP3    H270766   1.176   3.576   4.092 -1.1243 -0.8387  0.4300
16451TIP3   OH270767   0.292   6.561  15.482 -0.8801 -0.2220  0.5042
16451TIP3    H170768   0.213   6.551  15.536 -1.0705  0.0743  0.2816
16451TIP3    H270769   0.313   6.654  15.485 -0.0335 -0.4273  1.2613
16452TIP3   OH270770   2.386   3.571  16.161  0.1142 -0.2030 -0.0310
16452TIP3    H170771   2.442   3.501  16.128  0.9370 -0.0928  1.0526
16452TIP3    H270772   2.315   3.526  16.206 -0.3693 -0.3426 -0.9211
16453TIP3   OH270773   3.052   2.355   1.729 -0.0291 -0.0755 -0.8773
16453TIP3    H170774   2.987   2.417   1.762  0.7458  1.0523 -1.3837
16453TIP3    H270775   3.129   2.369   1.784 -0.7708 -2.7791  0.9969
16454TIP3   OH270776   2.162   2.425   5.642 -0.3841 -0.0367 -0.0902
16454TIP3    H170777   2.103   2.499   5.626  0.2762  0.9433  1.7540
16454TIP3    H270778   2.245   2.452   5.603  0.3669  1.0545  2.0711
16455TIP3   OH270779   4.300   0.545  11.802  0.0452  0.4591 -0.2521
16455TIP3    H170780   4.206   0.550  11.820  0.0713 -0.3836  0.1976
16455TIP3    H270781   4.309   0.470  11.744  0.6901 -1.1513  1.8105
16456TIP3   OH270782   4.075   1.645  12.191  0.6436 -0.2043 -0.1760
16456TIP3    H170783   3.990   1.678  12.163  1.1580  2.8819  1.4281
16456TIP3    H270784   4.136   1.674  12.123  0.7924  0.3162  0.1682
16457TIP3   OH270785   2.118   1.080   4.173 -0.5598 -0.3842 -0.3319
16457TIP3    H170786   2.050   1.108   4.235 -0.0482  0.6216 -0.2098
16457TIP3    H270787   2.172   1.019   4.223 -0.4352  0.0446  0.0662
16458TIP3   OH270788   4.098   1.743   1.504  0.0297  0.0098  0.7344
16458TIP3    H170789   4.033   1.758   1.435 -1.7337  2.5714  2.7630
16458TIP3    H270790   4.048   1.699   1.573  1.2586 -0.7044  1.1879
16459TIP3   OH270791   6.475   0.802  16.856  0.2542  0.1538  0.0519
16459TIP3    H170792   6.424   0.724  16.834  0.9292 -0.1679 -0.3929
16459TIP3    H270793   6.492   0.845  16.772 -1.9001  1.9406  0.4580
16460TIP3   OH270794   3.101   5.632   0.816 -0.5049 -0.0948 -0.2130
16460TIP3    H170795   3.024   5.579   0.798 -1.4432  1.3310 -0.5674
16460TIP3    H270796   3.068   5.703   0.872  0.5583  0.5121 -0.3342
16461TIP3   OH270797   2.693   4.914  11.606 -0.4110  0.5652 -0.3175
16461TIP3    H170798   2.645   4.899  11.688 -1.8824  2.5782 -0.7319
16461TIP3    H270799   2.765   4.972  11.630 -1.6938  2.3694 -0.6059
16462TIP3   OH270800   6.246   5.342  10.621  0.1734 -0.3106  0.2990
16462TIP3    H170801   6.310   5.413  10.614 -0.6230  0.4904  0.8959
16462TIP3    H270802   6.163   5.382  10.595 -0.1974 -1.1793  0.1100
16463TIP3   OH270803   5.009   5.720   0.205 -0.2445 -0.0237  0.6027
16463TIP3    H170804   5.012   5.788   0.138  2.9051  0.4860  1.0917
16463TIP3    H270805   5.002   5.768   0.287 -0.4135 -0.4325  0.8311
16464TIP3   OH270806   3.982   1.427   6.031  0.6157  0.6812 -0.4089
16464TIP3    H170807   3.931   1.407   6.109 -0.0606  0.8780 -0.7949
16464TIP3    H270808   3.924   1.480   5.977  1.0259  0.4254 -1.1116
16465TIP3   OH270809   5.048   6.224  16.019 -0.0003  0.1641 -0.9103
16465TIP3    H170810   5.098   6.143  16.020  0.5287  0.4852 -0.8528
16465TIP3    H270811   5.112   6.292  15.997 -0.0486  0.8049  0.7909
16466TIP3   OH270812   1.177   4.547  11.333  0.7595  0.7889 -0.2520
16466TIP3    H170813   1.207   4.621  11.280 -0.8920  1.5771 -0.1284
16466TIP3    H270814   1.168   4.583  11.421  0.7236  0.2155 -0.0164
16467TIP3   OH270815   1.207   0.465  13.174  0.1736  0.0023 -0.3096
16467TIP3    H170816   1.164   0.410  13.240  1.0124  0.5921  0.7653
16467TIP3    H270817   1.155   0.452  13.095 -0.7551 -0.8814  0.4106
16468TIP3   OH270818   3.391   6.099  13.832  0.6174 -0.0663  0.1103
16468TIP3    H170819   3.398   6.102  13.928  0.0429 -0.7465  0.1884
16468TIP3    H270820   3.357   6.011  13.814 -0.6969  0.5667 -0.6235
16469TIP3   OH270821   4.030   5.995  11.349 -0.2240 -0.3615  0.2411
16469TIP3    H170822   3.940   6.015  11.375  0.2267  1.4442  0.5732
16469TIP3    H270823   4.021   5.929  11.280 -1.7110 -1.2101  1.1988
16470TIP3   OH270824   5.668   1.411   5.755 -0.4722 -0.0641 -0.5996
16470TIP3    H170825   5.738   1.467   5.721 -1.3695  0.7417 -1.1263
16470TIP3    H270826   5.602   1.472   5.788 -0.4124 -0.8146  1.0020
16471TIP3   OH270827   1.986   5.820  16.161 -0.5074  0.0055 -0.2376
16471TIP3    H170828   1.931   5.845  16.087 -0.2309  1.3356 -0.0143
16471TIP3    H270829   1.968   5.727  16.173 -1.1464 -0.0560 -1.4718
16472TIP3   OH270830   0.320   4.978  15.750  0.1217  0.4765 -0.3752
16472TIP3    H170831   0.320   5.056  15.694 -0.3880 -0.1213 -1.2450
16472TIP3    H270832   0.295   4.907  15.691  1.2206 -0.4623  0.2566
16473TIP3   OH270833   0.011   5.490  12.937 -0.8560  0.0736 -0.3415
16473TIP3    H170834   0.029   5.542  12.858 -0.2392 -1.0559 -0.9780
16473TIP3    H270835   0.051   5.405  12.918 -2.1030 -0.7328  0.5431
16474TIP3   OH270836   2.350   2.325   1.266  0.0088  0.4729  0.3520
16474TIP3    H170837   2.432   2.375   1.267 -0.4415  1.2924 -1.2931
16474TIP3    H270838   2.377   2.235   1.248  0.5941  0.6229  0.4590
16475TIP3   OH270839   6.082   0.207  11.254 -0.4403 -0.2438 -0.2061
16475TIP3    H170840   6.040   0.247  11.331 -1.2984 -1.3649 -0.0583
16475TIP3    H270841   6.127   0.130  11.288  1.2399  0.5786 -0.4785
16476TIP3   OH270842   0.486   1.657  14.088 -0.2081  0.0547 -0.1316
16476TIP3    H170843   0.413   1.716  14.068 -0.8719 -1.2684 -1.8392
16476TIP3    H270844   0.562   1.697  14.047 -1.0637 -1.2694 -3.3010
16477TIP3   OH270845   1.096   3.778   0.286 -0.4547  0.0045 -0.0604
16477TIP3    H170846   1.110   3.688   0.258  0.9828  0.3536 -0.5169
16477TIP3    H270847   1.139   3.784   0.371 -4.0336 -0.8006  2.0415
16478TIP3   OH270848   1.283   1.024   0.529  0.4267 -0.2775  0.1982
16478TIP3    H170849   1.268   0.935   0.498  0.1253 -0.3340  0.5087
16478TIP3    H270850   1.201   1.050   0.570  0.5948  0.0530  0.3294
16479TIP3   OH270851   6.094   1.313   1.893 -0.0937  0.0196 -0.1964
16479TIP3    H170852   6.162   1.377   1.911 -0.3724  0.6272 -1.1689
16479TIP3    H270853   6.045   1.351   1.819 -1.5069 -0.3737  0.5034
16480TIP3   OH270854   5.613   6.367   1.830  0.1805  0.1657 -0.8258
16480TIP3    H170855   5.633   6.306   1.759  2.2769 -0.3198  0.0879
16480TIP3    H270856   5.581   6.312   1.901  0.8135  0.2717 -0.4477
16481TIP3   OH270857   3.682   1.735   1.825  0.3854 -0.1327  0.1702
16481TIP3    H170858   3.597   1.731   1.869  0.4483 -0.9739  0.2172
16481TIP3    H270859   3.739   1.679   1.877  0.6633 -0.5123 -0.5348
16482TIP3   OH270860   4.942   3.712   2.156  0.1763 -0.3990  0.8979
16482TIP3    H170861   4.889   3.783   2.121 -0.2232 -0.8332  0.6150
16482TIP3    H270862   5.003   3.691   2.085 -0.7605 -1.4090  0.3806
16483TIP3   OH270863   0.307   1.277   0.403 -0.5197  0.1887  0.7366
16483TIP3    H170864   0.232   1.283   0.463 -0.7495  1.2760  0.3642
16483TIP3    H270865   0.283   1.334   0.330 -0.2141 -1.0573 -0.3706
16484TIP3   OH270866   2.424   2.276   0.956 -0.3182 -0.5178 -0.5238
16484TIP3    H170867   2.415   2.305   1.047 -0.1742  0.8073 -0.9163
16484TIP3    H270868   2.495   2.329   0.921 -1.1386 -0.1961 -1.7411
16485TIP3   OH270869   1.370   2.469   4.064  0.2324 -0.7149 -0.4783
16485TIP3    H170870   1.416   2.387   4.080  0.5226 -0.2141  1.5065
16485TIP3    H270871   1.277   2.446   4.073 -0.2169 -1.9510 -5.5012
16486TIP3   OH270872   4.166   2.058  12.811  0.2732  0.5912 -0.0393
16486TIP3    H170873   4.086   2.065  12.864  0.9883  0.8758  1.0475
16486TIP3    H270874   4.143   2.100  12.728 -0.3088  1.9253  0.7469
16487TIP3   OH270875   3.586   4.560   5.257  0.2636  0.0769 -0.0660
16487TIP3    H170876   3.680   4.545   5.269  0.0895  0.6655  2.8968
16487TIP3    H270877   3.545   4.485   5.299 -0.6213 -0.1990 -1.3830
16488TIP3   OH270878   6.074   3.403   3.855  0.0197 -0.0216  0.5321
16488TIP3    H170879   5.988   3.390   3.815 -0.2134 -0.8953  1.2945
16488TIP3    H270880   6.119   3.463   3.795 -1.3229  0.9395  0.4162
16489TIP3   OH270881   0.778   2.151  15.865 -0.2433 -0.3880 -0.0098
16489TIP3    H170882   0.737   2.214  15.925  0.2326 -1.2349  1.2364
16489TIP3    H270883   0.711   2.084  15.853  0.3100 -1.1609  1.0746
16490TIP3   OH270884   3.889   0.447  10.501 -0.2940  0.2535  0.5588
16490TIP3    H170885   3.797   0.457  10.476 -0.2325 -1.7217 -0.7104
16490TIP3    H270886   3.887   0.379  10.569  0.2120  0.1675  0.4876
16491TIP3   OH270887   4.015   6.394  15.305 -0.0418  0.0034  0.0306
16491TIP3    H170888   4.032   6.302  15.321 -0.4597 -0.0496  0.1723
16491TIP3    H270889   3.968   6.396  15.222 -2.3453 -0.1370  1.2690
16492TIP3   OH270890   3.673   5.859   0.587 -0.5581  0.3306  0.2911
16492TIP3    H170891   3.720   5.779   0.562 -0.0183  1.1302 -1.4484
16492TIP3    H270892   3.641   5.842   0.675 -2.6755 -2.8175 -0.9248
16493TIP3   OH270893   1.725   6.734   0.270  0.4864  0.4110 -0.2278
16493TIP3    H170894   1.813   6.772   0.272  1.5126 -1.7919 -0.3063
16493TIP3    H270895   1.710   6.704   0.359 -0.8920  2.1185  0.1748
16494TIP3   OH270896   0.561   5.997  11.266  0.0779 -0.5992  0.0718
16494TIP3    H170897   0.542   6.088  11.243  1.8268 -0.1250  0.3919
16494TIP3    H270898   0.549   5.949  11.184  0.4849  0.1298 -0.4224
16495TIP3   OH270899   0.011   5.211   1.630  0.1631 -0.1332  0.3567
16495TIP3    H170900   0.026   5.298   1.668 -2.5861  0.7625 -0.3111
16495TIP3    H270901  -0.038   5.164   1.698  2.2848 -1.5095  1.0145
16496TIP3   OH270902   1.629   0.593  16.235 -0.4952  0.4470  0.0506
16496TIP3    H170903   1.585   0.677  16.229  0.0699  0.6492 -1.8038
16496TIP3    H270904   1.609   0.549  16.152 -0.3151 -1.0167  0.7464
16497TIP3   OH270905   4.085   0.574  10.657 -0.3855 -0.4094  0.5646
16497TIP3    H170906   4.017   0.560  10.591  0.0220 -1.7131  0.3910
16497TIP3    H270907   4.108   0.486  10.687  1.9118 -0.1108 -0.0973
16498TIP3   OH270908   4.145   5.300  16.262  0.4566  0.3726 -0.0307
16498TIP3    H170909   4.113   5.389  16.282 -0.9677  0.1524 -1.1653
16498TIP3    H270910   4.114   5.247  16.335 -0.9798  0.3496 -0.6302
16499TIP3   OH270911   5.327   0.362  11.424 -0.3818  0.4066 -0.2837
16499TIP3    H170912   5.413   0.397  11.448 -0.9228  1.7341 -0.1704
16499TIP3    H270913   5.346   0.279  11.380  1.0324  1.1577 -1.1792
16500TIP3   OH270914   0.370   4.349   2.479 -0.0550 -0.0343 -0.2352
16500TIP3    H170915   0.338   4.437   2.457  0.3247 -0.2709 -1.8433
16500TIP3    H270916   0.293   4.305   2.515 -0.3489  0.8296  0.2398
16501TIP3   OH270917   2.687   4.661   5.444 -0.0745 -0.0539 -0.2062
16501TIP3    H170918   2.710   4.716   5.519  2.0917 -0.5747 -0.4080
16501TIP3    H270919   2.633   4.591   5.480  1.9142 -0.9787  1.1812
16502TIP3   OH270920   3.570   6.768  16.451 -0.7349 -0.7020 -0.3701
16502TIP3    H170921   3.549   6.847  16.501  2.2911 -0.2392  0.3758
16502TIP3    H270922   3.645   6.793  16.397 -0.1953 -2.8312 -0.7087
16503TIP3   OH270923   6.043   0.962  11.487  0.1405 -0.4735  0.1977
16503TIP3    H170924   6.106   0.914  11.433  0.3857 -0.0399  0.0906
16503TIP3    H270925   6.025   0.904  11.561 -1.2970 -1.6992 -1.0458
16504TIP3   OH270926   5.560   5.362   2.771  0.0372 -0.4358  0.5990
16504TIP3    H170927   5.601   5.278   2.752  1.3121  0.7102 -2.3495
16504TIP3    H270928   5.634   5.423   2.781 -0.8742  0.5124  1.9017
16505TIP3   OH270929   4.559   1.549  12.967 -0.6731  0.2132  0.6051
16505TIP3    H170930   4.559   1.594  13.052  0.8273  0.7001  0.3848
16505TIP3    H270931   4.627   1.482  12.976 -2.2402 -1.4503  0.6122
16506TIP3   OH270932   5.572   3.042   2.414 -0.5752 -0.7981  0.6630
16506TIP3    H170933   5.501   2.982   2.391  1.3619 -2.8507 -0.3046
16506TIP3    H270934   5.624   2.994   2.478 -0.6730  1.1902  2.3600
16507TIP3   OH270935   3.140   0.591   4.102 -0.2912  0.4758 -0.0841
16507TIP3    H170936   3.133   0.500   4.073 -0.1564  0.2669  0.5440
16507TIP3    H270937   3.104   0.642   4.028 -0.9685 -0.1202 -0.1770
16508TIP3   OH270938   3.451   4.783  15.915 -0.4575  0.2297 -0.0712
16508TIP3    H170939   3.384   4.743  15.860 -0.5577  0.2528  0.0318
16508TIP3    H270940   3.532   4.774  15.866 -0.4629 -0.1842 -0.0111
16509TIP3   OH270941   5.785   4.433   0.776  0.1343  0.0240 -0.1131
16509TIP3    H170942   5.742   4.486   0.844  0.5611 -2.4078  2.2020
16509TIP3    H270943   5.722   4.432   0.704 -1.7162  0.2680  1.4105
16510TIP3   OH270944   0.120   5.549  15.040  0.6322 -0.1295 -0.2951
16510TIP3    H170945   0.153   5.599  15.115  0.3871  2.1305 -1.6186
16510TIP3    H270946   0.039   5.510  15.072  0.6640  0.5644  0.6861
16511TIP3   OH270947   2.961   5.823  11.405  0.2847 -0.2742  0.3454
16511TIP3    H170948   2.970   5.728  11.403  0.6689 -0.2409  0.3903
16511TIP3    H270949   2.970   5.845  11.498  0.9238 -0.1279  0.2500
16512TIP3   OH270950   2.749   2.481   2.707  0.0342 -0.0578  0.0042
16512TIP3    H170951   2.739   2.408   2.768  1.2159  0.1109  0.4235
16512TIP3    H270952   2.664   2.488   2.664 -0.2432 -1.3847  0.2872
16513TIP3   OH270953   2.620   4.282  12.346 -0.2491  0.1383  0.1578
16513TIP3    H170954   2.692   4.222  12.330 -1.9445 -2.1150  0.4574
16513TIP3    H270955   2.592   4.262  12.436  0.7757  3.3160  1.3419
16514TIP3   OH270956   4.530   4.536   5.275 -0.4502 -0.0373 -0.0964
16514TIP3    H170957   4.614   4.575   5.298 -0.1660  0.0053 -1.1370
16514TIP3    H270958   4.476   4.548   5.353 -0.0277  1.4540  0.0142
16515TIP3   OH270959   0.997   1.261  12.472 -0.0961  0.2393 -0.0975
16515TIP3    H170960   0.905   1.254  12.445  0.0559 -1.0041 -0.3569
16515TIP3    H270961   0.995   1.242  12.566 -0.0534 -0.3369 -0.2072
16516TIP3   OH270962   3.810   3.208   2.812  0.0859 -0.2298 -0.4173
16516TIP3    H170963   3.809   3.268   2.887  1.0814 -0.6438 -0.0483
16516TIP3    H270964   3.867   3.136   2.840 -1.3821 -1.5482 -0.7132
16517TIP3   OH270965   2.755   2.017   1.278  0.0224 -0.2066  0.1994
16517TIP3    H170966   2.745   2.089   1.340  0.6658  0.2295 -0.1797
16517TIP3    H270967   2.831   2.042   1.225 -0.3219 -0.7128 -0.5574
16518TIP3   OH270968   6.514   5.163   2.720  0.5654 -0.5180  0.3762
16518TIP3    H170969   6.506   5.073   2.690  0.7817  0.3632 -2.6691
16518TIP3    H270970   6.541   5.155   2.812 -0.9154 -3.4907  0.6805
16519TIP3   OH270971   2.450   2.347  14.072  0.3059 -0.0119  0.5082
16519TIP3    H170972   2.419   2.406  14.141  0.8816 -0.9627  1.6263
16519TIP3    H270973   2.431   2.259  14.106  3.7082 -0.6523  1.0707
16520TIP3   OH270974   3.272   0.013   0.752 -0.1551 -0.8249 -0.3689
16520TIP3    H170975   3.210   0.081   0.723  0.3842 -0.2629 -0.2158
16520TIP3    H270976   3.286   0.031   0.845  1.1072 -0.2462 -0.6522
16521TIP3   OH270977   4.627   1.478   5.233  0.1456 -0.4516  0.5553
16521TIP3    H170978   4.584   1.543   5.289 -0.1289 -0.0792 -0.0844
16521TIP3    H270979   4.670   1.419   5.295 -0.1247 -0.0267  1.1628
16522TIP3   OH270980   4.149   2.250   6.365 -0.4710  0.1019  0.0863
16522TIP3    H170981   4.078   2.292   6.412 -0.7006 -0.8997  0.6762
16522TIP3    H270982   4.143   2.283   6.276 -1.8525 -0.1918  0.0601
16523TIP3   OH270983   1.115   3.239  11.093 -0.8093  0.1761  0.2828
16523TIP3    H170984   1.040   3.289  11.061 -0.2548 -0.0194 -1.4221
16523TIP3    H270985   1.191   3.283  11.054 -0.1040 -0.2168  1.1868
16524TIP3   OH270986   1.648   5.998   3.222  0.6571 -0.3322 -0.6288
16524TIP3    H170987   1.609   5.919   3.260  0.6910 -0.2190 -0.3620
16524TIP3    H270988   1.642   5.984   3.127 -2.0203  0.6201 -0.6909
16525TIP3   OH270989   5.640   2.844  14.242  0.3982  0.3132 -0.1837
16525TIP3    H170990   5.591   2.915  14.284 -0.0542 -0.3474  0.4274
16525TIP3    H270991   5.731   2.870  14.250  0.2465  0.7688  0.1266
16526TIP3   OH270992   6.120   5.011  14.670  0.1031 -0.2890  0.0625
16526TIP3    H170993   6.131   4.921  14.700 -1.4490 -0.8244 -0.8516
16526TIP3    H270994   6.120   5.005  14.575  1.4886  0.9170 -0.0606
16527TIP3   OH270995   1.871   4.225  14.102 -0.3489 -0.0466  0.0744
16527TIP3    H170996   1.795   4.210  14.047  0.1106 -1.6746 -0.1597
16527TIP3    H270997   1.865   4.159  14.171  1.3140 -0.8363 -0.4748
16528TIP3   OH270998   2.189   4.420   5.253  0.1973 -0.1846  0.3306
16528TIP3    H170999   2.258   4.438   5.316 -0.1651  2.6217  0.0511
16528TIP3    H271000   2.108   4.438   5.300 -0.0897  1.5306 -0.7252
16529TIP3   OH271001   4.990   2.512   1.773  0.4205 -0.2973 -0.6273
16529TIP3    H171002   4.988   2.455   1.696  0.6709 -1.6506  0.3337
16529TIP3    H271003   5.051   2.582   1.749  2.2833 -1.9142 -0.8627
16530TIP3   OH271004   1.975   6.577   2.799 -0.2575 -0.1012  0.9248
16530TIP3    H171005   2.036   6.521   2.751  2.1681  1.3418  2.1591
16530TIP3    H271006   1.895   6.524   2.807  0.4236 -1.6876 -1.6062
16531TIP3   OH271007   3.525   2.221   2.268  0.2472 -0.4515  0.1777
16531TIP3    H171008   3.500   2.213   2.360  0.0124  0.6210  0.2245
16531TIP3    H271009   3.620   2.209   2.267  0.3399  0.2022  0.6566
16532TIP3   OH271010   5.961   3.970  13.654  0.3929 -0.6842 -0.1743
16532TIP3    H171011   5.870   4.001  13.655 -0.0149 -1.7914  1.6241
16532TIP3    H271012   5.956   3.885  13.610  0.4840 -0.9205  0.2693
16533TIP3   OH271013   0.397   1.022   1.131 -0.1171 -0.2970 -0.3593
16533TIP3    H171014   0.304   1.042   1.125 -0.0972 -0.0180  0.1816
16533TIP3    H271015   0.438   1.103   1.159  0.1624 -0.6661  0.3290
16534TIP3   OH271016   4.929   2.391   3.953 -0.2728 -0.5473 -0.1940
16534TIP3    H171017   4.940   2.388   4.048 -1.5252  0.0317 -0.0188
16534TIP3    H271018   4.901   2.480   3.934  0.5685 -0.4702 -1.1903
16535TIP3   OH271019   0.871   2.410  14.441 -0.2138  0.3501 -0.3580
16535TIP3    H171020   0.781   2.409  14.408 -0.1249  1.9012 -0.7388
16535TIP3    H271021   0.919   2.464  14.378  0.4944  1.3580  0.9801
16536TIP3   OH271022   2.161   3.635  15.937  0.9267 -0.1673  0.1343
16536TIP3    H171023   2.099   3.675  15.876  1.3281 -0.0645 -0.2012
16536TIP3    H271024   2.246   3.671  15.914  1.0498  0.0854  0.9272
16537TIP3   OH271025   6.257   2.576  10.648  0.0632  0.5528  0.0913
16537TIP3    H171026   6.172   2.540  10.674 -0.0908  1.4374  0.8694
16537TIP3    H271027   6.283   2.523  10.573 -0.6245 -0.5003  0.5602
16538TIP3   OH271028   4.756   5.467   2.474  0.1091  0.1065  0.7032
16538TIP3    H171029   4.697   5.542   2.477 -0.5392 -0.2618 -1.4782
16538TIP3    H271030   4.698   5.391   2.464  0.8859 -0.2600 -1.5305
16539TIP3   OH271031   6.263   4.841   1.833 -0.2407 -0.3002  0.0570
16539TIP3    H171032   6.280   4.910   1.897  0.2923  1.1148 -1.5358
16539TIP3    H271033   6.339   4.783   1.841 -0.9341 -1.0506  1.7624
16540TIP3   OH271034   1.762   2.852  16.394  0.6091  0.0938 -0.7327
16540TIP3    H171035   1.778   2.938  16.433  1.8711 -0.4478  0.0032
16540TIP3    H271036   1.669   2.851  16.375  0.1948  0.8897  1.0755
16541TIP3   OH271037   2.755   4.964  10.836  0.4158  0.0963  0.2002
16541TIP3    H171038   2.784   4.953  10.926 -0.7360  0.3945  0.6206
16541TIP3    H271039   2.830   4.937  10.783  0.8521 -0.7754  1.2363
16542TIP3   OH271040   4.241   4.201   0.734  0.0356  0.3852 -0.3636
16542TIP3    H171041   4.162   4.255   0.738 -0.5964 -0.5573  0.4009
16542TIP3    H271042   4.295   4.233   0.806 -0.5870 -0.3427  0.4520
16543TIP3   OH271043   2.633   5.300  16.556  0.3227 -0.0990 -0.1706
16543TIP3    H171044   2.643   5.213  16.516  1.7338  0.3400 -0.8523
16543TIP3    H271045   2.714   5.314  16.605 -0.8582 -0.0938  1.8946
16544TIP3   OH271046   5.587   2.629   0.850  0.1443 -0.0166  0.4462
16544TIP3    H171047   5.535   2.553   0.873  0.8207 -0.6873 -0.2001
16544TIP3    H271048   5.678   2.601   0.865  0.4976  0.1366 -1.2215
16545TIP3   OH271049   3.270   3.010  12.765 -0.3681  0.3861 -0.7701
16545TIP3    H171050   3.203   3.074  12.741 -0.2496  0.7380 -0.1700
16545TIP3    H271051   3.313   3.047  12.842 -0.9878 -0.8776  0.2248
16546TIP3   OH271052   2.450   1.944   0.394 -0.3219  0.0732  0.4803
16546TIP3    H171053   2.437   1.869   0.336  0.1756 -0.1604  0.6628
16546TIP3    H271054   2.470   1.905   0.479 -0.5415  0.4148  0.6916
16547TIP3   OH271055   5.666   5.801   4.274 -0.3024  0.0741 -0.2189
16547TIP3    H171056   5.642   5.855   4.349  0.5511  0.2133 -0.0372
16547TIP3    H271057   5.647   5.711   4.302 -0.4579  0.1702 -0.0171
16548TIP3   OH271058   3.545   6.347   6.875 -0.2935  0.2542  0.6730
16548TIP3    H171059   3.604   6.283   6.915  0.3785  0.7699  0.5324
16548TIP3    H271060   3.498   6.299   6.807  1.7063  0.3555 -0.8660
16549TIP3   OH271061   3.073   0.793   2.197 -0.3032 -0.2445  0.1079
16549TIP3    H171062   3.044   0.820   2.110  0.8753 -0.4856 -0.3721
16549TIP3    H271063   3.059   0.871   2.251 -0.6670  0.0388 -0.3807
16550TIP3   OH271064   5.727   1.462  13.915 -0.5275  0.2115  0.1917
16550TIP3    H171065   5.761   1.397  13.976  0.9863  1.0170  0.2406
16550TIP3    H271066   5.804   1.506  13.880 -1.3639 -0.0662 -2.1558
16551TIP3   OH271067   1.719   0.610   1.742  0.7882 -0.0080 -0.3165
16551TIP3    H171068   1.627   0.628   1.762  1.1760 -0.2058  1.9427
16551TIP3    H271069   1.716   0.547   1.670 -0.9652 -2.0649  1.3994
16552TIP3   OH271070   1.776   0.120   4.476  0.5232 -0.0009  0.5561
16552TIP3    H171071   1.817   0.040   4.442 -0.2048 -0.4385  0.6971
16552TIP3    H271072   1.813   0.130   4.564  1.1758  0.2342  0.2609
16553TIP3   OH271073   5.516   4.703  14.504 -0.6863  0.4488 -0.0068
16553TIP3    H171074   5.610   4.705  14.487 -0.5120 -0.6232  0.7239
16553TIP3    H271075   5.480   4.650  14.432 -0.4578 -0.8101  0.7841
16554TIP3   OH271076   3.935   1.419  12.893  0.2847  0.3068 -0.0165
16554TIP3    H171077   3.882   1.426  12.813  0.2445  0.6406  0.0365
16554TIP3    H271078   3.886   1.359  12.949  0.3058  0.0823 -0.2387
16555TIP3   OH271079   3.840   2.119  13.133  0.7654 -0.6435 -0.0193
16555TIP3    H171080   3.840   2.214  13.148  0.2153 -0.4026 -1.3723
16555TIP3    H271081   3.747   2.097  13.122  0.7211 -1.6426  1.8578
16556TIP3   OH271082   2.769   3.414   5.698  0.5863 -0.1842  0.1831
16556TIP3    H171083   2.864   3.424   5.699  0.5118  0.6962 -0.6147
16556TIP3    H271084   2.755   3.319   5.697  1.4991 -0.3358 -1.3290
16557TIP3   OH271085   3.065   4.032   0.834 -0.2704 -0.1614  0.1348
16557TIP3    H171086   3.155   4.004   0.817  0.3233 -1.0131  3.7675
16557TIP3    H271087   3.021   3.953   0.865 -2.8358 -0.1237 -2.9547
16558TIP3   OH271088   3.321   2.805  15.467 -0.2652  0.3086  0.0318
16558TIP3    H171089   3.400   2.842  15.428 -0.7282 -0.8234 -2.0960
16558TIP3    H271090   3.251   2.867  15.446 -0.7247 -0.8452 -2.0374
16559TIP3   OH271091   3.303   3.214  14.359 -0.0485 -0.1707 -0.3037
16559TIP3    H171092   3.219   3.178  14.386  0.2754  0.2840  1.4768
16559TIP3    H271093   3.313   3.293  14.413  0.5105  1.0487 -2.0997
16560TIP3   OH271094   0.152   3.206  15.707  0.5470  0.8114  0.0661
16560TIP3    H171095   0.089   3.257  15.657  0.9557  1.5272  0.2540
16560TIP3    H271096   0.147   3.118  15.671 -1.2365  0.6212  0.7209
16561TIP3   OH271097   6.168   2.471   5.779 -0.0323 -0.4704  0.0586
16561TIP3    H171098   6.169   2.542   5.716 -1.2760 -0.8915 -0.4748
16561TIP3    H271099   6.164   2.515   5.864  1.9644  0.1019 -0.0943
16562TIP3   OH271100   3.050   3.300   4.511  0.2632 -0.8711  0.3139
16562TIP3    H171101   2.966   3.323   4.473 -0.2303 -1.1027  1.2284
16562TIP3    H271102   3.044   3.206   4.529  0.6500 -0.8584  0.5257
16563TIP3   OH271103   5.331   5.024   1.519  0.9420  0.5978 -0.4860
16563TIP3    H171104   5.293   4.938   1.536 -1.1139  1.0834 -2.1739
16563TIP3    H271105   5.425   5.008   1.515  0.7142 -1.3169  0.4966
16564TIP3   OH271106   1.850   0.175   2.742 -0.4887  0.2356  0.2144
16564TIP3    H171107   1.913   0.135   2.801  2.2640  1.4600 -1.6929
16564TIP3    H271108   1.833   0.261   2.779 -2.3191 -0.6182  1.5134
16565TIP3   OH271109   0.710   2.908  15.978  0.4538  0.0224  0.2331
16565TIP3    H171110   0.642   2.958  15.932 -0.9187 -0.1396  1.9794
16565TIP3    H271111   0.792   2.946  15.946 -0.3807  0.0020 -2.2037
16566TIP3   OH271112   0.694   0.959  13.827  0.0151  0.7561  0.4005
16566TIP3    H171113   0.757   1.013  13.780  1.6584 -0.5976  0.9265
16566TIP3    H271114   0.615   1.013  13.835  0.2377  1.6187 -2.4251
16567TIP3   OH271115   6.142   2.395  13.103 -0.4179 -0.1704  0.2203
16567TIP3    H171116   6.193   2.475  13.116 -2.2704  1.2343 -0.6447
16567TIP3    H271117   6.117   2.368  13.191  0.5006 -0.0061  0.5443
16568TIP3   OH271118   1.206   1.930  15.091  0.7652  0.0161  0.3740
16568TIP3    H171119   1.292   1.965  15.066 -0.0881  0.4101 -2.3432
16568TIP3    H271120   1.219   1.835  15.095  1.0041 -0.0714 -1.6666
16569TIP3   OH271121   2.230   2.197   0.779  0.3385  0.1945 -0.3102
16569TIP3    H171122   2.147   2.195   0.827  0.5024 -0.8356 -0.0367
16569TIP3    H271123   2.291   2.242   0.838  0.1426  0.3364 -0.2167
16570TIP3   OH271124   4.873   2.754   5.589  0.2799  1.0342 -0.2885
16570TIP3    H171125   4.941   2.773   5.524  1.2761  0.5655  0.5997
16570TIP3    H271126   4.910   2.785   5.672 -1.2264  2.2056 -0.0001
16571TIP3   OH271127   1.419   1.184   5.351 -0.2702 -0.1353 -0.4059
16571TIP3    H171128   1.388   1.176   5.261 -0.4682 -0.8773 -0.2751
16571TIP3    H271129   1.358   1.131   5.402 -1.0512  1.4399  0.3816
16572TIP3   OH271130   5.843   1.540  13.032  0.4936  0.0108  0.3048
16572TIP3    H171131   5.868   1.488  12.956 -0.4861 -1.7583  1.1498
16572TIP3    H271132   5.880   1.494  13.107  0.8102  1.3152  0.9793
16573TIP3   OH271133   4.028   3.068   2.912 -0.5511 -0.5132  0.2547
16573TIP3    H171134   4.017   3.000   2.978 -1.1963 -0.7679 -0.1056
16573TIP3    H271135   4.109   3.044   2.867 -0.4760 -0.7277  0.5003
16574TIP3   OH271136   1.926   3.685  12.722 -0.3806 -0.4557 -0.0159
16574TIP3    H171137   1.911   3.591  12.715  0.6191 -0.5456 -1.6044
16574TIP3    H271138   1.907   3.707  12.813  0.2470 -2.3556  0.6059
16575TIP3   OH271139   2.014   2.487   3.888 -0.3054  0.0190  0.1897
16575TIP3    H171140   1.919   2.473   3.885 -0.3977  0.6172  0.1772
16575TIP3    H271141   2.027   2.571   3.844  0.1645  0.2721  0.8012
16576TIP3   OH271142   2.697   3.961   0.408 -0.2209 -0.2441  0.4208
16576TIP3    H171143   2.743   3.948   0.491 -1.1451 -2.1452  0.6781
16576TIP3    H271144   2.762   3.943   0.341  0.4109  0.8720  0.7038
16577TIP3   OH271145   1.815   4.765   0.841  0.1669 -0.0167  0.6524
16577TIP3    H171146   1.864   4.809   0.771  1.9970 -0.9957  1.2361
16577TIP3    H271147   1.774   4.690   0.798  0.6307 -0.1661  0.4611
16578TIP3   OH271148   4.915   2.084  11.633  0.9325 -0.1196  0.1182
16578TIP3    H171149   4.996   2.071  11.584  1.0799  1.1418  0.0083
16578TIP3    H271150   4.870   2.155  11.587  0.4046  0.1210  0.9874
16579TIP3   OH271151   1.649   4.261   2.755  0.3087  0.0635  0.0233
16579TIP3    H171152   1.592   4.337   2.769 -0.3749 -0.1966 -1.2089
16579TIP3    H271153   1.735   4.290   2.787 -0.4354  0.5275  1.7415
16580TIP3   OH271154   4.501   6.196   4.894 -0.3851  0.7194  0.3040
16580TIP3    H171155   4.466   6.112   4.924  0.1336  0.6155  0.6442
16580TIP3    H271156   4.554   6.173   4.817 -2.7004  1.1387 -1.5213
16581TIP3   OH271157   2.795   5.512  13.671  0.1166 -0.3981 -0.1511
16581TIP3    H171158   2.728   5.504  13.738 -0.4278  0.6370 -0.5520
16581TIP3    H271159   2.857   5.576  13.706 -0.4440  0.5509 -0.8141
16582TIP3   OH271160   2.047   3.753   2.019 -0.3700  0.5601  0.3834
16582TIP3    H171161   1.961   3.716   2.036  0.1255 -0.5914  0.5199
16582TIP3    H271162   2.095   3.744   2.101  1.0016 -2.1226 -0.5861
16583TIP3   OH271163   2.845   5.172  11.647 -0.2107 -0.5245 -0.4496
16583TIP3    H171164   2.790   5.204  11.576  0.8091  1.4328 -0.4356
16583TIP3    H271165   2.826   5.231  11.720 -1.0011 -2.3018  0.8476
16584TIP3   OH271166   1.161   3.241   3.189  0.1587 -0.2514  0.5462
16584TIP3    H171167   1.184   3.176   3.123 -0.1078  0.3234 -0.1309
16584TIP3    H271168   1.225   3.311   3.177 -0.4171  0.2447  0.3080
16585TIP3   OH271169   2.882   0.398  12.901 -0.1045 -0.4503  0.6519
16585TIP3    H171170   2.850   0.339  12.969  0.4094 -1.7117 -0.1522
16585TIP3    H271171   2.886   0.343  12.822 -0.0244  0.7833 -0.2335
16586TIP3   OH271172   4.704   2.463   3.618 -0.3128 -0.1169 -0.2562
16586TIP3    H171173   4.728   2.555   3.606 -0.2507 -0.0258  0.4930
16586TIP3    H271174   4.776   2.414   3.579 -0.0943  0.1545 -0.1996
16587TIP3   OH271175   6.477   1.147  16.364 -0.2047 -0.4722  0.1077
16587TIP3    H171176   6.538   1.154  16.291 -0.0268 -2.7142 -0.0270
16587TIP3    H271177   6.521   1.192  16.436  0.0158  0.9878 -0.8883
16588TIP3   OH271178   2.896   1.038  14.583  0.0329  0.1542  0.2445
16588TIP3    H171179   2.926   0.960  14.536  2.8255  1.0395  0.4196
16588TIP3    H271180   2.922   1.112  14.528 -0.1083  1.0763  1.3691
16589TIP3   OH271181   2.278   1.533  15.924 -0.1867  0.4942 -0.0028
16589TIP3    H171182   2.358   1.586  15.923 -0.2079  0.5562  1.1472
16589TIP3    H271183   2.301   1.456  15.976 -0.2710 -0.4848 -1.3497
16590TIP3   OH271184   0.634   6.142   5.673  0.0199  0.4353 -0.3502
16590TIP3    H171185   0.655   6.135   5.766  2.6449  0.6335 -0.8679
16590TIP3    H271186   0.663   6.059   5.635  1.0894  1.2095 -1.3089
16591TIP3   OH271187   0.005   3.420  13.265  0.3677  0.2640  0.1623
16591TIP3    H171188   0.024   3.339  13.217  0.7498  0.2145  0.3828
16591TIP3    H271189   0.068   3.483  13.231 -0.1632  0.5683 -0.2545
16592TIP3   OH271190   6.259   3.185   1.060  0.0709 -0.5215 -0.0963
16592TIP3    H171191   6.330   3.190   1.124 -0.0848  0.2433  0.0211
16592TIP3    H271192   6.181   3.212   1.108  0.1361  1.1284 -0.8826
16593TIP3   OH271193   3.581   6.294   1.621 -0.3152 -0.5474  0.1707
16593TIP3    H171194   3.569   6.252   1.706 -3.4132  2.4420  1.4471
16593TIP3    H271195   3.498   6.338   1.604  0.7339  0.3404 -3.7184
16594TIP3   OH271196   4.567   4.375   0.264 -0.1502  0.2257  0.7998
16594TIP3    H171197   4.581   4.284   0.289 -0.3057  0.1513  0.6253
16594TIP3    H271198   4.592   4.426   0.341  0.3599  0.0622  0.7425
16595TIP3   OH271199   0.491   2.761   6.185 -0.2812  1.2944  0.0025
16595TIP3    H171200   0.511   2.793   6.097 -1.9583 -0.4822 -1.0995
16595TIP3    H271201   0.570   2.714   6.212  0.5617  2.5479 -0.1393
16596TIP3   OH271202   6.285   2.175  15.440 -0.3687 -0.0532  0.5612
16596TIP3    H171203   6.219   2.105  15.440 -1.4465  0.9042 -0.4987
16596TIP3    H271204   6.261   2.230  15.514 -1.1896  0.6352 -0.1866
16597TIP3   OH271205   6.541   6.111   2.302  0.6894 -0.0107 -0.1918
16597TIP3    H171206   6.570   6.026   2.335 -0.2071  0.0840  0.9094
16597TIP3    H271207   6.573   6.174   2.367  1.2840  0.4969 -0.9608
16598TIP3   OH271208   0.235   4.136  13.942  0.6001 -0.1123  0.2549
16598TIP3    H171209   0.179   4.159  13.868 -0.0058 -0.0461  0.7167
16598TIP3    H271210   0.200   4.188  14.015  0.9094 -0.4916  0.6810
16599TIP3   OH271211   1.049   3.945   1.651 -0.3306  0.5533  0.0857
16599TIP3    H171212   0.971   4.000   1.661  0.4686  2.0995 -1.5208
16599TIP3    H271213   1.054   3.930   1.556  1.0103  0.0295  0.2325
16600TIP3   OH271214   0.708   4.222  11.584  0.2892 -0.1567  0.7063
16600TIP3    H171215   0.691   4.167  11.660  0.3520 -0.3434  0.5839
16600TIP3    H271216   0.639   4.201  11.522  0.0796  0.1939  0.8188
16601TIP3   OH271217   4.260   5.599  14.902 -0.0747  0.3829 -0.1020
16601TIP3    H171218   4.315   5.611  14.979  0.5822  0.2024 -0.5417
16601TIP3    H271219   4.276   5.509  14.874  1.4497  1.1148 -1.7930
16602TIP3   OH271220   3.610   5.350   4.894  0.3053 -0.2629 -0.4840
16602TIP3    H171221   3.565   5.268   4.914  0.0558 -0.1366 -0.5226
16602TIP3    H271222   3.564   5.384   4.817  0.1115  0.1382 -0.1972
16603TIP3   OH271223   1.587   1.902   0.985  0.2870  0.6404  0.0363
16603TIP3    H171224   1.639   1.823   0.969 -0.0508  0.5122 -0.4139
16603TIP3    H271225   1.584   1.947   0.901  1.7166  1.8920  0.5978
16604TIP3   OH271226   5.260   2.947   6.059  0.2011  0.2702  0.4454
16604TIP3    H171227   5.284   2.903   6.140  1.7139  0.1873 -0.0175
16604TIP3    H271228   5.271   2.881   5.991 -0.4359  0.5230  0.0832
16605TIP3   OH271229   0.737   2.365   3.656  0.1348  0.1665 -0.4609
16605TIP3    H171230   0.651   2.329   3.633  0.1041  0.1408 -0.3094
16605TIP3    H271231   0.798   2.294   3.638 -0.1948 -0.9675  2.3282
16606TIP3   OH271232   1.064   1.108   3.718 -0.0703 -0.0794 -0.1549
16606TIP3    H171233   1.092   1.017   3.726 -0.3139 -0.2731 -1.2487
16606TIP3    H271234   1.132   1.150   3.665 -0.5410  0.0702 -0.6632
16607TIP3   OH271235   2.528   2.462  15.643 -0.4625 -0.1902  0.0925
16607TIP3    H171236   2.569   2.375  15.652  1.9949  0.9960  1.6150
16607TIP3    H271237   2.579   2.505  15.574 -0.4983  0.6197  0.5591
16608TIP3   OH271238   1.332   4.461  11.767  0.0171 -0.2227  0.2359
16608TIP3    H171239   1.304   4.395  11.832  0.5969 -0.5220  0.1865
16608TIP3    H271240   1.360   4.536  11.820  0.3701 -0.4196  0.3361
16609TIP3   OH271241   0.541   2.640   1.561  0.0258  0.0039  0.5034
16609TIP3    H171242   0.538   2.602   1.474  2.5620  2.4300 -0.7941
16609TIP3    H271243   0.451   2.635   1.593 -0.6343 -2.5178 -1.4756
16610TIP3   OH271244   4.363   0.459  13.693  0.4983 -0.3238 -0.3783
16610TIP3    H171245   4.346   0.527  13.758 -0.1717 -0.4848 -0.3763
16610TIP3    H271246   4.404   0.389  13.743  2.2477  0.5007 -0.5810
16611TIP3   OH271247   6.158   2.775   5.060 -0.8396  0.5101  0.0399
16611TIP3    H171248   6.152   2.683   5.087 -0.2095  0.3229 -0.4491
16611TIP3    H271249   6.119   2.777   4.972  0.1814  0.4959 -0.4221
16612TIP3   OH271250   3.848   2.549   0.772  0.2538 -0.0873 -0.4962
16612TIP3    H171251   3.869   2.495   0.849 -1.7533  0.5636  0.5886
16612TIP3    H271252   3.767   2.511   0.738  0.4364  0.4349 -1.5276
16613TIP3   OH271253   1.336   3.332  10.914  0.1911  0.2722 -0.4253
16613TIP3    H171254   1.429   3.350  10.900  0.9675 -1.6638  1.5857
16613TIP3    H271255   1.301   3.317  10.827  1.2857  2.8968 -1.4074
16614TIP3   OH271256   6.379   2.079   1.381 -0.5142 -0.0728 -0.0495
16614TIP3    H171257   6.332   2.038   1.453  0.9053 -0.4040  0.7422
16614TIP3    H271258   6.472   2.068   1.404 -0.0378  0.3451 -1.6370
16615TIP3   OH271259   3.598   6.047   0.861 -0.1269  0.4938  0.4037
16615TIP3    H171260   3.577   5.959   0.894 -0.6489  0.2478 -0.5383
16615TIP3    H271261   3.517   6.077   0.820  0.1020  1.3500  0.5639
16616TIP3   OH271262   0.433   5.097   0.013  0.2874  0.3664 -0.2050
16616TIP3    H171263   0.515   5.141  -0.013  0.0848  0.5554 -0.5382
16616TIP3    H271264   0.373   5.169   0.032  0.1210  0.2294 -0.2107
16617TIP3   OH271265   5.302   3.211  16.366 -0.2766 -0.0659  0.2046
16617TIP3    H171266   5.298   3.196  16.272  0.8449  0.2131  0.0951
16617TIP3    H271267   5.328   3.126  16.402 -1.5653 -0.4113  0.3654
16618TIP3   OH271268   1.113   0.461  17.130  0.4593 -0.5389  0.1113
16618TIP3    H171269   1.054   0.459  17.205  1.4510 -1.0410  0.9054
16618TIP3    H271270   1.062   0.502  17.060 -0.9542 -1.2972  0.6580
16619TIP3   OH271271   6.291   3.388  14.266 -0.0123  0.5382 -0.1193
16619TIP3    H171272   6.355   3.318  14.257 -0.0966  0.5215 -0.5925
16619TIP3    H271273   6.344   3.466  14.285  0.2609  0.7769 -1.7472
16620TIP3   OH271274   4.471   5.581  15.858  0.1522  0.2459  0.3213
16620TIP3    H171275   4.463   5.545  15.946  0.3025  1.6886  0.9511
16620TIP3    H271276   4.386   5.562  15.817 -0.2378  0.3144  1.0704
16621TIP3   OH271277   1.635   2.369   1.985 -0.3280 -0.8979 -0.3172
16621TIP3    H171278   1.685   2.374   1.903 -1.0713 -2.9454 -0.9513
16621TIP3    H271279   1.672   2.438   2.039  2.4038 -1.5452 -1.1898
16622TIP3   OH271280   0.283   1.812  14.806  0.1973  0.2660 -0.2848
16622TIP3    H171281   0.221   1.885  14.802  0.3227  0.5681  2.0732
16622TIP3    H271282   0.329   1.823  14.889  1.7069 -1.3399 -0.8412
16623TIP3   OH271283   1.562   1.579  15.461 -0.5070  0.6256 -0.5347
16623TIP3    H171284   1.608   1.499  15.435 -1.4427 -0.7150  1.6676
16623TIP3    H271285   1.632   1.644  15.472  0.4316 -0.2648 -1.0025
16624TIP3   OH271286   0.577   2.632   1.986  0.1123 -0.0987  0.1198
16624TIP3    H171287   0.542   2.721   1.981  1.0790  0.3177  0.4550
16624TIP3    H271288   0.662   2.642   2.030 -0.1412 -1.2935  0.9338
16625TIP3   OH271289   2.388   6.291   4.950 -0.2733 -0.1516  0.1334
16625TIP3    H171290   2.365   6.328   5.035 -0.9009  1.1216 -0.5664
16625TIP3    H271291   2.354   6.354   4.886  0.3907 -0.9624 -1.0594
16626TIP3   OH271292   6.078   0.704   3.512 -0.3298  0.2331  0.1051
16626TIP3    H171293   5.998   0.722   3.463 -0.3328 -1.7661 -0.7274
16626TIP3    H271294   6.148   0.735   3.455 -0.3790 -1.2776 -0.8413
16627TIP3   OH271295   5.852   4.977  11.944 -0.3801  0.0419  0.4834
16627TIP3    H171296   5.791   5.042  11.908  0.1180 -0.0068 -0.4825
16627TIP3    H271297   5.832   4.974  12.037 -0.2392  1.8030  0.6140
16628TIP3   OH271298   1.958   2.026  12.126 -0.1315 -0.5911  0.2048
16628TIP3    H171299   2.009   1.962  12.177 -1.1209 -0.8117  0.9503
16628TIP3    H271300   2.024   2.087  12.092  0.8180 -1.8409 -0.3011
16629TIP3   OH271301   0.562   1.514   2.602 -0.1460  0.1702  0.0301
16629TIP3    H171302   0.497   1.452   2.570 -0.5270 -0.9855  2.7212
16629TIP3    H271303   0.528   1.600   2.579 -1.3053 -0.5006 -0.8570
16630TIP3   OH271304   0.723   1.318  15.158  0.7171  0.2728 -0.0914
16630TIP3    H171305   0.784   1.317  15.084  0.0200  1.2259 -0.7146
16630TIP3    H271306   0.666   1.243  15.144  0.2770  0.7266 -0.8225
16631TIP3   OH271307   3.109   1.668   4.741 -0.1604  0.3147 -0.0620
16631TIP3    H171308   3.168   1.703   4.808 -0.0444 -0.5548  0.2907
16631TIP3    H271309   3.033   1.727   4.744  0.1324  0.6806  0.3557
16632TIP3   OH271310   5.787   4.081   1.158 -0.5832 -0.0471  0.5267
16632TIP3    H171311   5.736   4.159   1.136 -0.7425 -0.4411 -0.5842
16632TIP3    H271312   5.741   4.041   1.231 -3.0773 -1.4455 -1.6404
16633TIP3   OH271313   1.755   5.286  12.850 -0.0474 -0.5896  0.1627
16633TIP3    H171314   1.714   5.225  12.788  0.5039 -0.5500 -0.2484
16633TIP3    H271315   1.833   5.241  12.881  0.5085 -0.0014 -0.3480
16634TIP3   OH271316   4.164   6.165  13.672 -0.1636  0.2772 -0.0492
16634TIP3    H171317   4.180   6.095  13.735 -0.5890  0.7607  0.6044
16634TIP3    H271318   4.236   6.158  13.609  0.9799  0.5775  1.1883
16635TIP3   OH271319   4.828   4.326   1.381 -0.5336 -0.4848  0.1759
16635TIP3    H171320   4.748   4.286   1.414 -0.6377 -1.8417 -1.5787
16635TIP3    H271321   4.804   4.358   1.294  1.0835 -1.9061 -0.8451
16636TIP3   OH271322   5.152   5.624  12.797  0.2366  0.3882  0.1782
16636TIP3    H171323   5.174   5.672  12.876 -0.2922 -1.0114  1.2163
16636TIP3    H271324   5.235   5.586  12.768  0.6847  1.9650 -0.7263
16637TIP3   OH271325   4.591   0.353   5.588  0.1332 -0.3301  0.6231
16637TIP3    H171326   4.514   0.400   5.622  1.2890 -0.1302  3.2008
16637TIP3    H271327   4.665   0.393   5.634  1.4638 -2.7135  0.6917
16638TIP3   OH271328   0.687   0.685  13.233 -0.3587 -0.2423  0.5734
16638TIP3    H171329   0.648   0.599  13.247 -1.7728  0.1059 -0.8859
16638TIP3    H271330   0.691   0.695  13.138  2.0077  0.3749  0.6774
16639TIP3   OH271331   4.092   5.672   1.656 -0.4539  0.1965 -0.0194
16639TIP3    H171332   4.173   5.722   1.660  0.3888 -0.9283 -1.7111
16639TIP3    H271333   4.036   5.721   1.595 -0.5571  0.3065  0.1622
16640TIP3   OH271334   5.249   0.624  11.610 -0.3004 -0.3995 -0.2813
16640TIP3    H171335   5.202   0.681  11.549  1.6754  1.7453  0.0937
16640TIP3    H271336   5.185   0.603  11.677 -0.9476  1.9586 -0.0719
16641TIP3   OH271337   0.294   5.203   2.361 -0.1749 -0.4503  0.6727
16641TIP3    H171338   0.238   5.252   2.421 -0.6553  1.4032 -1.1630
16641TIP3    H271339   0.244   5.122   2.343 -1.4647  0.3511  0.4707
16642TIP3   OH271340   0.101   1.339  14.702 -0.3001  0.0842 -0.0703
16642TIP3    H171341   0.178   1.283  14.712 -0.0830  0.6876  1.9339
16642TIP3    H271342   0.136   1.422  14.669 -0.3886 -0.3333 -1.2496
16643TIP3   OH271343   2.328   6.568   3.763 -0.1711 -0.0477 -0.4604
16643TIP3    H171344   2.405   6.605   3.721 -0.1406  1.0998  0.5419
16643TIP3    H271345   2.298   6.636   3.823  0.9178 -2.1971  2.8323
16644TIP3   OH271346   6.047   4.525   2.522  0.3093  0.1575  0.1265
16644TIP3    H171347   6.023   4.453   2.580  1.0201 -0.4586 -0.3246
16644TIP3    H271348   5.994   4.512   2.444  0.5926 -0.0016 -0.0402
16645TIP3   OH271349   2.509   3.633   0.499  0.0964  0.3346  0.1011
16645TIP3    H171350   2.424   3.611   0.538 -0.9213  2.5921 -0.6568
16645TIP3    H271351   2.557   3.678   0.569 -0.5713  1.7558 -0.3155
16646TIP3   OH271352   1.749   5.813   1.239 -0.3536 -0.4744 -0.1612
16646TIP3    H171353   1.671   5.858   1.206 -0.7109  1.0610  2.4527
16646TIP3    H271354   1.803   5.798   1.161 -1.9734  1.0387 -1.6711
16647TIP3   OH271355   2.774   1.829   3.163 -0.3738  0.2731  0.0750
16647TIP3    H171356   2.809   1.822   3.252 -0.1886  2.0077  0.1652
16647TIP3    H271357   2.700   1.890   3.171 -1.1669 -0.5571 -0.7469
16648TIP3   OH271358   3.022   5.696  13.156  0.2880  0.4418 -0.0935
16648TIP3    H171359   3.066   5.743  13.227  0.9792  0.0342 -0.2410
16648TIP3    H271360   3.020   5.758  13.083 -0.6010  0.9312  0.3266
16649TIP3   OH271361   0.647   1.163   4.013  0.2333  0.2627 -0.4033
16649TIP3    H171362   0.678   1.115   4.090 -1.2701 -1.0576 -0.5584
16649TIP3    H271363   0.668   1.254   4.031 -2.2637  0.3945  2.8013
16650TIP3   OH271364   4.210   3.206  14.924  0.4636  0.0059  0.5073
16650TIP3    H171365   4.184   3.127  14.878  1.8914  0.2644 -0.8053
16650TIP3    H271366   4.130   3.259  14.928 -0.2254 -1.0001  0.3923
16651TIP3   OH271367   6.190   4.663  16.009 -0.1776  0.5616  0.4200
16651TIP3    H171368   6.200   4.747  16.053 -3.4608  1.4398 -0.2132
16651TIP3    H271369   6.115   4.675  15.950  1.0967 -1.9296 -1.9807
16652TIP3   OH271370   2.545   6.034  13.472 -0.6039  0.2653  0.6716
16652TIP3    H171371   2.633   6.011  13.502 -0.0115  0.3084 -0.9283
16652TIP3    H271372   2.547   6.130  13.465  0.3672  0.1500 -2.4041
16653TIP3   OH271373   5.439   3.873   2.619 -0.5736 -0.5273 -0.1783
16653TIP3    H171374   5.524   3.835   2.597  0.2390  0.1223  1.6676
16653TIP3    H271375   5.444   3.963   2.586 -1.2476 -0.9891 -1.6224
16654TIP3   OH271376   3.014   2.548  13.460  0.2896  0.5438  0.1300
16654TIP3    H171377   2.988   2.458  13.481  1.1104  0.6524  1.7609
16654TIP3    H271378   3.093   2.538  13.406  0.3579  0.2734  0.2766
16655TIP3   OH271379   4.182   5.784  15.627 -0.1179 -0.0773  0.3952
16655TIP3    H171380   4.119   5.792  15.555  2.0401  0.7429 -1.5347
16655TIP3    H271381   4.265   5.764  15.584  1.0765 -0.7081  2.7991
16656TIP3   OH271382   1.696   5.035  16.883  0.2097 -0.5175  0.3713
16656TIP3    H171383   1.781   4.995  16.902 -0.0970 -0.9098  0.9215
16656TIP3    H271384   1.715   5.129  16.882  0.4612 -0.5285  1.5736
16657TIP3   OH271385   0.195   1.471  11.052 -0.1380 -0.4653  0.3555
16657TIP3    H171386   0.282   1.470  11.092  0.9110  1.3815 -1.6883
16657TIP3    H271387   0.197   1.401  10.987  0.9022  1.3141 -1.6371
16658TIP3   OH271388   6.645   5.024  16.020 -0.7299  0.2900  0.2736
16658TIP3    H171389   6.569   5.078  15.997 -0.8504 -0.5564 -1.4470
16658TIP3    H271390   6.623   4.937  15.988  0.9658  0.0175 -0.2291
16659TIP3   OH271391   3.873   6.054  11.748  0.2616 -0.0489 -1.1231
16659TIP3    H171392   3.960   6.067  11.711 -0.0933 -1.7869 -2.7033
16659TIP3    H271393   3.833   5.987  11.693 -1.9576  0.4426 -0.2075
16660TIP3   OH271394   1.458   2.044  15.114  0.2128  0.2776 -0.0809
16660TIP3    H171395   1.520   1.976  15.088  0.0800  0.3667 -0.6333
16660TIP3    H271396   1.490   2.124  15.072  1.0702  0.8393  1.5610
16661TIP3   OH271397   5.161   5.003  12.648 -0.0555  0.7634 -0.1518
16661TIP3    H171398   5.200   4.953  12.576 -1.9632 -3.0178  1.1716
16661TIP3    H271399   5.067   5.003  12.630 -0.4916  0.4033  1.8641
16662TIP3   OH271400   0.498   3.092  14.721  0.3515  0.1296 -0.1633
16662TIP3    H171401   0.459   3.090  14.808  1.5638 -0.4783  0.3828
16662TIP3    H271402   0.592   3.092  14.737  0.5897 -0.1520 -1.4805
16663TIP3   OH271403   5.303   4.101  11.004  0.2191  0.2407  0.2475
16663TIP3    H171404   5.338   4.012  11.004  0.0946  0.1577 -1.4959
16663TIP3    H271405   5.283   4.119  11.096  0.9800 -1.2267  0.7323
16664TIP3   OH271406   1.462   6.605   4.655 -0.5596 -0.3390  0.0705
16664TIP3    H171407   1.472   6.573   4.565 -0.5696 -0.9255  0.2782
16664TIP3    H271408   1.471   6.700   4.647 -0.5981 -0.3839 -0.5574
16665TIP3   OH271409   0.965   3.475  15.432 -0.0900  0.2884  0.5363
16665TIP3    H171410   1.016   3.501  15.508  0.9631 -2.3918  0.8636
16665TIP3    H271411   0.967   3.551  15.374  0.9094  1.6316  2.2445
16666TIP3   OH271412   3.279   5.505  11.051  0.0909 -0.0948 -0.2833
16666TIP3    H171413   3.290   5.580  11.109 -2.7904  1.5917 -1.6703
16666TIP3    H271414   3.262   5.544  10.965 -0.4741 -2.3643 -1.2793
16667TIP3   OH271415   3.344   4.485  16.828  0.6782  0.9465 -0.3469
16667TIP3    H171416   3.370   4.463  16.739  0.6141 -1.2459  0.1107
16667TIP3    H271417   3.413   4.447  16.883 -0.0333  0.9549  0.5788
16668TIP3   OH271418   3.624   2.887  11.526  0.1919  0.0979  0.3231
16668TIP3    H171419   3.596   2.874  11.616  0.0323 -0.4108  0.2080
16668TIP3    H271420   3.655   2.800  11.498  1.1608  0.4684  0.2060
16669TIP3   OH271421   3.602   1.393   5.740 -0.3331  0.5009 -0.0180
16669TIP3    H171422   3.595   1.379   5.835  3.3521 -1.6575  0.1386
16669TIP3    H271423   3.559   1.317   5.701  2.1510 -1.1535  0.2166
16670TIP3   OH271424   6.209   2.280   3.941  0.3577 -0.3971 -0.0402
16670TIP3    H171425   6.162   2.196   3.937 -0.9138  0.2076  1.3464
16670TIP3    H271426   6.274   2.269   4.010 -0.8867  0.2350  1.2778
16671TIP3   OH271427   2.208   5.485   3.179 -0.1697 -0.4830 -0.0214
16671TIP3    H171428   2.240   5.495   3.269 -0.4453 -0.1142  0.0359
16671TIP3    H271429   2.235   5.565   3.134  0.5569 -0.9613 -0.4495
16672TIP3   OH271430   5.880   1.717  13.387 -0.1748  0.5500 -0.0707
16672TIP3    H171431   5.812   1.694  13.323 -1.6497  1.4114  1.1225
16672TIP3    H271432   5.871   1.652  13.456  0.3716  0.5407 -0.0064
16673TIP3   OH271433   6.757   5.142  11.679  0.3864  0.5203 -0.5390
16673TIP3    H171434   6.831   5.152  11.738  0.0843 -0.4581  0.0260
16673TIP3    H271435   6.708   5.224  11.688 -0.4614 -0.1657  1.7205
16674TIP3   OH271436   0.318   5.893   4.546 -0.0625 -0.3919 -0.1124
16674TIP3    H171437   0.315   5.989   4.544 -1.5571 -0.2650  2.7896
16674TIP3    H271438   0.410   5.871   4.530  0.2222  1.4592 -1.3114
16675TIP3   OH271439   0.849   4.033  13.557 -0.1394  0.0583  0.0024
16675TIP3    H171440   0.932   4.046  13.603  0.1061 -0.2069 -0.3488
16675TIP3    H271441   0.793   4.105  13.586  0.1712  0.1656  0.3427
16676TIP3   OH271442   2.900   5.079   3.155 -0.3348  0.3167  0.0285
16676TIP3    H171443   2.977   5.134   3.140 -0.2426  0.2278  0.1646
16676TIP3    H271444   2.860   5.116   3.234  1.1003 -1.2780  1.6035
16677TIP3   OH271445   4.728   2.161   4.722 -0.3911 -0.2398 -0.7255
16677TIP3    H171446   4.801   2.223   4.713  0.5495 -1.0732  0.7673
16677TIP3    H271447   4.656   2.202   4.673  0.0237  2.3163  0.6095
16678TIP3   OH271448   5.233   1.183   1.292 -0.0985  0.7619 -0.2104
16678TIP3    H171449   5.248   1.121   1.364  0.3326 -0.6016 -1.4241
16678TIP3    H271450   5.317   1.228   1.281 -0.5942  2.0595  1.0904
16679TIP3   OH271451   0.679   6.194   1.776  0.2018 -0.6230  0.9137
16679TIP3    H171452   0.752   6.141   1.746  0.0344  0.5197 -1.7699
16679TIP3    H271453   0.688   6.277   1.729 -2.3761 -0.1588  1.0800
16680TIP3   OH271454   5.576   0.726   3.632  0.2184 -0.1464  0.3084
16680TIP3    H171455   5.643   0.795   3.621 -1.4490  1.3092 -1.3558
16680TIP3    H271456   5.511   0.765   3.690 -0.3487 -0.6105 -0.0031
16681TIP3   OH271457   1.980   0.216  10.844 -0.0309  0.3921 -0.3104
16681TIP3    H171458   1.891   0.250  10.838  0.4946  1.5444 -2.5890
16681TIP3    H271459   1.972   0.137  10.898 -2.5562  0.0544 -1.0497
16682TIP3   OH271460   3.562   2.096   4.309 -0.3421 -0.4115 -0.0098
16682TIP3    H171461   3.478   2.132   4.283  0.3671  2.2756  1.0782
16682TIP3    H271462   3.626   2.140   4.253  0.4783 -1.0486  0.3936
16683TIP3   OH271463   6.532   6.517  15.237 -0.2584 -0.3836  0.1219
16683TIP3    H171464   6.494   6.564  15.312 -1.4170  2.3333 -2.0227
16683TIP3    H271465   6.467   6.451  15.214 -0.5277 -0.3087  0.6556
16684TIP3   OH271466   3.618   4.514  13.128  0.5394  0.1415  0.3922
16684TIP3    H171467   3.583   4.601  13.112  1.3695  0.3051 -0.6248
16684TIP3    H271468   3.636   4.512  13.222  0.3354  0.9985  0.4558
16685TIP3   OH271469   1.558   5.081   4.392 -0.1394  0.4255 -0.0199
16685TIP3    H171470   1.574   5.164   4.347 -0.7773  1.7774  2.0753
16685TIP3    H271471   1.474   5.094   4.436  0.4005 -0.8080  1.4730
16686TIP3   OH271472   5.180   1.000  13.633 -0.0092  0.3292  0.5045
16686TIP3    H171473   5.229   1.015  13.553  0.2131  1.2574  0.8115
16686TIP3    H271474   5.200   1.075  13.689 -1.8972  0.8295  0.5799
16687TIP3   OH271475   1.177   3.600  14.668  0.8316 -0.0431  0.3985
16687TIP3    H171476   1.230   3.526  14.699 -1.5322 -2.0517 -0.0443
16687TIP3    H271477   1.098   3.598  14.722  0.0500  1.2238 -0.6220
16688TIP3   OH271478   4.979   1.743  16.619  0.1212 -0.6687 -0.4400
16688TIP3    H171479   5.054   1.793  16.653 -0.2427 -0.7435  0.5177
16688TIP3    H271480   5.017   1.662  16.586  0.7664  0.3281 -2.2980
16689TIP3   OH271481   5.558   4.448  15.879 -0.4499 -0.1515 -0.1486
16689TIP3    H171482   5.554   4.364  15.925 -0.7137 -0.3831 -0.5798
16689TIP3    H271483   5.502   4.435  15.802  1.7923 -0.5763 -1.8060
16690TIP3   OH271484   0.441   6.560   4.380 -0.6912  0.2399 -0.3655
16690TIP3    H171485   0.522   6.607   4.401  0.0630 -0.4361 -1.6242
16690TIP3    H271486   0.378   6.629   4.359  0.3856  0.7733 -2.1644
16691TIP3   OH271487   5.032   5.561   3.660  0.0469  0.4967  0.1552
16691TIP3    H171488   5.124   5.587   3.650 -0.0304  0.2660 -1.6360
16691TIP3    H271489   4.984   5.628   3.612 -0.6130 -0.0326  0.0650
16692TIP3   OH271490   5.936   3.424  11.424 -0.3087  0.3629  0.0584
16692TIP3    H171491   5.948   3.391  11.335  0.0162 -0.6446  0.4539
16692TIP3    H271492   6.025   3.436  11.457 -0.4167 -0.0411  0.5121
16693TIP3   OH271493   2.540   0.765  14.083 -0.4814  0.2842  0.5214
16693TIP3    H171494   2.474   0.748  14.016  0.5833  0.3657 -0.5883
16693TIP3    H271495   2.525   0.856  14.109 -0.3000  0.5652 -0.3258
16694TIP3   OH271496   6.071   3.267  14.417 -0.1058 -0.0561 -0.3975
16694TIP3    H171497   6.133   3.247  14.347  1.0490  0.0849  0.5445
16694TIP3    H271498   6.106   3.346  14.458 -2.2255  1.4510 -1.3140
16695TIP3   OH271499   3.780   6.250   4.245  0.2389 -0.4516 -0.0517
16695TIP3    H171500   3.816   6.227   4.331 -0.4819 -2.2488 -0.1714
16695TIP3    H271501   3.804   6.176   4.189 -1.0110 -0.2669 -0.8712
16696TIP3   OH271502   3.565   2.811  11.773 -0.0454 -0.2638 -0.1505
16696TIP3    H171503   3.519   2.894  11.773  1.5551  0.6643  0.3493
16696TIP3    H271504   3.631   2.820  11.842  0.9815 -1.4573 -0.9386
16697TIP3   OH271505   0.595   6.751   5.733 -0.6874 -0.1939  0.0246
16697TIP3    H171506   0.639   6.724   5.813 -1.3310  1.5513  1.0325
16697TIP3    H271507   0.646   6.826   5.701 -0.2771 -1.0447 -1.3707
16698TIP3   OH271508   0.645   0.233  15.345 -0.1471  0.0266 -0.4989
16698TIP3    H171509   0.682   0.206  15.429 -2.8618 -0.6769  0.5675
16698TIP3    H271510   0.722   0.250  15.290  1.7226 -0.7774  1.6821
16699TIP3   OH271511   0.503   5.805  12.919  0.1700 -0.2089  0.5771
16699TIP3    H171512   0.451   5.831  12.843  0.1277 -1.1834  0.2484
16699TIP3    H271513   0.451   5.832  12.994  0.4243  1.1893  0.2819
16700TIP3   OH271514   2.669   3.030  15.303 -0.5160  0.5054  0.7573
16700TIP3    H171515   2.700   2.945  15.271 -0.6851  0.7831 -0.1685
16700TIP3    H271516   2.709   3.039  15.389  0.1861 -0.1334  0.5089
16701TIP3   OH271517   0.170   0.399   0.916 -0.2906 -0.6731  0.7570
16701TIP3    H171518   0.163   0.434   1.005 -0.1391 -1.8989  1.2703
16701TIP3    H271519   0.080   0.391   0.886 -0.3738 -0.9507  1.0817
16702TIP3   OH271520   5.698   0.821  16.930  0.3250 -0.6192 -0.0068
16702TIP3    H171521   5.604   0.838  16.940 -0.0343 -1.6114 -1.4520
16702TIP3    H271522   5.724   0.875  16.855  1.1652  0.4358  1.0010
16703TIP3   OH271523   1.508   6.416  11.217 -0.4154  0.3811 -0.0491
16703TIP3    H171524   1.455   6.475  11.163  0.0301 -0.1143 -1.0611
16703TIP3    H271525   1.598   6.445  11.204 -0.1722 -0.6093 -0.7099
16704TIP3   OH271526   0.407   3.609   1.711 -0.1907  0.4952  0.1116
16704TIP3    H171527   0.468   3.679   1.735  1.4770 -0.8745  0.0503
16704TIP3    H271528   0.357   3.593   1.791  1.1324  0.1051  0.8936
16705TIP3   OH271529   5.401   3.869   1.492 -0.1666  0.1488 -0.4998
16705TIP3    H171530   5.444   3.800   1.542  1.3076  0.0915 -1.7784
16705TIP3    H271531   5.366   3.928   1.559  1.4222 -0.1064  0.6105
16706TIP3   OH271532   0.275   4.573  14.113 -0.6541  0.8067 -0.5708
16706TIP3    H171533   0.335   4.646  14.128  0.9506 -0.1418 -2.0767
16706TIP3    H271534   0.319   4.517  14.050 -0.8861 -2.5354  1.9159
16707TIP3   OH271535   3.846   2.933  16.345  0.2190  0.7194 -0.0671
16707TIP3    H171536   3.941   2.946  16.347  0.6782 -1.6039 -1.9830
16707TIP3    H271537   3.833   2.845  16.378 -1.6477  1.9119  2.7909
16708TIP3   OH271538   0.297   4.600  12.905 -0.4873  0.2925  0.1415
16708TIP3    H171539   0.296   4.506  12.885  3.1034  0.0023  0.7274
16708TIP3    H271540   0.384   4.629  12.878  0.0589  2.5439  3.7212
16709TIP3   OH271541   3.229   0.791  13.625  0.7103  0.0230  0.2545
16709TIP3    H171542   3.152   0.845  13.605  0.2336 -0.3213  1.1139
16709TIP3    H271543   3.219   0.714  13.570  0.6480  0.1638  0.0679
16710TIP3   OH271544   2.308   0.190  16.557  0.0943 -0.2758 -0.2406
16710TIP3    H171545   2.319   0.268  16.504  2.3798  0.3534  1.0383
16710TIP3    H271546   2.251   0.133  16.505 -0.6154  1.6993 -1.7408
16711TIP3   OH271547   6.419   0.011  11.528 -0.0094  0.3562  0.4223
16711TIP3    H171548   6.421   0.004  11.624  1.7492  0.4959  0.4328
16711TIP3    H271549   6.504   0.048  11.505 -0.5544  0.6884 -1.1822
16712TIP3   OH271550   4.421   0.775  13.702  0.6965  0.1143 -0.0005
16712TIP3    H171551   4.459   0.765  13.789  1.2359  0.8409 -0.1491
16712TIP3    H271552   4.367   0.854  13.708  0.9958  0.3565 -0.4091
16713TIP3   OH271553   1.064   2.065   5.858 -0.0381 -0.6342  0.1087
16713TIP3    H171554   0.996   2.123   5.892 -0.5017 -0.5590 -0.8905
16713TIP3    H271555   1.087   2.102   5.773 -0.6596 -2.1250 -0.7539
16714TIP3   OH271556   4.478   3.907   1.357  0.1301  0.0273 -0.3451
16714TIP3    H171557   4.396   3.885   1.312  0.3017 -0.2488 -0.5285
16714TIP3    H271558   4.537   3.835   1.335  0.2315 -0.0917  0.2904
16715TIP3   OH271559   1.025   6.090  10.590 -0.0056 -0.6721  0.1558
16715TIP3    H171560   1.029   6.103  10.685  1.0488  0.0153  0.0246
16715TIP3    H271561   0.951   6.144  10.561  0.8215  0.5786  0.3503
16716TIP3   OH271562   2.412   0.416   2.589  0.2654 -0.3344 -0.2249
16716TIP3    H171563   2.327   0.441   2.623  0.2401 -0.2825 -0.3256
16716TIP3    H271564   2.392   0.361   2.513  0.3206 -0.0357 -0.4588
16717TIP3   OH271565   6.571   5.275   1.043  0.2462 -0.2069  0.2227
16717TIP3    H171566   6.502   5.213   1.062 -1.0772  1.7544  2.3564
16717TIP3    H271567   6.539   5.325   0.967 -0.1748 -0.0660  0.4891
16718TIP3   OH271568   6.038   4.630  16.404 -0.4883 -0.1072  0.0085
16718TIP3    H171569   6.027   4.696  16.472 -0.7286 -1.2315  1.0839
16718TIP3    H271570   6.082   4.557  16.447 -1.1180 -1.0571 -0.8967
16719TIP3   OH271571   1.826   3.449   3.948  0.0237  0.4136 -0.0261
16719TIP3    H171572   1.768   3.466   3.873 -2.1747  0.0116  1.5092
16719TIP3    H271573   1.901   3.507   3.932 -0.0196 -0.1392 -2.8534
16720TIP3   OH271574   5.563   3.434  14.391  0.5874 -0.3828  0.2322
16720TIP3    H171575   5.627   3.467  14.328  0.6260 -2.4621 -0.9199
16720TIP3    H271576   5.613   3.422  14.472  1.3016 -0.5725 -0.2313
16721TIP3   OH271577   3.484   3.012   4.252  0.3226  0.3570  0.4394
16721TIP3    H171578   3.438   3.094   4.230  0.4945  0.1320 -0.8386
16721TIP3    H271579   3.547   3.000   4.181 -0.6571 -1.6070 -0.1809
16722TIP3   OH271580   2.021   2.412   1.699  0.0938 -0.6534  0.0378
16722TIP3    H171581   2.080   2.430   1.625  0.0203 -2.7436 -0.6107
16722TIP3    H271582   2.061   2.455   1.774  0.3834  1.2007 -1.1370
16723TIP3   OH271583   0.798   0.535   5.259  0.0237  0.1681  0.0403
16723TIP3    H171584   0.743   0.482   5.318 -2.3327  1.4407 -0.8771
16723TIP3    H271585   0.800   0.485   5.177 -0.1593  0.3452 -0.0720
16724TIP3   OH271586   5.884   6.639   1.779 -0.5601 -0.3806 -0.6345
16724TIP3    H171587   5.819   6.700   1.814  1.4672  0.4383  1.9924
16724TIP3    H271588   5.949   6.629   1.849  1.8213 -1.6875 -2.8374
16725TIP3   OH271589   0.373   0.526  16.835  0.5035 -0.2585  0.3552
16725TIP3    H171590   0.330   0.450  16.875  1.6752 -1.3584 -0.3927
16725TIP3    H271591   0.390   0.584  16.909 -0.2252 -0.8133  0.9815
16726TIP3   OH271592   6.111   1.672  15.962 -0.0072 -0.6770  0.6769
16726TIP3    H171593   6.178   1.700  16.025 -0.9593 -1.1634  1.9530
16726TIP3    H271594   6.146   1.590  15.926  1.3011  0.4343 -0.6946
16727TIP3   OH271595   6.634   5.996   5.327  0.3566  0.5039 -0.5462
16727TIP3    H171596   6.669   5.910   5.348 -1.7107  0.0208  1.1610
16727TIP3    H271597   6.548   5.999   5.368 -0.0377  3.0487 -1.3488
16728TIP3   OH271598   5.584   0.117  13.506  0.3139 -0.5356  0.6682
16728TIP3    H171599   5.567   0.040  13.560  1.2663 -0.6378  0.8245
16728TIP3    H271600   5.570   0.086  13.416  1.7387 -1.1838  0.6547
16729TIP3   OH271601   3.381   0.791  13.179 -0.4470  0.0645  0.5180
16729TIP3    H171602   3.458   0.787  13.236  0.6160  0.5214 -0.8193
16729TIP3    H271603   3.306   0.781  13.238  0.6518 -1.5498  1.7194
16730TIP3   OH271604   2.931   2.816  17.075  0.1069 -0.1132 -0.3321
16730TIP3    H171605   2.992   2.751  17.109 -0.2245  0.3923  1.3482
16730TIP3    H271606   2.858   2.764  17.041  0.0788 -0.6513  0.5107
16731TIP3   OH271607   3.935   3.197  14.503  0.2527 -0.1310 -0.2856
16731TIP3    H171608   3.873   3.188  14.430 -0.0152 -1.1409  0.0529
16731TIP3    H271609   3.961   3.289  14.501 -0.9054  0.2016 -0.7203
16732TIP3   OH271610   1.680   5.946  16.272 -0.2441 -0.2821 -0.1061
16732TIP3    H171611   1.635   5.862  16.280 -0.5392 -0.4650 -2.8113
16732TIP3    H271612   1.628   5.996  16.210  0.9090  1.2215  0.0737
16733TIP3   OH271613   1.843   1.211   3.199 -0.3690 -0.5176  0.0006
16733TIP3    H171614   1.758   1.198   3.156 -1.0812  1.4485  0.6742
16733TIP3    H271615   1.829   1.181   3.288  0.0700 -1.4405 -0.2350
16734TIP3   OH271616   2.864   3.473   2.945  0.2560 -0.6086 -0.0361
16734TIP3    H171617   2.781   3.489   2.990 -0.0480  1.1548 -1.1139
16734TIP3    H271618   2.930   3.476   3.014 -0.1947  1.9985  0.4029
16735TIP3   OH271619   3.500   2.075   0.663 -0.1413 -0.4348  0.3796
16735TIP3    H171620   3.439   2.022   0.714 -0.1163 -0.2631  0.5932
16735TIP3    H271621   3.586   2.054   0.699 -0.3526  2.0957  2.7233
16736TIP3   OH271622   1.121   3.852   1.893  0.1006 -0.5654 -0.7277
16736TIP3    H171623   1.082   3.898   1.819 -2.1411  0.2492  0.8357
16736TIP3    H271624   1.214   3.845   1.871  0.6948  4.6791 -1.1889
16737TIP3   OH271625   4.775   3.010   5.988 -0.5298 -0.3380  0.5941
16737TIP3    H171626   4.853   3.028   5.934 -1.5584  2.0436 -0.2524
16737TIP3    H271627   4.805   3.023   6.078 -0.1779  1.9621  0.2188
16738TIP3   OH271628   2.666   0.321  11.354  0.0260  0.3903 -0.0725
16738TIP3    H171629   2.712   0.384  11.410 -0.5420  0.5056  0.2678
16738TIP3    H271630   2.574   0.348  11.357  0.0455  0.7186 -1.4842
16739TIP3   OH271631   3.501   1.783   3.979  0.4043  0.3107 -0.3189
16739TIP3    H171632   3.437   1.835   4.028  0.4939 -0.4239  0.6074
16739TIP3    H271633   3.526   1.713   4.039  1.6453  0.2469 -0.8826
16740TIP3   OH271634   0.310   6.492  14.661  0.4214 -0.3260 -0.0132
16740TIP3    H171635   0.342   6.582  14.650 -1.2026  0.2607 -0.2707
16740TIP3    H271636   0.216   6.502  14.674  0.0723 -2.0508 -0.9481
16741TIP3   OH271637   1.840   6.462  12.359 -0.2497  0.2205 -0.0230
16741TIP3    H171638   1.933   6.464  12.381 -0.0493 -0.1054 -0.7741
16741TIP3    H271639   1.796   6.441  12.441  0.0824  3.1487  1.0086
16742TIP3   OH271640   4.739   2.965  12.611  0.2774 -0.7905  0.7278
16742TIP3    H171641   4.763   2.948  12.520 -1.4448 -0.5156  0.1897
16742TIP3    H271642   4.818   3.003  12.650  0.4794  0.8267 -1.1288
16743TIP3   OH271643   4.030   5.372   0.907  0.1936 -0.5314  0.8365
16743TIP3    H171644   4.096   5.441   0.902  0.0240 -0.3775  0.7161
16743TIP3    H271645   4.078   5.291   0.885 -0.0441 -0.1793 -1.2510
16744TIP3   OH271646   1.000   5.083  11.274 -0.1546 -0.4138  0.8474
16744TIP3    H171647   1.009   5.162  11.221  1.4257  1.4613  3.6413
16744TIP3    H271648   0.911   5.051  11.256 -0.9889  2.2214 -0.1089
16745TIP3   OH271649   6.222   1.123  13.746 -0.3627 -0.0479  0.3711
16745TIP3    H171650   6.216   1.031  13.720  1.0395 -0.1911  0.5087
16745TIP3    H271651   6.255   1.168  13.668 -1.3503  0.4159  0.1959
16746TIP3   OH271652   1.169   5.768  10.706 -0.4784  0.2932 -0.1715
16746TIP3    H171653   1.212   5.683  10.714 -0.6971 -0.0740 -2.2502
16746TIP3    H271654   1.076   5.747  10.700 -0.8263  0.9258  2.0769
16747TIP3   OH271655   4.330   1.737  15.004  0.4136 -0.1561 -0.2046
16747TIP3    H171656   4.260   1.741  14.939 -0.7827 -1.1245  0.9801
16747TIP3    H271657   4.321   1.651  15.044  3.4947 -1.1156 -1.2781
16748TIP3   OH271658   5.199   2.066   4.936  0.3717 -0.0354 -0.4852
16748TIP3    H171659   5.175   2.146   4.889  0.9446 -0.4004 -1.4378
16748TIP3    H271660   5.259   2.020   4.876  0.6642 -0.8005  0.3696
16749TIP3   OH271661   3.659   0.841  12.228 -0.0305 -0.1242 -0.0825
16749TIP3    H171662   3.598   0.855  12.156  0.8579  0.4209 -0.7579
16749TIP3    H271663   3.665   0.927  12.271 -2.3014 -0.9430  2.1237
16750TIP3   OH271664   0.417   0.654  13.491 -0.2132  0.5634 -0.2014
16750TIP3    H171665   0.479   0.640  13.562  2.1296  0.1434 -2.2084
16750TIP3    H271666   0.376   0.569  13.477  0.1411  0.3732 -0.0758
16751TIP3   OH271667   2.291   2.296   5.377 -0.4639  0.0313  0.1843
16751TIP3    H171668   2.318   2.314   5.287 -1.2340  2.1951  0.3316
16751TIP3    H271669   2.317   2.374   5.426 -0.7765 -0.7730  1.6867
16752TIP3   OH271670   2.207   1.666   2.473  0.3942 -0.1044 -0.5281
16752TIP3    H171671   2.263   1.611   2.419  0.1930 -1.1349  0.2816
16752TIP3    H271672   2.122   1.622   2.473 -0.4876  1.4958 -1.8331
16753TIP3   OH271673   2.520   5.640  12.347 -0.1215 -0.3682 -0.0444
16753TIP3    H171674   2.567   5.705  12.400 -2.0645  2.3353 -1.3492
16753TIP3    H271675   2.447   5.612  12.403  0.4337 -1.0603  0.3401
16754TIP3   OH271676   1.543   2.408   2.984 -0.3779  0.2718  0.5662
16754TIP3    H171677   1.560   2.322   3.022 -2.3631 -0.1691  0.5511
16754TIP3    H271678   1.486   2.452   3.047 -1.6994  0.4700 -0.7008
16755TIP3   OH271679   6.503   6.266  15.029 -0.0338  0.1836  0.7435
16755TIP3    H171680   6.429   6.277  14.970 -0.5778  0.2751  1.4389
16755TIP3    H271681   6.530   6.174  15.017 -0.9728 -0.1776  1.3134
16756TIP3   OH271682   4.182   2.433  15.738  0.1810  0.4828  0.0117
16756TIP3    H171683   4.154   2.524  15.735  1.1804  0.8032  0.3258
16756TIP3    H271684   4.251   2.431  15.804  1.3685 -0.1654 -1.2123
16757TIP3   OH271685   2.747   3.706  12.149 -0.3506  0.2415  0.6481
16757TIP3    H171686   2.688   3.631  12.139  0.7768 -0.7160  0.8667
16757TIP3    H271687   2.742   3.751  12.065 -1.6674  0.4152  0.7936
16758TIP3   OH271688   5.784   5.391   4.881  0.0821  0.0900  0.5767
16758TIP3    H171689   5.826   5.464   4.837 -1.4617  1.0178  0.5824
16758TIP3    H271690   5.734   5.347   4.812 -0.1973 -0.0605  0.8738
16759TIP3   OH271691   4.354   5.986  11.284  0.7311  0.0839 -0.0827
16759TIP3    H171692   4.296   6.058  11.258  0.4838 -0.3542 -0.7508
16759TIP3    H271693   4.366   5.998  11.378  0.3851  0.7799 -0.1195
16760TIP3   OH271694   5.797   1.297  16.247  0.2442  0.4152 -0.0659
16760TIP3    H171695   5.761   1.381  16.272 -0.5954  0.2256 -0.5777
16760TIP3    H271696   5.872   1.318  16.191  0.7498  0.8125  0.7413
16761TIP3   OH271697   5.981   3.341  13.121  0.0384 -0.1852 -0.5598
16761TIP3    H171698   6.007   3.265  13.070  2.4910  1.1111 -1.3869
16761TIP3    H271699   5.973   3.412  13.056  3.1989  1.5046  0.6853
16762TIP3   OH271700   4.639   6.138   3.028 -0.5434  0.8122  0.1938
16762TIP3    H171701   4.623   6.057   3.077 -0.3166  1.9512  2.2294
16762TIP3    H271702   4.732   6.134   3.005 -0.3750  0.8098  0.8757
16763TIP3   OH271703   4.853   2.209  16.449 -0.4744  0.1019  0.1851
16763TIP3    H171704   4.942   2.197  16.415 -0.4420  0.5687  0.0981
16763TIP3    H271705   4.803   2.137  16.411  0.1433 -0.9126  1.2460
16764TIP3   OH271706   0.690   5.874   6.203  0.3636 -0.0193  0.5743
16764TIP3    H171707   0.642   5.809   6.151 -0.2451  0.5372  0.4265
16764TIP3    H271708   0.621   5.921   6.251  0.8296  0.2826  0.9489
16765TIP3   OH271709   0.134   1.081   1.152 -0.7296  0.1662  0.3383
16765TIP3    H171710   0.083   1.098   1.231 -2.0341  0.1829 -0.4937
16765TIP3    H271711   0.070   1.070   1.082  0.3589 -0.7742 -0.5717
16766TIP3   OH271712   0.182   6.148   4.560  0.3338  0.0355 -0.1045
16766TIP3    H171713   0.096   6.126   4.595  0.1395 -0.3973 -0.8428
16766TIP3    H271714   0.179   6.242   4.545  0.2234  0.1292  0.4981
16767TIP3   OH271715   4.939   2.788   2.086 -0.2612 -0.2765  0.6983
16767TIP3    H171716   4.851   2.778   2.124 -0.5360  0.6981  0.3449
16767TIP3    H271717   4.980   2.856   2.139  0.9453 -1.9061  1.9818
16768TIP3   OH271718   3.566   3.305   1.132  0.0568 -0.2217 -0.0432
16768TIP3    H171719   3.569   3.385   1.184 -0.7228 -0.3438  0.1965
16768TIP3    H271720   3.657   3.277   1.127  0.0703 -0.7469  2.1173
16769TIP3   OH271721   1.617   3.948  15.944 -0.2787  0.0520 -0.7732
16769TIP3    H171722   1.558   4.023  15.950  0.1144  0.4122 -1.2975
16769TIP3    H271723   1.704   3.986  15.939 -0.1925 -0.3119 -3.3363
16770TIP3   OH271724   3.868   4.473   1.055  0.5860 -0.1445 -0.3463
16770TIP3    H171725   3.892   4.387   1.090 -0.1080  0.0903  0.7634
16770TIP3    H271726   3.776   4.485   1.079  0.7814  1.0758 -0.0945
16771TIP3   OH271727   4.594   2.719   5.746 -0.2007  0.0053 -0.6453
16771TIP3    H171728   4.628   2.776   5.815  1.0154 -0.9809 -0.3787
16771TIP3    H271729   4.502   2.707   5.767 -0.1280  0.7048  0.1057
16772TIP3   OH271730   2.273   0.126   4.564 -0.2474  0.1899 -0.3221
16772TIP3    H171731   2.296   0.037   4.537 -1.8896 -0.5217  0.5033
16772TIP3    H271732   2.265   0.174   4.482  0.7048 -0.3892 -0.7760
16773TIP3   OH271733   5.023   3.696   4.482 -0.9517  0.0566 -0.2009
16773TIP3    H171734   5.060   3.615   4.517 -0.6242  0.6160  0.7783
16773TIP3    H271735   5.047   3.695   4.389 -1.3514 -1.1793 -0.3114
16774TIP3   OH271736   0.692   1.442  13.018  0.4181 -0.6439  0.5019
16774TIP3    H171737   0.635   1.384  12.968 -1.1934  0.5215  0.9048
16774TIP3    H271738   0.780   1.427  12.982 -0.7232  0.6814 -3.1910
16775TIP3   OH271739   0.701   6.309   4.660 -0.1762 -0.0904  0.4804
16775TIP3    H171740   0.772   6.368   4.634  0.6102 -1.6127 -1.0754
16775TIP3    H271741   0.740   6.253   4.726 -0.6673  0.5751  1.3467
16776TIP3   OH271742   5.935   4.680  11.909  0.1315 -0.2912  0.2631
16776TIP3    H171743   5.888   4.725  11.979 -0.2853 -0.1698 -0.0912
16776TIP3    H271744   6.014   4.733  11.895  1.4851 -1.6362  2.3054
16777TIP3   OH271745   3.956   6.746  16.620 -0.7097 -0.7130  0.1833
16777TIP3    H171746   3.952   6.666  16.567 -2.3299  1.3605 -3.2250
16777TIP3    H271747   4.042   6.782  16.602 -1.3512  0.1270 -1.4959
16778TIP3   OH271748   0.203   3.528   3.165  0.0060  0.3003 -0.4141
16778TIP3    H171749   0.244   3.442   3.158 -0.7535 -0.1307  0.2227
16778TIP3    H271750   0.212   3.567   3.078 -1.6926 -1.3854 -1.4144
16779TIP3   OH271751   6.073   4.823  12.437 -0.8367  0.2037 -0.7157
16779TIP3    H171752   6.041   4.893  12.494 -1.3918 -0.4840 -0.1784
16779TIP3    H271753   5.999   4.763  12.428 -0.2959 -0.4379 -0.9833
16780TIP3   OH271754   0.885   1.032   2.894  0.6908 -0.0178  0.2180
16780TIP3    H171755   0.940   0.993   2.826  1.1039  0.3584  0.3298
16780TIP3    H271756   0.866   0.960   2.954 -0.1766 -0.4930 -0.6073
16781TIP3   OH271757   2.151   5.007   3.952  0.2797 -0.2128  0.2582
16781TIP3    H171758   2.172   5.101   3.952 -0.3323 -0.0405 -1.4250
16781TIP3    H271759   2.212   4.969   4.015  2.2257  0.9741 -0.8147
16782TIP3   OH271760   2.110   2.564  14.585  0.2548  0.1904  0.0238
16782TIP3    H171761   2.151   2.542  14.669 -0.6560  1.5290  0.8424
16782TIP3    H271762   2.023   2.595  14.608 -1.0622 -1.9468 -1.6357
16783TIP3   OH271763   1.852   4.321  16.126 -0.5646  0.2575 -0.0177
16783TIP3    H171764   1.813   4.282  16.048 -0.0827  2.2841 -1.3438
16783TIP3    H271765   1.939   4.281  16.132 -0.5525  0.1907 -0.5987
16784TIP3   OH271766   1.925   1.807  13.721 -0.7779 -0.3120 -0.4943
16784TIP3    H171767   1.891   1.762  13.798 -0.7050  0.1879 -0.1680
16784TIP3    H271768   2.018   1.783  13.719 -0.7667 -0.2759 -0.3928
16785TIP3   OH271769   5.119   5.805  13.021 -0.0821  0.6000  0.4558
16785TIP3    H171770   5.101   5.898  13.008 -1.7171  0.1401 -0.9513
16785TIP3    H271771   5.087   5.787  13.109  0.0238  1.3152  0.6479
16786TIP3   OH271772   2.169   0.268  13.706  0.1143 -0.3823  0.9085
16786TIP3    H171773   2.159   0.243  13.614  1.8403 -0.9145  0.8283
16786TIP3    H271774   2.134   0.357  13.711  0.2066 -0.2624 -0.3141
16787TIP3   OH271775   3.515   0.987   1.175  0.3309  0.5164  0.0374
16787TIP3    H171776   3.430   1.030   1.172 -0.6979 -1.3567  0.4171
16787TIP3    H271777   3.571   1.039   1.117 -1.1318  1.6501 -0.4109
16788TIP3   OH271778   2.695   6.443   4.655 -0.8043  0.3307  0.0468
16788TIP3    H171779   2.641   6.387   4.599 -0.6970 -1.6270  1.7979
16788TIP3    H271780   2.779   6.447   4.609 -0.5771 -1.5966  0.1769
16789TIP3   OH271781   5.546   0.741  14.951 -0.2797  0.4874 -0.6568
16789TIP3    H171782   5.549   0.738  14.856  3.3627  0.0524 -0.6690
16789TIP3    H271783   5.625   0.790  14.976 -2.1056  2.3014  2.1431
16790TIP3   OH271784   3.946   4.692   1.964 -0.0338  0.4192 -0.1350
16790TIP3    H171785   3.876   4.685   2.029 -0.1322  0.8606 -0.1857
16790TIP3    H271786   4.015   4.634   1.996 -0.9698 -1.1213 -0.8245
16791TIP3   OH271787   3.158   0.781   6.036  0.3522  0.5991  0.0779
16791TIP3    H171788   3.197   0.786   6.123  2.4275  1.1317 -0.8085
16791TIP3    H271789   3.151   0.872   6.007  0.9110  0.3877 -0.7801
16792TIP3   OH271790   3.762   0.627  12.599  0.5469  0.0649  0.0331
16792TIP3    H171791   3.723   0.614  12.686  0.7434  1.1220  0.2990
16792TIP3    H271792   3.690   0.615  12.538  0.9114 -3.2711  0.1135
16793TIP3   OH271793   1.752   4.853   1.487 -0.1166 -0.4091 -0.0548
16793TIP3    H171794   1.808   4.849   1.410 -2.6844 -0.9586 -2.0252
16793TIP3    H271795   1.767   4.941   1.523  1.5602 -0.3507 -0.8199
16794TIP3   OH271796   5.987   6.099  12.686  0.1488  0.1291 -0.4030
16794TIP3    H171797   5.999   6.015  12.731 -0.7340  0.5419  0.6412
16794TIP3    H271798   5.952   6.074  12.600  1.9571 -0.6719 -0.9659
16795TIP3   OH271799   1.696   2.984  11.362 -0.1827  0.0793  0.1270
16795TIP3    H171800   1.664   2.971  11.273 -0.5932  0.2844  0.2399
16795TIP3    H271801   1.680   3.077  11.380 -0.4897 -0.0521  0.5546
16796TIP3   OH271802   4.984   5.388   3.158  0.0615 -0.8384 -0.2994
16796TIP3    H171803   5.044   5.439   3.213 -1.7065  1.8905 -0.6891
16796TIP3    H271804   4.912   5.364   3.217 -0.0510 -1.1535 -0.5630
16797TIP3   OH271805   4.905   3.215  11.989 -0.4112 -0.0244 -0.3777
16797TIP3    H171806   4.933   3.127  11.962 -0.5593 -0.9368  2.0888
16797TIP3    H271807   4.898   3.208  12.085 -0.5606  2.6632 -0.1354
16798TIP3   OH271808   2.330   4.878  16.801  0.0162 -0.2091  0.5986
16798TIP3    H171809   2.356   4.799  16.753  1.9127 -0.7558  2.3788
16798TIP3    H271810   2.382   4.948  16.763  0.9286 -0.4938  1.2977
16799TIP3   OH271811   3.530   5.613  15.887  0.2091 -0.6922  0.2433
16799TIP3    H171812   3.504   5.611  15.979 -0.2128 -0.1665  0.1421
16799TIP3    H271813   3.625   5.602  15.888 -0.0398 -3.5727  0.5763
16800TIP3   OH271814   4.565   0.946   2.553 -0.2374 -0.3111  0.5145
16800TIP3    H171815   4.651   0.959   2.515 -0.3469  0.0676  0.3871
16800TIP3    H271816   4.582   0.928   2.646 -0.1163  2.3394  1.0734
16801TIP3   OH271817   6.052   3.527   1.415 -0.1640  0.0736 -0.4148
16801TIP3    H171818   6.114   3.574   1.472  1.8790 -2.9172  0.0904
16801TIP3    H271819   6.106   3.496   1.343 -1.2344 -1.9547 -0.3919
16802TIP3   OH271820   0.172   4.538   4.875 -0.0817  0.4097  0.4680
16802TIP3    H171821   0.146   4.456   4.917  0.4558  0.4513  0.8950
16802TIP3    H271822   0.202   4.511   4.788 -2.1821  0.4493 -0.3038
16803TIP3   OH271823   1.334   1.747   3.050  0.2335 -0.3546 -0.0747
16803TIP3    H171824   1.359   1.657   3.066  1.7413  0.2678  1.3255
16803TIP3    H271825   1.417   1.795   3.044 -0.5132  1.4373  2.3571
16804TIP3   OH271826   1.709   5.702  13.609 -0.1318 -0.2177  0.2101
16804TIP3    H171827   1.725   5.638  13.678 -0.5865  0.0001  0.5201
16804TIP3    H271828   1.790   5.702  13.558  0.3656 -0.0850  0.9814
16805TIP3   OH271829   1.984   0.534  16.681 -1.0330  0.2643  0.0186
16805TIP3    H171830   1.926   0.532  16.757  0.0617  0.7074  0.9138
16805TIP3    H271831   1.927   0.549  16.606 -2.2061 -0.7181  0.6860
16806TIP3   OH271832   4.381   1.887   2.639  0.2008 -0.5653  0.3999
16806TIP3    H171833   4.360   1.894   2.546  0.6554  2.6443  0.4287
16806TIP3    H271834   4.319   1.823   2.673  0.2306 -2.0652 -2.1243
16807TIP3   OH271835   4.141   2.662  12.847  0.1214  0.4174 -0.0158
16807TIP3    H171836   4.214   2.719  12.872 -1.0006  1.4423  1.0189
16807TIP3    H271837   4.105   2.631  12.930  0.2146 -1.2002 -0.5484
16808TIP3   OH271838   4.764   0.967   0.806 -0.1563  0.2559 -0.0087
16808TIP3    H171839   4.731   0.944   0.893  0.1367  0.5593  0.1851
16808TIP3    H271840   4.752   1.061   0.800 -2.3952 -0.0348 -1.2371
16809TIP3   OH271841   1.920   1.560  13.077  0.1050  0.0375 -0.0591
16809TIP3    H171842   1.948   1.591  12.991  0.7837 -0.8037 -0.1599
16809TIP3    H271843   1.914   1.639  13.130  1.3261  0.4009 -0.4294
16810TIP3   OH271844   2.384   5.047   3.161 -0.5757 -0.1597 -0.1314
16810TIP3    H171845   2.363   4.954   3.156 -1.8019  0.1255 -0.5416
16810TIP3    H271846   2.397   5.074   3.070  1.7713 -0.3368  0.0980
16811TIP3   OH271847   1.135   4.514  14.404  0.2200 -0.3817 -0.4724
16811TIP3    H171848   1.079   4.546  14.474  2.4975  0.9511  0.8532
16811TIP3    H271849   1.078   4.509  14.328 -2.9099 -3.8298  1.7507
16812TIP3   OH271850   3.800   2.337   1.668 -0.6940  0.3333  0.5579
16812TIP3    H171851   3.777   2.333   1.761  1.1555  0.6255  1.0502
16812TIP3    H271852   3.737   2.278   1.626  0.3847 -2.3294  2.4011
16813TIP3   OH271853   0.089   5.983  14.602 -0.4846 -0.3976  0.1393
16813TIP3    H171854   0.131   6.061  14.565  1.6256 -0.9361  1.2660
16813TIP3    H271855   0.126   5.974  14.690 -3.2665 -0.7491  1.3829
16814TIP3   OH271856   3.053   4.000  12.193 -0.1192 -0.1038 -0.3243
16814TIP3    H171857   3.020   3.974  12.279 -0.6649  0.9152 -0.2070
16814TIP3    H271858   3.085   4.089  12.206 -1.1363  0.4510 -1.3916
16815TIP3   OH271859   3.444   3.002   1.159 -0.6043  0.4515 -0.4038
16815TIP3    H171860   3.502   2.998   1.083  0.0978 -0.1945  0.1589
16815TIP3    H271861   3.372   2.942   1.137  0.1187 -0.5300 -0.1376
16816TIP3   OH271862   5.437   1.604   5.208  0.1856 -0.9657  0.2919
16816TIP3    H171863   5.439   1.683   5.154  0.1869 -2.3438 -1.8506
16816TIP3    H271864   5.354   1.561   5.186  0.2551 -1.6603  1.2817
16817TIP3   OH271865   6.266   2.247  10.735 -0.5798  0.0771  0.7164
16817TIP3    H171866   6.341   2.199  10.773 -1.0540 -0.2973  1.2040
16817TIP3    H271867   6.283   2.338  10.757  1.0020  0.3605 -1.3394
16818TIP3   OH271868   1.936   4.592   0.604 -0.4523 -0.4376 -0.8700
16818TIP3    H171869   1.986   4.540   0.667  0.6043 -0.9258 -2.0619
16818TIP3    H271870   1.974   4.570   0.519  1.2876  3.4962 -1.3527
16819TIP3   OH271871   0.596   2.170   6.439  0.0151 -0.1476 -0.7740
16819TIP3    H171872   0.640   2.239   6.390  0.1538 -0.1065 -0.5933
16819TIP3    H271873   0.628   2.180   6.529 -1.4042  0.7769 -0.3331
16820TIP3   OH271874   5.045   2.198   3.790  0.5747 -0.2252 -0.2835
16820TIP3    H171875   5.031   2.214   3.697  1.0129  1.3155 -0.1189
16820TIP3    H271876   4.991   2.263   3.834  1.7048  0.2304  0.4843
16821TIP3   OH271877   2.208   1.962   2.671  0.5339  0.2662 -0.1298
16821TIP3    H171878   2.152   2.014   2.613  0.2424  0.2292  0.1129
16821TIP3    H271879   2.249   2.026   2.728  2.4400  0.5258 -1.6947
16822TIP3   OH271880   0.395   5.858   4.210 -0.2640 -0.2090  0.4048
16822TIP3    H171881   0.467   5.893   4.263 -0.4871 -1.1196  1.3419
16822TIP3    H271882   0.320   5.915   4.232 -0.2493 -0.3173  0.7479
16823TIP3   OH271883   0.262   2.799   4.897 -0.1895 -0.0042 -0.7782
16823TIP3    H171884   0.303   2.883   4.879  0.6913 -0.3964 -0.6836
16823TIP3    H271885   0.240   2.801   4.990  0.6524 -0.2066 -0.5643
16824TIP3   OH271886   6.420   1.121   5.613  0.2250  0.5495  0.2515
16824TIP3    H171887   6.405   1.187   5.680  0.9215  0.2309  0.7346
16824TIP3    H271888   6.406   1.167   5.530  1.9915  1.6660  0.5345
16825TIP3   OH271889   1.710   1.841   4.625 -0.2792  0.0460 -0.2251
16825TIP3    H171890   1.703   1.907   4.556  2.0311  0.8969  0.2513
16825TIP3    H271891   1.659   1.877   4.697  0.2443  0.9135 -0.2716
16826TIP3   OH271892   4.671   1.078  14.317  0.4537  0.4009 -0.4106
16826TIP3    H171893   4.580   1.090  14.290  0.0880 -0.4918  0.3537
16826TIP3    H271894   4.721   1.092  14.237 -0.4345 -0.0211 -1.0709
16827TIP3   OH271895   1.540   5.326  13.391 -0.1978 -0.1078 -0.6825
16827TIP3    H171896   1.512   5.380  13.466 -1.0816 -0.9150 -0.4217
16827TIP3    H271897   1.571   5.390  13.327 -1.8254  0.7855 -0.6354
16828TIP3   OH271898   6.185   0.521   4.901 -0.0839  0.0973  0.1390
16828TIP3    H171899   6.242   0.446   4.882  1.0417  0.4578  1.8993
16828TIP3    H271900   6.128   0.491   4.972  0.1915  0.8232  0.6738
16829TIP3   OH271901   1.819   5.579   4.783 -0.1448  0.5189  0.3641
16829TIP3    H171902   1.751   5.526   4.742  0.1098  0.3120  0.2098
16829TIP3    H271903   1.801   5.572   4.877  0.4391 -0.5992  0.4057
16830TIP3   OH271904   4.920   6.113   3.777  0.6476  0.1247  0.0923
16830TIP3    H171905   4.929   6.026   3.739  1.2389  0.6763 -1.1088
16830TIP3    H271906   4.870   6.100   3.857 -1.3143 -1.0153 -1.2463
16831TIP3   OH271907   1.800   5.242  13.999 -0.1904 -0.1576 -0.5002
16831TIP3    H171908   1.733   5.206  14.058 -0.7942 -0.1025 -1.1426
16831TIP3    H271909   1.853   5.166  13.975 -1.0503 -0.5173 -1.3146
16832TIP3   OH271910   0.737   6.770  11.612  0.1430 -0.3167 -1.0003
16832TIP3    H171911   0.831   6.788  11.614  0.2474 -0.7127 -1.8012
16832TIP3    H271912   0.719   6.749  11.521 -0.3950 -1.8836 -0.5784
16833TIP3   OH271913   0.102   1.410  13.869  0.4712 -0.8326 -0.3358
16833TIP3    H171914   0.172   1.455  13.821 -0.0601  0.3524 -0.0406
16833TIP3    H271915   0.036   1.391  13.802 -0.6012  1.4811 -0.0243
16834TIP3   OH271916   6.590   6.490  13.338  0.4990 -0.7675  0.0431
16834TIP3    H171917   6.517   6.435  13.309  1.6407 -2.1527 -0.3337
16834TIP3    H271918   6.560   6.579  13.323 -1.2129 -1.2893  0.1578
16835TIP3   OH271919   1.205   3.417   1.466 -0.0601  0.0163  0.3302
16835TIP3    H171920   1.227   3.506   1.439 -0.0775 -0.3832 -1.0933
16835TIP3    H271921   1.182   3.373   1.384 -0.4626 -1.1795  1.0695
16836TIP3   OH271922   5.233   5.943   4.446 -0.2746  0.1416  0.0919
16836TIP3    H171923   5.210   5.869   4.390 -2.3565  0.4554  0.4500
16836TIP3    H271924   5.304   5.987   4.400 -1.1921 -0.2247 -1.7626
16837TIP3   OH271925   1.140   0.001  14.697 -0.5277  0.6783  0.3697
16837TIP3    H171926   1.070   0.011  14.762 -1.4736 -2.3436 -0.0411
16837TIP3    H271927   1.094  -0.025  14.617  0.8885  1.1676 -0.6350
16838TIP3   OH271928   6.344   4.934   2.444 -0.3662  0.2426  0.3514
16838TIP3    H171929   6.439   4.926   2.440 -0.5010 -1.0924 -0.7490
16838TIP3    H271930   6.320   4.892   2.526 -0.2235 -2.2610 -0.8099
16839TIP3   OH271931   5.508   1.209  12.631  0.3413 -0.5330 -0.3039
16839TIP3    H171932   5.443   1.163  12.578  0.2863 -0.1794 -0.5463
16839TIP3    H271933   5.592   1.182  12.593  0.3454 -1.1173  0.1131
16840TIP3   OH271934   5.513   4.112   2.517 -0.7352 -0.1225 -0.1400
16840TIP3    H171935   5.491   4.155   2.600 -1.2411  2.5456 -1.5570
16840TIP3    H271936   5.579   4.169   2.478 -0.0316 -1.6888 -1.3107
16841TIP3   OH271937   5.824   3.008  15.397 -0.3118  0.3370  0.0203
16841TIP3    H171938   5.891   2.991  15.463 -0.0242  1.7606  0.1285
16841TIP3    H271939   5.860   3.078  15.344 -1.4640  0.7063 -0.3041
16842TIP3   OH271940   3.405   0.747  11.796 -0.7295 -0.1752  0.3272
16842TIP3    H171941   3.456   0.805  11.853 -0.4948 -0.0625  0.0038
16842TIP3    H271942   3.369   0.681  11.856 -0.0597 -0.3615  0.5369
16843TIP3   OH271943   1.314   3.396  14.450  0.0934  0.2148  0.3958
16843TIP3    H171944   1.296   3.328  14.385 -0.0509  0.1865  0.4649
16843TIP3    H271945   1.278   3.476  14.412 -0.2861  0.1386  0.5811
16844TIP3   OH271946   2.495   6.735  11.689 -0.3907 -0.4683  0.4964
16844TIP3    H171947   2.516   6.663  11.748  0.2839  0.1191  0.9981
16844TIP3    H271948   2.515   6.702  11.602  0.9687 -0.5461  0.8113
16845TIP3   OH271949   2.961   0.054   2.043  0.6987 -0.1992 -0.5185
16845TIP3    H171950   3.029  -0.013   2.034 -0.6751 -1.6199 -0.7259
16845TIP3    H271951   2.927   0.042   2.132 -0.7108 -0.9488 -1.1355
16846TIP3   OH271952   1.961   5.365  16.711  0.0627 -0.9901  0.4008
16846TIP3    H171953   1.875   5.332  16.685 -0.6147 -0.3984  1.8084
16846TIP3    H271954   1.956   5.459  16.696  0.2193 -0.8615  1.1203
16847TIP3   OH271955   5.100   4.227  13.359  0.4292 -0.1176 -0.1609
16847TIP3    H171956   5.155   4.183  13.294  1.7852  0.3874  0.6214
16847TIP3    H271957   5.020   4.174  13.361  0.7637 -0.7146 -1.5141
16848TIP3   OH271958   2.751   4.128   3.683 -0.4204 -0.3373  0.5541
16848TIP3    H171959   2.790   4.200   3.633  0.7914 -0.7354  0.8712
16848TIP3    H271960   2.684   4.170   3.737 -2.0054  0.0534 -1.5700
16849TIP3   OH271961   6.596   0.981   2.028  0.1853  0.2355  0.0724
16849TIP3    H171962   6.638   0.895   2.020  0.2200 -0.0482  2.6122
16849TIP3    H271963   6.636   1.020   2.106 -0.1100  2.4310 -0.7974
16850TIP3   OH271964   3.731   2.950  12.454 -0.2024  0.0281  0.6575
16850TIP3    H171965   3.639   2.940  12.427 -0.1974 -1.1071  1.0052
16850TIP3    H271966   3.769   2.863  12.442  0.7482  0.4118  0.8358
16851TIP3   OH271967   4.735   0.720   2.670  0.2720 -0.5360 -0.4899
16851TIP3    H171968   4.816   0.710   2.620  1.1779 -1.7420  1.1154
16851TIP3    H271969   4.764   0.719   2.762 -1.0727  3.4557  0.2058
16852TIP3   OH271970   5.844   3.796   1.083 -0.2417  0.1644 -0.0042
16852TIP3    H171971   5.843   3.892   1.087  0.3130  0.2513 -1.4200
16852TIP3    H271972   5.887   3.776   1.000 -1.2797 -1.3139 -0.2209
16853TIP3   OH271973   0.692   2.994  12.143  0.5184  0.2991  0.6454
16853TIP3    H171974   0.669   3.085  12.124  0.6274  0.4556  1.2377
16853TIP3    H271975   0.608   2.947  12.143  0.5658  0.1921 -0.6989
16854TIP3   OH271976   2.380   3.827   3.579  0.0439  0.0019 -0.3092
16854TIP3    H171977   2.437   3.864   3.511  2.8325 -0.1646  1.7887
16854TIP3    H271978   2.388   3.887   3.653 -0.7751 -1.2053  0.7997
16855TIP3   OH271979   3.313   5.764  17.168 -0.0258 -0.2458 -0.5862
16855TIP3    H171980   3.295   5.690  17.226 -1.4296  0.5703  0.0597
16855TIP3    H271981   3.231   5.813  17.164  1.1219  1.8507 -0.1744
16856TIP3   OH271982   4.785   4.243   4.308  0.1525 -0.5923 -0.1015
16856TIP3    H171983   4.777   4.260   4.214  2.3765 -0.3299 -0.2904
16856TIP3    H271984   4.855   4.301   4.337 -1.4717  0.4323  2.0610
16857TIP3   OH271985   4.568   5.341   2.750 -0.1097  0.2460 -0.2267
16857TIP3    H171986   4.578   5.331   2.655  1.3857 -0.2641 -0.0378
16857TIP3    H271987   4.654   5.372   2.780 -0.5354  0.3090  0.9737
16858TIP3   OH271988   3.610   1.189  11.874  0.1186 -0.2216 -0.1884
16858TIP3    H171989   3.702   1.185  11.847  0.7738 -0.9426  1.9481
16858TIP3    H271990   3.562   1.150  11.801  1.3883  0.9621 -1.7299
16859TIP3   OH271991   3.656   3.128  13.326  0.3931 -0.2256 -0.8686
16859TIP3    H171992   3.636   3.035  13.330  2.8099 -0.9456 -2.9989
16859TIP3    H271993   3.747   3.135  13.357 -0.7395  2.0061  2.6219
16860TIP3   OH271994   1.286   6.116   6.315  0.4039  0.3385  0.7070
16860TIP3    H171995   1.191   6.131   6.313  0.2642 -0.5648 -0.0967
16860TIP3    H271996   1.312   6.112   6.223  1.0329 -0.5269  0.9047
16861TIP3   OH271997   2.516   4.282  14.152  0.0395  0.4717 -0.2530
16861TIP3    H171998   2.538   4.346  14.220 -2.5344 -0.0164  1.1763
16861TIP3    H271999   2.537   4.197  14.192 -0.9779  0.2127 -0.2360
16862TIP3   OH272000   3.159   0.045  12.616  0.2616  0.0358 -0.1343
16862TIP3    H172001   3.163   0.126  12.564  2.8742 -0.0387 -0.1585
16862TIP3    H272002   3.149  -0.024  12.551  0.7955  0.1451 -0.3370
16863TIP3   OH272003   4.303   2.526  14.301 -0.0834 -0.4691 -0.0227
16863TIP3    H172004   4.304   2.452  14.363 -3.0019 -0.8885 -0.3350
16863TIP3    H272005   4.345   2.491  14.222 -2.4474 -2.3374 -0.5920
16864TIP3   OH272006   4.339   1.007   2.370  0.0288  0.2749 -1.3332
16864TIP3    H172007   4.395   0.968   2.302  0.6517 -0.3501 -0.4775
16864TIP3    H272008   4.399   1.029   2.441 -0.6060  1.0269 -1.0197
16865TIP3   OH272009   5.061   3.479  17.122 -0.0428 -0.5474  0.1980
16865TIP3    H172010   4.988   3.509  17.069  0.6281 -0.2353 -0.5716
16865TIP3    H272011   5.064   3.541  17.195 -0.1734 -0.2008 -0.0877
16866TIP3   OH272012   4.691   0.452  13.004  0.4474 -0.6506  0.3122
16866TIP3    H172013   4.779   0.456  13.039  0.9806 -4.1909 -0.2623
16866TIP3    H272014   4.700   0.405  12.920 -2.0844 -2.7446  1.0587
16867TIP3   OH272015   3.664   1.495   4.946 -0.0104  0.5834 -0.0195
16867TIP3    H172016   3.607   1.552   4.998 -0.6364 -0.4296  0.4375
16867TIP3    H272017   3.626   1.407   4.956  0.5265  0.1816 -1.2627
16868TIP3   OH272018   4.641   6.033  13.470 -0.7493  0.1864 -0.4094
16868TIP3    H172019   4.707   6.081  13.420 -1.1516  0.3741 -0.7650
16868TIP3    H272020   4.666   6.047  13.561 -0.0601 -0.0831 -0.5462
16869TIP3   OH272021   1.630   0.528   0.229  0.1580 -0.0623 -0.1018
16869TIP3    H172022   1.632   0.434   0.214  1.7864 -0.0279 -0.3175
16869TIP3    H272023   1.632   0.566   0.141  2.6590  0.1398 -0.0189
16870TIP3   OH272024   0.953   0.788  16.972 -0.1716  0.0538  0.6892
16870TIP3    H172025   0.885   0.854  16.983 -0.6960 -0.2093 -0.7772
16870TIP3    H272026   0.906   0.705  16.981  0.1889 -0.1274  0.9086
16871TIP3   OH272027   1.269   4.901  11.955 -0.8332  0.1984  0.6034
16871TIP3    H172028   1.194   4.896  11.896  1.4606 -3.8656 -2.6118
16871TIP3    H272029   1.286   4.995  11.965 -3.3184  1.1987 -2.6826
16872TIP3   OH272030   5.675   5.367  11.465 -0.4118 -0.3782 -0.2301
16872TIP3    H172031   5.650   5.277  11.445 -3.0600  0.5594 -1.6685
16872TIP3    H272032   5.674   5.371  11.561  0.5682 -2.0396 -0.1069
16873TIP3   OH272033   0.298   2.556   0.614 -0.4978 -0.3080 -0.0410
16873TIP3    H172034   0.330   2.621   0.551  2.5697  0.5499  2.1277
16873TIP3    H272035   0.214   2.591   0.643  1.4665  3.5655  1.8245
16874TIP3   OH272036   2.896   5.153   2.905 -0.0406  0.4395  0.1446
16874TIP3    H172037   2.888   5.138   2.999  1.4067 -0.1746  0.1903
16874TIP3    H272038   2.881   5.067   2.866 -2.8742  1.0605 -0.4055
16875TIP3   OH272039   1.011   2.904  15.944 -0.0414  0.4740 -0.0258
16875TIP3    H172040   1.103   2.886  15.966 -0.2852 -1.0750 -0.1208
16875TIP3    H272041   1.015   2.967  15.872  1.0630 -1.1723 -1.5115
16876TIP3   OH272042   2.787   1.105  13.518 -0.4619 -0.1423 -0.0216
16876TIP3    H172043   2.803   1.062  13.602 -3.0528  1.4873  1.4528
16876TIP3    H272044   2.859   1.167  13.508 -0.5026  0.1383  1.3495
16877TIP3   OH272045   1.829   6.352  10.713  0.5762 -0.0217 -0.3224
16877TIP3    H172046   1.795   6.314  10.632  0.5909  0.9458 -0.7895
16877TIP3    H272047   1.760   6.337  10.777 -1.4269  3.0198 -1.5395
16878TIP3   OH272048   4.087   5.852   5.254 -0.2921 -0.2775 -0.4568
16878TIP3    H172049   4.156   5.810   5.305 -1.2861 -0.9389  0.3805
16878TIP3    H272050   4.078   5.939   5.292 -0.3592 -0.4175 -0.1531
16879TIP3   OH272051   5.745   0.877  14.358  0.0017  0.3552  0.0331
16879TIP3    H172052   5.789   0.946  14.308 -0.2274 -0.5057 -1.4168
16879TIP3    H272053   5.655   0.909  14.368  0.3616  1.0936  1.0146
16880TIP3   OH272054   0.304   1.027   0.640  0.0807  0.2872  0.0243
16880TIP3    H172055   0.282   0.997   0.552 -0.2106 -0.0695  0.2128
16880TIP3    H272056   0.397   1.007   0.650 -0.6507 -3.3688  1.1811
16881TIP3   OH272057   6.179   0.511   0.309 -0.3755 -0.1735  0.1928
16881TIP3    H172058   6.172   0.415   0.313  0.7646 -0.2264  2.0209
16881TIP3    H272059   6.111   0.542   0.369 -0.6999  0.1989 -0.3493
16882TIP3   OH272060   0.320   1.668   5.188  0.2049  0.6149  0.7551
16882TIP3    H172061   0.306   1.697   5.278 -1.8309 -0.4198  0.8174
16882TIP3    H272062   0.336   1.574   5.195 -2.1697  0.0869 -0.0676
16883TIP3   OH272063   1.218   3.678   1.316 -0.2431  0.0036 -0.3707
16883TIP3    H172064   1.283   3.718   1.259 -0.2796  1.9488  0.8749
16883TIP3    H272065   1.148   3.649   1.256  1.0914 -0.8900 -1.5751
16884TIP3   OH272066   1.348   4.368  14.318  0.1060 -0.2746 -0.2731
16884TIP3    H172067   1.284   4.426  14.359  0.6671  0.4052 -0.3445
16884TIP3    H272068   1.322   4.280  14.346 -0.7529  0.0030 -0.1639
16885TIP3   OH272069   5.328   1.197   0.598 -0.0477  0.1190  0.0226
16885TIP3    H172070   5.335   1.229   0.508 -2.2030 -0.4291 -0.3738
16885TIP3    H272071   5.409   1.147   0.612  0.3703  0.3120 -1.5443
16886TIP3   OH272072   4.074   1.918   1.896  0.2540  0.1679 -0.1825
16886TIP3    H172073   3.991   1.941   1.854 -1.3812 -4.0128  0.2674
16886TIP3    H272074   4.132   1.897   1.823 -0.3308 -0.4356 -0.4914
16887TIP3   OH272075   1.357   1.016   2.757 -0.3993  0.2335  0.3097
16887TIP3    H172076   1.320   0.992   2.673 -1.2119  3.6935 -0.4708
16887TIP3    H272077   1.412   1.093   2.739 -1.9093  2.1731  3.0494
16888TIP3   OH272078   3.176   3.412  12.434  0.0462  0.8214  0.1718
16888TIP3    H172079   3.151   3.344  12.497  0.4999  0.7069  0.2333
16888TIP3    H272080   3.250   3.456  12.475  0.5551  0.5360 -0.4222
16889TIP3   OH272081   5.751   3.467   2.747 -0.4872 -0.1553  0.5165
16889TIP3    H172082   5.825   3.424   2.790 -0.8561  0.3597  1.7433
16889TIP3    H272083   5.710   3.399   2.695  0.5270 -0.5868  0.2531
16890TIP3   OH272084   5.562   0.199   5.519  0.0787  0.2226  0.8733
16890TIP3    H172085   5.549   0.264   5.588 -0.7895  0.1049  0.8387
16890TIP3    H272086   5.641   0.152   5.545  0.0749  0.5475  1.5007
16891TIP3   OH272087   3.715   6.457   0.674  0.5530 -0.4197 -0.4814
16891TIP3    H172088   3.806   6.436   0.655  0.1900 -2.8092  0.1479
16891TIP3    H272089   3.678   6.484   0.590  1.8109  0.6854 -0.7190
16892TIP3   OH272090   2.253   2.551  12.590 -0.1804  0.2935  0.5494
16892TIP3    H172091   2.235   2.618  12.656  3.2047  1.4065  0.5170
16892TIP3    H272092   2.330   2.505  12.622  1.3105  0.5630 -2.3040
16893TIP3   OH272093   6.226   1.306   2.642  0.4395 -0.8888 -0.2722
16893TIP3    H172094   6.136   1.332   2.664  1.5746  1.8537  1.8255
16893TIP3    H272095   6.233   1.322   2.548 -0.7384  0.8384 -0.1227
16894TIP3   OH272096   6.714   6.497   3.399 -0.8568  1.2921 -0.5416
16894TIP3    H172097   6.725   6.408   3.366 -2.1152  0.7475  0.4029
16894TIP3    H272098   6.691   6.486   3.491 -2.0185  2.5367 -0.6462
16895TIP3   OH272099   2.566   1.784  11.149  0.1250 -0.2173  0.7069
16895TIP3    H172100   2.641   1.840  11.172  0.4868 -0.6034  0.4783
16895TIP3    H272101   2.560   1.790  11.054  0.8610 -1.4306  0.5651
16896TIP3   OH272102   3.628   5.276  16.126 -0.5281  0.1707  0.3027
16896TIP3    H172103   3.667   5.361  16.143 -1.6575  0.7278  0.2205
16896TIP3    H272104   3.700   5.214  16.133  0.1140  1.0139  1.3707
16897TIP3   OH272105   0.023   6.178  15.637 -0.1154  0.7492  0.3598
16897TIP3    H172106   0.028   6.125  15.716 -1.4180 -1.6063 -1.0428
16897TIP3    H272107   0.112   6.211  15.625  0.8691 -1.4730  1.1100
16898TIP3   OH272108   0.370   3.715   1.448  0.1437  0.1907  0.3721
16898TIP3    H172109   0.326   3.801   1.453 -0.7926 -0.1923 -0.8566
16898TIP3    H272110   0.391   3.694   1.539  0.9400  1.9886  0.6519
16899TIP3   OH272111   1.361   6.359  16.250  0.2978 -0.3682 -0.2331
16899TIP3    H172112   1.373   6.448  16.217 -0.5443 -0.2465 -0.2256
16899TIP3    H272113   1.290   6.366  16.314  1.0299 -0.8412  0.6549
16900TIP3   OH272114   4.319   0.079  15.530 -0.0674  0.0532  0.2185
16900TIP3    H172115   4.409   0.105  15.549  0.1633  1.0769 -1.9717
16900TIP3    H272116   4.265   0.145  15.574  0.2334 -0.3010  1.1495
16901TIP3   OH272117   6.392   4.299  16.314  0.1822 -0.1771 -0.1584
16901TIP3    H172118   6.369   4.226  16.371 -0.6733 -0.2532 -0.5856
16901TIP3    H272119   6.310   4.346  16.300  0.6040  0.5129 -0.3943
16902TIP3   OH272120   2.271   3.134  12.967 -0.2723  0.4023 -0.0795
16902TIP3    H172121   2.189   3.159  12.924 -0.5635  1.2121  0.9072
16902TIP3    H272122   2.317   3.082  12.901 -1.1918  0.6584 -0.9627
16903TIP3   OH272123   1.056   4.938   0.458  0.2970  0.3910 -0.2360
16903TIP3    H172124   1.004   4.860   0.440  0.3455 -0.1596  1.8220
16903TIP3    H272125   1.044   4.993   0.380 -0.6838 -1.1362 -1.2150
16904TIP3   OH272126   1.548   6.404  12.868 -0.3469  0.0947 -0.3364
16904TIP3    H172127   1.601   6.483  12.881  0.8973 -0.9956  1.7404
16904TIP3    H272128   1.462   6.427  12.902 -0.1721  0.7709 -0.3375
16905TIP3   OH272129   4.978   4.027  11.673  0.1083  0.1799  0.0408
16905TIP3    H172130   4.991   4.107  11.723 -2.4372  0.5143  0.3205
16905TIP3    H272131   4.885   4.006  11.684  0.5985 -2.6482 -0.3029
16906TIP3   OH272132   6.037   6.625   2.221 -0.7945 -0.0626  0.6061
16906TIP3    H172133   6.013   6.537   2.250  2.3997 -0.6307  1.8968
16906TIP3    H272134   6.074   6.612   2.134 -1.3115  0.2151  0.3358
16907TIP3   OH272135   6.547   1.742   3.069 -0.5030  0.5584 -0.1720
16907TIP3    H172136   6.562   1.816   3.128 -1.2459  1.5484 -1.1749
16907TIP3    H272137   6.596   1.765   2.990  1.3823 -1.2544  0.3716
16908TIP3   OH272138   0.458   3.396   3.877  0.0954 -0.0737 -0.3975
16908TIP3    H172139   0.486   3.314   3.835  2.3346 -0.6940  2.0445
16908TIP3    H272140   0.406   3.369   3.952  1.5083  0.6137  0.8992
16909TIP3   OH272141   5.194   5.776   3.167 -0.0613  0.0790 -0.3234
16909TIP3    H172142   5.276   5.767   3.119  0.6645  0.4522  0.8164
16909TIP3    H272143   5.190   5.699   3.224  0.0472  0.5955  0.4018
16910TIP3   OH272144   0.969   2.007  16.722  0.2125  0.2052  0.3687
16910TIP3    H172145   0.931   1.993  16.636  0.6602 -0.6079  0.2928
16910TIP3    H272146   1.020   2.087  16.713  0.5249 -0.0500 -0.2252
16911TIP3   OH272147   3.036   2.559   2.241 -0.1982 -0.4482 -0.5254
16911TIP3    H172148   3.123   2.583   2.271 -0.2367 -0.9681  0.0310
16911TIP3    H272149   2.980   2.572   2.318 -0.6091 -0.1494 -0.8680
16912TIP3   OH272150   3.025   6.029  11.226 -0.8729  0.2769 -0.5571
16912TIP3    H172151   3.044   5.964  11.294 -2.2580  0.9811  0.5776
16912TIP3    H272152   3.031   5.981  11.144 -0.5666 -0.9537  0.1587
16913TIP3   OH272153   1.623   5.131   0.840 -0.9421 -0.0009  0.0367
16913TIP3    H172154   1.643   5.093   0.925 -0.3386 -0.3617 -0.2591
16913TIP3    H272155   1.554   5.076   0.804 -0.6563 -0.3204 -0.0323
16914TIP3   OH272156   0.897   0.296   0.201 -0.0870  0.1233 -0.5641
16914TIP3    H172157   0.874   0.294   0.294 -1.0123  1.3284 -0.7413
16914TIP3    H272158   0.819   0.263   0.157  0.4823 -0.7872 -0.9039
16915TIP3   OH272159   0.146   3.422   3.941 -0.3730 -0.5997 -0.6937
16915TIP3    H172160   0.076   3.433   4.005  1.0463 -0.8399  0.9526
16915TIP3    H272161   0.197   3.503   3.947  2.1111 -2.1711  1.5086
16916TIP3   OH272162   3.897   2.180  16.745 -0.5456 -0.2549  0.4183
16916TIP3    H172163   3.897   2.095  16.701  0.7673 -0.5453  0.9383
16916TIP3    H272164   3.887   2.158  16.838 -0.5521  0.1819  0.5220
16917TIP3   OH272165   0.682   6.302  13.548 -0.5073 -0.0847  0.2726
16917TIP3    H172166   0.633   6.315  13.629  1.2073 -0.0232  1.3546
16917TIP3    H272167   0.768   6.341  13.565  0.2378 -0.9768 -1.2056
16918TIP3   OH272168   3.983   1.327  16.393 -0.1120  0.7268 -0.4734
16918TIP3    H172169   4.079   1.325  16.393 -0.1194 -0.7597 -0.6640
16918TIP3    H272170   3.959   1.297  16.480 -0.3957  0.1532 -0.7427
16919TIP3   OH272171   5.953   5.816  13.294  0.1926 -0.1156 -0.3170
16919TIP3    H172172   5.916   5.899  13.263 -1.0917 -0.9688 -1.1417
16919TIP3    H272173   5.989   5.775  13.216  1.2134 -0.1607  0.1642
16920TIP3   OH272174   1.888   1.514   0.249  0.9319  0.9818 -0.1207
16920TIP3    H172175   1.914   1.558   0.168  0.1635  0.8412 -0.4455
16920TIP3    H272176   1.895   1.582   0.316  1.5362  1.1084 -0.3013
16921TIP3   OH272177   6.031   3.121   2.316 -0.0825  0.2045  0.4377
16921TIP3    H172178   6.088   3.196   2.333 -3.1731  2.6673  0.9871
16921TIP3    H272179   5.960   3.130   2.380 -2.1007 -1.5089 -1.3926
16922TIP3   OH272180   4.822   0.003   4.932  0.0364 -0.1786 -0.2958
16922TIP3    H172181   4.807   0.074   4.870  2.6725 -0.0937 -0.9656
16922TIP3    H272182   4.834  -0.075   4.876  2.1426 -0.1558  0.0484
16923TIP3   OH272183   4.449   1.983   1.870  0.0496 -0.6149 -0.2985
16923TIP3    H172184   4.496   1.901   1.854  0.6284 -0.3857  0.1362
16923TIP3    H272185   4.363   1.970   1.832 -0.5869 -2.1980  1.5315
16924TIP3   OH272186   5.687   6.685  16.105 -0.1738  0.2296  0.7747
16924TIP3    H172187   5.631   6.609  16.088 -1.7307  1.3962  0.3456
16924TIP3    H272188   5.731   6.702  16.022  0.4037 -0.3612  0.9549
16925TIP3   OH272189   1.440   5.467  16.211  0.2723  0.0592  0.4428
16925TIP3    H172190   1.384   5.439  16.139  1.5652 -1.8983  0.0963
16925TIP3    H272191   1.387   5.453  16.289  0.1409 -1.5417  0.1125
16926TIP3   OH272192   6.129   5.846  12.759  0.0727  0.0382 -0.4770
16926TIP3    H172193   6.073   5.769  12.746 -1.4936  1.2679 -1.4483
16926TIP3    H272194   6.176   5.856  12.677  1.2516 -0.6063  0.1061
16927TIP3   OH272195   0.394   5.847   2.015 -0.2244  0.2543 -0.2484
16927TIP3    H172196   0.470   5.840   1.959 -0.1755 -1.5992 -0.0073
16927TIP3    H272197   0.419   5.911   2.082  0.8450  0.1968 -0.5771
16928TIP3   OH272198   4.709   1.979  16.412 -0.1588 -0.1155 -0.3719
16928TIP3    H172199   4.662   1.981  16.496  0.2110 -1.7575 -0.0798
16928TIP3    H272200   4.665   1.910  16.362  0.2647  0.1593 -1.1429
16929TIP3   OH272201   6.407   1.018   3.106 -0.1136  0.0723 -0.5151
16929TIP3    H172202   6.470   1.082   3.074 -0.6504  0.1178 -1.4905
16929TIP3    H272203   6.462   0.945   3.137  0.4425  0.3785 -0.7603
16930TIP3   OH272204   1.218   2.484  14.027 -0.1067 -0.2897  0.6993
16930TIP3    H172205   1.271   2.562  14.009 -0.0607 -0.4097  0.3046
16930TIP3    H272206   1.192   2.452  13.940 -0.1107 -0.7230  0.8594
16931TIP3   OH272207   2.840   5.460  14.017  0.2082 -0.1644 -0.0431
16931TIP3    H172208   2.855   5.554  14.006  2.7674 -0.6395 -1.4877
16931TIP3    H272209   2.871   5.440  14.106 -2.9252  0.7005  1.3687
16932TIP3   OH272210   4.380   5.676   0.733 -0.0366  0.4210 -0.1443
16932TIP3    H172211   4.336   5.747   0.781 -1.4761 -0.4230 -0.1501
16932TIP3    H272212   4.377   5.704   0.642 -0.4661  0.4235 -0.1306
16933TIP3   OH272213   6.561   3.831  13.636  0.4264  0.3006  0.3204
16933TIP3    H172214   6.468   3.852  13.646  0.2177 -1.0289  1.3938
16933TIP3    H272215   6.577   3.839  13.542 -0.6319  1.1060  0.1945
16934TIP3   OH272216   2.126   1.021   0.632  0.0943 -0.2752  0.6637
16934TIP3    H172217   2.088   1.108   0.643  0.9572  0.1759  0.2121
16934TIP3    H272218   2.202   1.022   0.691 -0.2962 -0.9816  1.1893
16935TIP3   OH272219   5.968   1.254   0.205  0.0531 -0.4493 -0.3299
16935TIP3    H172220   6.042   1.260   0.265  0.2178 -0.8021 -0.4897
16935TIP3    H272221   5.977   1.329   0.147  0.1711 -0.3799 -0.2200
16936TIP3   OH272222   2.885   2.148  11.601  0.6949  0.4733 -0.7064
16936TIP3    H172223   2.891   2.060  11.564  0.1568  0.0121  0.2471
16936TIP3    H272224   2.886   2.134  11.696 -0.2458  1.4199 -0.5306
16937TIP3   OH272225   3.920   6.482  16.515 -0.0221 -0.1312 -0.0266
16937TIP3    H172226   4.013   6.469  16.532  0.1723  1.1896  0.0340
16937TIP3    H272227   3.905   6.441  16.429  0.9515  0.8804 -0.7068
16938TIP3   OH272228   5.783   2.652  15.951  0.2496 -0.0765 -0.2249
16938TIP3    H172229   5.823   2.730  15.988  0.0159  1.1710 -2.4066
16938TIP3    H272230   5.708   2.685  15.901  0.1766 -1.6706 -1.2480
16939TIP3   OH272231   0.223   6.673  15.861 -0.3454 -0.2673  0.0821
16939TIP3    H172232   0.302   6.727  15.864 -1.3934  1.3735 -0.8527
16939TIP3    H272233   0.182   6.686  15.946  1.0903 -2.3352  1.1863
16940TIP3   OH272234   0.665   1.681   1.708  0.1076  0.1839 -0.1526
16940TIP3    H172235   0.589   1.653   1.759  0.8020 -0.3196  0.6250
16940TIP3    H272236   0.736   1.686   1.771  0.4451  1.9600 -0.6145
16941TIP3   OH272237   0.963   5.483   5.615 -0.2132 -0.7046 -0.2796
16941TIP3    H172238   1.054   5.502   5.596 -0.6029  1.6651 -0.0921
16941TIP3    H272239   0.963   5.456   5.707  0.1996  0.3280  0.0392
16942TIP3   OH272240   3.448   2.306  12.445 -0.1072  0.0959 -0.4286
16942TIP3    H172241   3.414   2.237  12.387  1.7789 -0.6724 -0.6910
16942TIP3    H272242   3.486   2.258  12.518 -0.8033  0.9871  0.5343
16943TIP3   OH272243   4.081   3.612   4.106 -0.5383 -0.3715 -0.6100
16943TIP3    H172244   4.121   3.633   4.022 -1.7991  1.7325 -0.7442
16943TIP3    H272245   4.138   3.654   4.171 -0.6053 -0.3539 -0.5622
16944TIP3   OH272246   2.696   2.441   4.503  0.2543  0.0360 -0.2152
16944TIP3    H172247   2.738   2.526   4.519 -0.7420  0.3630  0.8164
16944TIP3    H272248   2.644   2.454   4.424  0.7781  0.1229 -0.5499
16945TIP3   OH272249   1.443   5.944  13.748  0.1935  0.5780 -0.1369
16945TIP3    H172250   1.472   5.902  13.667  1.1486 -0.3773  0.6646
16945TIP3    H272251   1.372   6.002  13.721 -1.5142 -1.8753 -1.2549
16946TIP3   OH272252   4.226   6.300  16.981  0.8679 -0.1278 -0.6936
16946TIP3    H172253   4.276   6.223  16.954 -0.8832 -1.9643  0.9295
16946TIP3    H272254   4.205   6.284  17.073 -1.1216  1.3873 -0.8142
16947TIP3   OH272255   1.729   0.375   1.562  0.3273 -0.0615  0.0044
16947TIP3    H172256   1.664   0.354   1.495 -0.3561  2.7826 -0.3115
16947TIP3    H272257   1.811   0.386   1.515  0.5193 -1.0591  0.0755
16948TIP3   OH272258   2.527   4.385   1.542 -0.4383 -0.1316  0.0488
16948TIP3    H172259   2.611   4.362   1.581 -0.0694  1.2299  0.1001
16948TIP3    H272260   2.520   4.328   1.465  1.0685  0.5229 -0.6039
16949TIP3   OH272261   5.345   3.033   0.126  0.4738  0.1290 -0.4191
16949TIP3    H172262   5.281   3.100   0.100  1.7641  1.3179 -0.6699
16949TIP3    H272263   5.303   2.950   0.104 -1.6053  0.7637  0.8426
16950TIP3   OH272264   5.133   3.416  10.829 -0.1181 -0.0140  0.4286
16950TIP3    H172265   5.065   3.477  10.859 -1.1936 -0.4432 -1.0476
16950TIP3    H272266   5.085   3.335  10.810  0.6027  0.0148 -1.6950
16951TIP3   OH272267   5.922   6.237  11.047 -0.1146 -0.7251  0.1554
16951TIP3    H172268   5.955   6.306  10.988 -1.3718 -0.5844 -0.4030
16951TIP3    H272269   5.902   6.164  10.989  0.7024 -1.3809  0.6887
16952TIP3   OH272270   5.615   1.229   4.450 -1.2217 -0.3059  0.1685
16952TIP3    H172271   5.621   1.324   4.449  0.5752 -0.3565  1.3819
16952TIP3    H272272   5.703   1.199   4.427 -1.3861 -1.6401  1.1457
16953TIP3   OH272273   5.190   2.352   3.038  0.2083 -0.7149 -0.0807
16953TIP3    H172274   5.242   2.387   2.965  0.6844 -1.2691 -0.0104
16953TIP3    H272275   5.168   2.263   3.011  0.4547 -0.9523  0.4832
16954TIP3   OH272276   2.132   5.952   1.854  0.3049  0.6772  0.0385
16954TIP3    H172277   2.151   5.913   1.769 -0.0798  2.2606 -0.8152
16954TIP3    H272278   2.217   5.981   1.887  0.8571 -2.1996  1.4449
16955TIP3   OH272279   0.881   3.369  13.393  0.2270  0.2898 -0.3254
16955TIP3    H172280   0.835   3.309  13.452 -1.7209  2.9985  1.0824
16955TIP3    H272281   0.929   3.311  13.334 -3.4838 -2.7625 -0.7307
16956TIP3   OH272282   6.516   4.456   5.642  0.0509  0.2876 -0.0512
16956TIP3    H172283   6.520   4.542   5.602 -0.1772 -0.2352 -1.2366
16956TIP3    H272284   6.524   4.472   5.736  1.0724  1.5031 -0.3366
16957TIP3   OH272285   2.903   3.560  13.158  0.0562  0.2001  0.1603
16957TIP3    H172286   2.908   3.649  13.123 -0.4507  0.5682  1.0012
16957TIP3    H272287   2.817   3.555  13.200 -0.1917 -0.9031 -0.4279
16958TIP3   OH272288   3.593   0.316   2.039 -0.0803  0.7561  0.1911
16958TIP3    H172289   3.687   0.333   2.047 -0.0031  0.3095  0.2783
16958TIP3    H272290   3.555   0.401   2.016  0.2816  1.0519  0.6448
16959TIP3   OH272291   0.837   2.546  10.904  0.0945 -0.0514  0.2618
16959TIP3    H172292   0.763   2.592  10.943  1.4085  2.6265 -0.1473
16959TIP3    H272293   0.892   2.615  10.867  2.2692 -1.9903 -0.4235
16960TIP3   OH272294   4.406   0.009   4.835  0.1743 -0.4330 -0.1220
16960TIP3    H172295   4.434  -0.018   4.748  4.0664  3.8217 -0.5808
16960TIP3    H272296   4.339   0.076   4.819  0.9131  0.3758  0.0984
16961TIP3   OH272297   2.255   1.230   2.245 -0.0402  0.0932 -0.2418
16961TIP3    H172298   2.241   1.252   2.338  1.5804 -1.1422  0.3436
16961TIP3    H272299   2.253   1.314   2.200  0.4061  0.8647  1.1146
16962TIP3   OH272300   6.461   2.370   4.830 -0.1808  0.0539 -0.0442
16962TIP3    H172301   6.399   2.307   4.866  0.1130 -0.3958 -0.3278
16962TIP3    H272302   6.467   2.439   4.897  0.5104 -0.8699  0.8763
16963TIP3   OH272303   1.236   2.609   1.194  0.0251  0.3072 -0.1545
16963TIP3    H172304   1.307   2.584   1.253 -0.9968  0.8509  1.3561
16963TIP3    H272305   1.189   2.679   1.240 -2.2713 -0.9075 -0.4833
16964TIP3   OH272306   4.807   3.988  14.804 -0.2343  0.3868 -0.1013
16964TIP3    H172307   4.745   3.993  14.731  0.9682  0.5950 -1.1572
16964TIP3    H272308   4.772   4.047  14.870 -2.7351 -1.7135  0.6327
16965TIP3   OH272309   6.168   2.966  15.967 -0.0741  0.3262 -0.6727
16965TIP3    H172310   6.202   3.002  16.048  2.4996 -0.8976 -1.1052
16965TIP3    H272311   6.181   3.035  15.902  2.3050 -0.2701 -0.9368
16966TIP3   OH272312   2.967   2.703  13.878 -0.5211  0.1329 -0.1281
16966TIP3    H172313   2.936   2.614  13.856  1.9311 -0.9580  0.4779
16966TIP3    H272314   3.005   2.735  13.796  1.9761 -0.9650  0.5155
16967TIP3   OH272315   1.803   2.033   5.573 -0.2326  0.0384 -0.7377
16967TIP3    H172316   1.878   2.092   5.561 -1.4380  1.5051 -1.4418
16967TIP3    H272317   1.840   1.955   5.614  1.6346  0.8047 -0.8619
16968TIP3   OH272318   2.133   6.674  16.666 -0.5410  0.2084 -0.1619
16968TIP3    H172319   2.112   6.734  16.738 -1.1263 -1.1963  0.8774
16968TIP3    H272320   2.055   6.674  16.611 -0.6192  0.2203 -0.0492
16969TIP3   OH272321   1.165   0.647  15.163 -0.6703 -0.9309  0.0751
16969TIP3    H172322   1.142   0.684  15.078  0.0208 -0.1455  0.2101
16969TIP3    H272323   1.082   0.613  15.198 -1.9312  2.5728  0.9403
16970TIP3   OH272324   4.842   4.917  16.858 -0.4309 -0.0107  0.3932
16970TIP3    H172325   4.804   4.997  16.820 -1.5454 -0.4425  0.5580
16970TIP3    H272326   4.935   4.921  16.834 -0.5507  1.1289  0.0467
16971TIP3   OH272327   0.845   6.751  16.840 -0.6516  0.5870  0.0334
16971TIP3    H172328   0.893   6.693  16.900  0.2996  0.1667 -1.0789
16971TIP3    H272329   0.913   6.808  16.804 -0.8316 -0.4421 -2.0675
16972TIP3   OH272330   6.195   4.734  12.778 -0.3789 -0.0655 -0.0344
16972TIP3    H172331   6.138   4.659  12.792  0.7410 -1.1051 -0.7981
16972TIP3    H272332   6.159   4.803  12.834  0.4086 -2.1304  3.3178
16973TIP3   OH272333   5.103   6.577  13.216  1.0286  0.0493  0.1901
16973TIP3    H172334   5.087   6.625  13.134  0.4505 -1.2583 -0.4937
16973TIP3    H272335   5.052   6.625  13.281 -0.9163 -0.5668 -0.8015
16974TIP3   OH272336   6.557   2.642  15.860  1.3716 -0.4493 -0.3553
16974TIP3    H172337   6.513   2.569  15.904  1.3118 -0.7605 -0.9175
16974TIP3    H272338   6.585   2.700  15.931  0.7045 -0.6145  0.0509
16975TIP3   OH272339   0.862   3.944  15.736  0.5516 -0.4746  0.2494
16975TIP3    H172340   0.808   3.931  15.814  3.8637  1.5378  3.1719
16975TIP3    H272341   0.823   4.020  15.692 -2.1196 -2.4089 -0.9801
16976TIP3   OH272342   3.802   2.658   1.816  0.0239  0.2231 -0.5302
16976TIP3    H172343   3.844   2.660   1.902  1.8192  2.4020 -1.3476
16976TIP3    H272344   3.868   2.621   1.757 -1.2600 -1.4591 -0.9924
16977TIP3   OH272345   0.572   2.471   1.332  0.1186 -0.0512  0.2720
16977TIP3    H172346   0.620   2.389   1.332  0.6305  0.2159 -1.3360
16977TIP3    H272347   0.498   2.456   1.273  1.2590  1.1669 -1.5730
16978TIP3   OH272348   6.005   4.956   5.546 -0.5298  0.6145  0.0388
16978TIP3    H172349   6.077   5.019   5.538 -0.6913  0.6587 -1.3246
16978TIP3    H272350   5.985   4.931   5.456 -2.8504  1.3106  0.2836
16979TIP3   OH272351   5.048   0.668  13.397  0.1484 -0.1875  0.3865
16979TIP3    H172352   5.102   0.638  13.471 -0.5739  0.3129  1.1346
16979TIP3    H272353   5.099   0.645  13.320  0.6110 -1.3650  1.0067
16980TIP3   OH272354   0.687   2.190  15.131 -0.3369 -0.4184  0.0155
16980TIP3    H172355   0.698   2.192  15.036 -2.8455 -0.2169 -0.3330
16980TIP3    H272356   0.661   2.099  15.150  0.7168 -0.6086  0.6109
16981TIP3   OH272357   1.972   4.401   5.836  0.5338  0.3494 -0.0023
16981TIP3    H172358   2.021   4.469   5.882 -0.9748  0.6028  1.3068
16981TIP3    H272359   1.933   4.446   5.761  0.3960  0.6939  0.2758
16982TIP3   OH272360   6.177   5.145   4.548  0.1253  0.4220 -0.0246
16982TIP3    H172361   6.130   5.117   4.626 -0.2186 -1.6669 -0.9069
16982TIP3    H272362   6.233   5.218   4.577 -0.5226  0.1654  1.9651
16983TIP3   OH272363   4.504   4.547  16.368 -0.0772 -0.6226  0.1298
16983TIP3    H172364   4.537   4.614  16.308 -1.4702 -0.7286 -0.8160
16983TIP3    H272365   4.428   4.589  16.410 -0.6483 -1.4359 -0.0836
16984TIP3   OH272366   2.870   5.629   2.629 -0.1880  0.1546 -0.3015
16984TIP3    H172367   2.845   5.550   2.677 -1.9219  1.4044  0.9512
16984TIP3    H272368   2.864   5.604   2.537 -0.2419 -1.2880  0.0699
16985TIP3   OH272369   4.684   5.890  10.658  0.0338 -0.1424  0.3657
16985TIP3    H172370   4.615   5.835  10.695  0.8211  0.3172  2.7232
16985TIP3    H272371   4.751   5.827  10.628 -1.2285 -0.5758 -1.6915
16986TIP3   OH272372   2.297   5.880  11.871  0.3341  0.0702 -0.0657
16986TIP3    H172373   2.210   5.858  11.840  0.5431 -0.4034 -0.3279
16986TIP3    H272374   2.303   5.975  11.863 -0.9093  0.3828  1.9115
16987TIP3   OH272375   5.986   5.118  15.005  0.9212  0.0567  0.6014
16987TIP3    H172376   6.034   5.036  15.013 -0.7065 -1.2616 -1.8549
16987TIP3    H272377   6.036   5.170  14.942 -0.2961 -0.9686 -1.3005
16988TIP3   OH272378   1.669   3.905   2.300 -0.0528  0.2960  0.1691
16988TIP3    H172379   1.655   3.993   2.335  0.9866 -0.5294  2.9844
16988TIP3    H272380   1.599   3.852   2.339  1.5839 -0.8163  1.7917
16989TIP3   OH272381   6.476   6.215   6.205 -0.5204  0.1122 -1.1633
16989TIP3    H172382   6.396   6.182   6.164 -0.1974 -1.2984 -0.7017
16989TIP3    H272383   6.449   6.297   6.246 -2.2195 -1.2250  0.5566
16990TIP3   OH272384   5.760   5.751  10.915 -0.5118 -0.4867  0.2904
16990TIP3    H172385   5.719   5.812  10.853 -1.3650 -0.8297  0.5133
16990TIP3    H272386   5.847   5.735  10.878 -0.6751  0.0257 -0.3365
16991TIP3   OH272387   1.200   1.322   4.425 -0.3998  0.2989  0.1280
16991TIP3    H172388   1.231   1.353   4.340 -0.4541 -0.5425 -0.2071
16991TIP3    H272389   1.206   1.399   4.482 -0.5758  0.9297 -0.6862
16992TIP3   OH272390   4.599   3.323   2.460  0.2431  0.1667  0.6429
16992TIP3    H172391   4.526   3.323   2.398 -0.4369  0.8787  1.4179
16992TIP3    H272392   4.673   3.291   2.409 -1.0609 -2.8284  0.4096
16993TIP3   OH272393   5.257   6.260   6.143 -0.5379 -0.0492  0.1302
16993TIP3    H172394   5.280   6.352   6.134 -0.8666  0.0099 -0.1110
16993TIP3    H272395   5.294   6.219   6.064 -0.2765 -0.1484  0.3018
16994TIP3   OH272396   3.888   4.947   2.310 -0.1332  0.0561 -0.3748
16994TIP3    H172397   3.926   4.986   2.389  0.7355 -1.8873  0.2437
16994TIP3    H272398   3.929   4.994   2.238  2.0498 -0.6655  0.3169
16995TIP3   OH272399   5.012   6.636  11.225 -0.3520  0.2777  0.3430
16995TIP3    H172400   4.937   6.632  11.167 -1.1356  3.7281  0.9352
16995TIP3    H272401   5.038   6.544  11.237 -2.3629 -0.7895 -2.4872
16996TIP3   OH272402   3.290   5.564   5.296  0.1549 -0.5361  0.6751
16996TIP3    H172403   3.238   5.574   5.376  0.4755 -0.4557  0.8721
16996TIP3    H272404   3.257   5.633   5.238 -0.0166 -0.5387  0.7685
16997TIP3   OH272405   3.985   3.438   3.624  0.4789 -0.4382 -0.2995
16997TIP3    H172406   3.970   3.408   3.714 -1.0185 -0.3827 -0.5106
16997TIP3    H272407   4.072   3.478   3.626  0.9001 -1.3612  0.8777
16998TIP3   OH272408   6.399   5.415  14.653  0.0618 -0.0939 -0.3157
16998TIP3    H172409   6.446   5.405  14.570 -1.2068 -1.3129 -0.9411
16998TIP3    H272410   6.449   5.363  14.716  2.0812  2.3023  0.2218
16999TIP3   OH272411   1.504   5.577  16.872 -0.0047  0.2562  0.2000
16999TIP3    H172412   1.499   5.563  16.967  2.0543 -0.2756  0.2786
16999TIP3    H272413   1.598   5.579  16.853 -0.3733 -0.1712 -1.9177
17000TIP3   OH272414   6.543   5.162   3.292 -0.0409 -0.3749  0.0726
17000TIP3    H172415   6.493   5.145   3.212 -2.0085 -0.3235  1.2291
17000TIP3    H272416   6.547   5.258   3.298 -0.1043 -0.3760  0.1450
17001TIP3   OH272417   6.350   2.524   4.643  0.2474  0.2583  0.0794
17001TIP3    H172418   6.281   2.581   4.678  0.3911  1.4514 -1.4880
17001TIP3    H272419   6.374   2.468   4.717 -0.1052  2.0254  1.6212
17002TIP3   OH272420   3.869   3.250   4.233 -0.3463  0.9168 -0.5540
17002TIP3    H172421   3.953   3.294   4.248 -0.1260  0.1878  0.4012
17002TIP3    H272422   3.864   3.183   4.301 -0.7329 -0.4650 -1.8743
17003TIP3   OH272423   5.218   2.018  10.942 -0.6962  0.1242 -0.7266
17003TIP3    H172424   5.164   1.938  10.940 -0.0651 -0.4150  1.2370
17003TIP3    H272425   5.282   2.005  10.872 -1.3396 -0.5353 -1.2134
17004TIP3   OH272426   6.711   2.129   2.637 -0.0650 -0.0408  0.2307
17004TIP3    H172427   6.665   2.213   2.630 -0.2386  0.1761  2.9426
17004TIP3    H272428   6.649   2.066   2.601  0.0792  0.9143 -1.8904
17005TIP3   OH272429   2.488   3.849   4.651 -0.0405 -0.4139  0.2614
17005TIP3    H172430   2.558   3.791   4.680 -0.5681 -1.3099 -0.2491
17005TIP3    H272431   2.468   3.821   4.562 -1.1947 -0.2926  0.4739
17006TIP3   OH272432   6.189   5.030   0.641  0.6994  0.5706 -0.4707
17006TIP3    H172433   6.219   4.952   0.594 -2.3533 -1.2000  0.2594
17006TIP3    H272434   6.213   5.015   0.732 -1.9738 -0.7890  0.0924
17007TIP3   OH272435   3.101   5.208  13.107  0.3900  0.4971 -0.1903
17007TIP3    H172436   3.123   5.256  13.027 -2.0362 -1.9118 -2.5462
17007TIP3    H272437   3.021   5.250  13.139 -0.2922 -0.3031 -0.7892
17008TIP3   OH272438   6.243   5.570  13.812  0.3593  0.7570 -0.1497
17008TIP3    H172439   6.183   5.635  13.776 -1.2136  0.0184  1.0105
17008TIP3    H272440   6.258   5.598  13.902  0.1727 -0.1171  0.1671
17009TIP3   OH272441   1.104   1.551   2.055 -0.0698  0.1473 -0.5601
17009TIP3    H172442   1.014   1.566   2.085  1.1918  1.2658  3.2132
17009TIP3    H272443   1.098   1.469   2.005 -3.0415 -0.2743  0.2402
17010TIP3   OH272444   0.268   0.710   2.965  0.5373 -0.0633 -0.0421
17010TIP3    H172445   0.290   0.618   2.976  0.0538 -0.1755  0.0097
17010TIP3    H272446   0.219   0.733   3.044  2.8724  0.9524  1.2189
17011TIP3   OH272447   4.523   2.748  10.861 -0.5794  0.4444  0.0297
17011TIP3    H172448   4.435   2.724  10.830  0.7252 -1.5037 -2.4522
17011TIP3    H272449   4.558   2.804  10.793  0.6092  0.0963  0.3343
17012TIP3   OH272450   3.126   6.723   0.337  0.4726  0.5690  0.4156
17012TIP3    H172451   3.053   6.666   0.361 -0.8951  1.3287 -1.6414
17012TIP3    H272452   3.201   6.664   0.330 -0.6181 -0.7841 -0.3802
17013TIP3   OH272453   5.513   3.801   4.105 -0.3816 -0.7093 -0.2870
17013TIP3    H172454   5.465   3.752   4.038  0.0226 -1.8745  0.2565
17013TIP3    H272455   5.480   3.766   4.188  1.6630 -1.8113  0.1016
17014TIP3   OH272456   6.552   0.827  14.761 -0.1587  0.8001  0.9205
17014TIP3    H172457   6.490   0.780  14.816 -0.8588 -0.1943 -0.6289
17014TIP3    H272458   6.608   0.758  14.723 -0.5911  1.2694 -0.6598
17015TIP3   OH272459   0.802   1.284   0.836  0.1510  0.6594  0.1491
17015TIP3    H172460   0.805   1.332   0.753 -0.9966  0.7778  0.1577
17015TIP3    H272461   0.710   1.262   0.848  0.5486 -0.9362  0.5171
17016TIP3   OH272462   1.765   1.999   0.192 -0.8602 -0.8717  0.7661
17016TIP3    H172463   1.849   2.007   0.146 -0.7879 -0.6154  0.9421
17016TIP3    H272464   1.700   1.996   0.122 -0.7693 -0.2522  0.6475
17017TIP3   OH272465   1.776   3.836  11.821  0.1839  0.0559 -0.3482
17017TIP3    H172466   1.738   3.748  11.828  0.9410 -0.2764 -0.3945
17017TIP3    H272467   1.791   3.849  11.728 -1.8448  1.0739 -0.5961
17018TIP3   OH272468   2.704   6.725   3.293 -0.4100 -0.6512 -0.0360
17018TIP3    H172469   2.640   6.732   3.222 -0.9780 -0.0038  0.5348
17018TIP3    H272470   2.684   6.641   3.335 -0.9613 -0.3959  0.2147
17019TIP3   OH272471   2.180   2.136  12.021  0.6200 -0.0814 -0.7611
17019TIP3    H172472   2.186   2.227  12.050  1.2015 -0.7010  1.2437
17019TIP3    H272473   2.270   2.109  12.006  0.4771 -0.4362 -0.9927
17020TIP3   OH272474   1.656   0.931  11.352  0.2950 -1.0503 -0.0258
17020TIP3    H172475   1.680   0.994  11.284  1.3479 -0.9815  0.3906
17020TIP3    H272476   1.593   0.873  11.310 -0.8758  0.3923 -0.3532
17021TIP3   OH272477   2.059   3.126  15.194 -0.1136  0.1994 -0.4065
17021TIP3    H172478   2.125   3.149  15.259 -0.2024 -0.3028 -0.1338
17021TIP3    H272479   1.989   3.084  15.245 -0.6759  0.7940 -0.6808
17022TIP3   OH272480   3.041   5.357  13.798  0.0421 -0.1486 -0.2252
17022TIP3    H172481   2.961   5.310  13.774  0.5259 -0.7886 -0.6089
17022TIP3    H272482   3.070   5.400  13.717 -0.3592  0.7815  0.1048
17023TIP3   OH272483   2.221   4.889   2.691 -0.5972  0.0822 -0.4845
17023TIP3    H172484   2.190   4.931   2.772 -2.6426  0.8478 -1.5803
17023TIP3    H272485   2.148   4.834   2.664  0.3982 -0.8248 -1.3789
17024TIP3   OH272486   5.725   2.141   3.457 -0.2262 -0.8267  0.3164
17024TIP3    H172487   5.798   2.149   3.518  2.0501 -0.6136 -2.2267
17024TIP3    H272488   5.701   2.232   3.436 -2.3565 -0.8577  2.2573
17025TIP3   OH272489   3.052   3.052  16.002  0.0849  0.4653  0.0143
17025TIP3    H172490   2.986   3.071  16.069 -0.2195 -2.5909  0.7264
17025TIP3    H272491   3.136   3.068  16.045 -0.1347 -0.4093  0.8079
17026TIP3   OH272492   5.975   3.131  14.740 -0.7669 -0.0819 -0.0165
17026TIP3    H172493   6.013   3.145  14.827 -0.8057  1.4492 -0.2097
17026TIP3    H272494   6.050   3.122  14.682 -0.7143  0.3200 -0.0170
17027TIP3   OH272495   5.887   2.840   0.126 -0.0930  0.8799 -0.0049
17027TIP3    H172496   5.867   2.803   0.041 -3.8029  2.7502 -0.1405
17027TIP3    H272497   5.964   2.895   0.111 -0.0177  0.3098 -1.8625
17028TIP3   OH272498   4.992   3.826  12.686 -0.3214  0.0497 -0.4001
17028TIP3    H172499   5.005   3.812  12.780 -1.2761 -1.8958 -0.4993
17028TIP3    H272500   5.070   3.789  12.645 -0.1166  0.4738 -0.3926
17029TIP3   OH272501   5.302   5.373   1.535  0.4397  0.5452 -0.3346
17029TIP3    H172502   5.314   5.368   1.630 -1.0713  2.0994 -0.0167
17029TIP3    H272503   5.369   5.435   1.506  1.1035 -0.1626 -0.3559
17030TIP3   OH272504   4.823   5.331  13.216  0.2242 -0.5721  0.0534
17030TIP3    H172505   4.848   5.276  13.291  0.4348 -2.1243 -1.1010
17030TIP3    H272506   4.907   5.354  13.175  0.3922  2.9091  1.9495
17031TIP3   OH272507   1.694   0.007  15.665  0.4945 -0.0179  1.0956
17031TIP3    H172508   1.752  -0.026  15.734 -0.2010  0.0098  1.6975
17031TIP3    H272509   1.606  -0.011  15.696  0.0674  2.2683  1.3919
17032TIP3   OH272510   0.951   1.199  15.590  0.2599  0.3776 -0.5047
17032TIP3    H172511   1.004   1.271  15.625 -0.5386  0.2420  1.1077
17032TIP3    H272512   1.013   1.142  15.545  1.6233 -0.0431  1.7445
17033TIP3   OH272513   0.047   5.780  12.127  0.0938 -0.1742  0.7654
17033TIP3    H172514  -0.007   5.846  12.083 -1.0051 -0.2457  1.9540
17033TIP3    H272515   0.023   5.698  12.084  0.1934 -0.0355  0.4426
17034TIP3   OH272516   3.566   2.685   2.484 -0.2681  0.1873 -0.3704
17034TIP3    H172517   3.551   2.621   2.553 -2.0950 -1.7958 -2.4458
17034TIP3    H272518   3.624   2.642   2.422  0.7743  1.6592 -0.4748
17035TIP3   OH272519   0.733   5.019  11.190 -0.4665  0.2747 -0.1969
17035TIP3    H172520   0.696   4.999  11.276 -2.1773  1.5555 -0.5706
17035TIP3    H272521   0.733   5.115  11.185 -1.6537  0.2405 -2.0742
17036TIP3   OH272522   0.787   6.038   3.008  0.2902 -0.6028  0.7296
17036TIP3    H172523   0.718   6.018   2.946  3.3043 -2.0607 -2.5251
17036TIP3    H272524   0.806   5.955   3.051  1.2377 -0.7230  0.1265
17037TIP3   OH272525   5.392   0.829  10.207  0.5108 -0.1257  0.1152
17037TIP3    H172526   5.437   0.749  10.236  1.6829  0.4405 -0.0732
17037TIP3    H272527   5.454   0.870  10.147 -0.4462  0.4900 -0.4650
17038TIP3   OH272528   4.466   3.544  15.207 -0.5958  0.4278  0.3184
17038TIP3    H172529   4.444   3.537  15.114 -0.0773 -2.2421  0.3180
17038TIP3    H272530   4.411   3.615  15.239 -0.1873  1.9643 -2.1666
17039TIP3   OH272531   5.059   3.895  16.492  0.2553  0.0682 -0.0401
17039TIP3    H172532   5.103   3.917  16.574 -3.1412  1.3014  1.6807
17039TIP3    H272533   5.027   3.978  16.458 -2.9768 -0.8646  0.3647
17040TIP3   OH272534   3.755   6.316  12.698 -0.5829  0.2056 -0.1493
17040TIP3    H172535   3.847   6.333  12.719 -0.3323 -1.7762  0.6122
17040TIP3    H272536   3.748   6.334  12.604  0.3724  1.1656 -0.0535
17041TIP3   OH272537   4.048   1.947  11.574 -0.2104  0.4740 -0.2432
17041TIP3    H172538   3.967   1.896  11.575 -0.4423  0.8164 -0.9176
17041TIP3    H272539   4.020   2.037  11.589 -0.0373  0.6988 -1.2370
17042TIP3   OH272540   3.680   3.283  16.503  0.1834 -0.0692  0.1278
17042TIP3    H172541   3.646   3.308  16.417 -0.7711  3.5989  1.3910
17042TIP3    H272542   3.603   3.271  16.558  0.8101  0.1904  1.1030
17043TIP3   OH272543   1.688   5.139   1.886  0.0270  0.3928  0.7121
17043TIP3    H172544   1.759   5.084   1.851 -1.9263 -1.9037  0.1381
17043TIP3    H272545   1.619   5.133   1.820 -1.0251  1.9653  1.6125
17044TIP3   OH272546   4.763   1.506   6.272 -0.4166 -0.0788 -0.2296
17044TIP3    H172547   4.738   1.572   6.335 -0.6352  0.7820 -1.1882
17044TIP3    H272548   4.838   1.461   6.312  0.4666  1.5000 -0.0317
17045TIP3   OH272549   2.845   1.570  13.303  0.0267 -0.2712  0.4473
17045TIP3    H172550   2.759   1.611  13.297 -0.1450 -0.6239  0.4684
17045TIP3    H272551   2.891   1.599  13.224  0.2851  0.8010  0.9688
17046TIP3   OH272552   4.576   0.307  13.867  0.1056 -0.0927 -0.1396
17046TIP3    H172553   4.615   0.249  13.802 -1.8747 -1.2439 -0.4003
17046TIP3    H272554   4.564   0.252  13.944  1.9917  1.1344  1.1163
17047TIP3   OH272555   5.178   3.557   0.379  0.1163 -0.0391  0.3962
17047TIP3    H172556   5.251   3.505   0.413  0.7159  1.4266  1.4202
17047TIP3    H272557   5.207   3.583   0.291  0.0240 -0.9913  0.0726
17048TIP3   OH272558   1.829   3.116  11.814  0.2827  0.1389 -0.0588
17048TIP3    H172559   1.746   3.156  11.785  0.9910  0.9730 -1.0198
17048TIP3    H272560   1.861   3.070  11.736 -1.2938 -3.8560  1.4129
17049TIP3   OH272561   3.446   1.206  14.937  0.1770  0.7829 -0.2461
17049TIP3    H172562   3.476   1.296  14.954  1.6866  0.3447 -0.3969
17049TIP3    H272563   3.516   1.168  14.884 -0.3282 -0.5567  0.0218
17050TIP3   OH272564   1.778   3.945  15.598 -0.4405 -0.4733 -0.0794
17050TIP3    H172565   1.818   3.868  15.638 -1.1587 -0.3381  0.9359
17050TIP3    H272566   1.852   4.000  15.572  0.0641 -1.2300 -0.2710
17051TIP3   OH272567   4.608   4.071   5.259  0.7389 -0.2550  0.2779
17051TIP3    H172568   4.664   4.143   5.286  0.7491 -1.0610  2.6525
17051TIP3    H272569   4.666   4.012   5.211  0.5798  1.5393 -2.2909
17052TIP3   OH272570   1.668   3.494  14.022 -0.5890  0.2007  0.0080
17052TIP3    H172571   1.689   3.498  14.115 -3.2475  1.7731  0.6369
17052TIP3    H272572   1.720   3.563  13.982  0.8112 -0.6924  0.2127
17053TIP3   OH272573   6.683   5.558   6.530 -0.1794 -0.0026  0.0086
17053TIP3    H172574   6.644   5.490   6.476  0.2674  0.9733 -1.5925
17053TIP3    H272575   6.609   5.596   6.578 -0.6631 -0.5343 -0.3096
17054TIP3   OH272576   3.043   3.839   4.414  0.2724  0.1242  0.1449
17054TIP3    H172577   3.057   3.872   4.503 -2.2339 -1.5535  1.2579
17054TIP3    H272578   3.041   3.744   4.423  0.6622 -0.1194 -1.8642
17055TIP3   OH272579   3.028   3.374  13.756 -0.6294  0.0781 -0.7470
17055TIP3    H172580   3.054   3.282  13.753  0.1472  0.2787 -0.4463
17055TIP3    H272581   3.014   3.392  13.849 -0.7354  0.2748 -0.8003
17056TIP3   OH272582   2.472   2.479   5.542 -1.1900 -0.1331 -0.5400
17056TIP3    H172583   2.560   2.508   5.518 -0.9432 -1.1039 -0.8772
17056TIP3    H272584   2.482   2.442   5.630 -1.7613  1.9113  0.4384
17057TIP3   OH272585   4.971   2.100  15.447  0.2003  0.4034 -0.3008
17057TIP3    H172586   5.027   2.136  15.516 -0.3511  1.3618 -0.3346
17057TIP3    H272587   4.889   2.147  15.456 -0.3620 -0.4644 -0.7228
17058TIP3   OH272588   4.521   6.371   3.660  0.0287 -0.0673 -0.0930
17058TIP3    H172589   4.480   6.289   3.633  0.1444 -0.2473  0.2626
17058TIP3    H272590   4.545   6.356   3.752  1.8170 -0.3575 -0.5522
17059TIP3   OH272591   4.086   0.921   1.368 -0.2894  0.0852 -0.0635
17059TIP3    H172592   4.116   1.012   1.367 -0.0373  0.0638  2.1680
17059TIP3    H272593   4.163   0.871   1.396 -0.5676 -0.7768 -0.7964
17060TIP3   OH272594   3.357   2.085  16.620  0.3440  0.6272  0.1930
17060TIP3    H172595   3.398   2.009  16.661 -1.2984 -0.9134 -0.8375
17060TIP3    H272596   3.319   2.134  16.693  3.3949  1.8383  1.1157
17061TIP3   OH272597   3.950   5.081   3.964  0.0409 -0.3843 -0.5777
17061TIP3    H172598   3.993   5.093   4.049  1.5659 -1.5388 -1.1636
17061TIP3    H272599   3.895   5.159   3.955  1.9079  1.0995  0.2450
17062TIP3   OH272600   1.019   6.208  15.509  0.0325 -0.0483  0.2384
17062TIP3    H172601   1.059   6.189  15.594  0.4252  0.4740  0.1755
17062TIP3    H272602   0.928   6.228  15.530 -0.1186 -0.8993  0.4215
17063TIP3   OH272603   2.466   5.560   2.498  0.0284  0.3758  0.6575
17063TIP3    H172604   2.462   5.553   2.593  1.0831  0.4545  0.7283
17063TIP3    H272605   2.547   5.608   2.481 -0.1714  0.4124 -0.2814
17064TIP3   OH272606   6.373   2.633  16.089 -0.0506 -0.3846  0.5338
17064TIP3    H172607   6.399   2.564  16.150 -0.0237 -1.5179 -0.7206
17064TIP3    H272608   6.425   2.709  16.116  0.2544 -0.9646  1.6557
17065TIP3   OH272609   1.246   6.624  16.628 -0.7734 -0.1395 -0.1343
17065TIP3    H172610   1.187   6.670  16.569 -1.5498 -0.4309  0.3997
17065TIP3    H272611   1.262   6.540  16.585  0.5111  0.5360 -1.0280
17066TIP3   OH272612   4.159   5.728  16.586 -0.3849  0.0719  0.2029
17066TIP3    H172613   4.139   5.770  16.670 -1.2720 -1.5923  0.8675
17066TIP3    H272614   4.247   5.692  16.597  0.7745  2.3741 -0.6838
17067TIP3   OH272615   0.300   2.638  12.646 -0.2928  0.1026 -0.0013
17067TIP3    H172616   0.256   2.553  12.639  0.9638 -0.6427  0.7835
17067TIP3    H272617   0.358   2.629  12.721  0.8386  1.2114 -0.6985
17068TIP3   OH272618   0.712   6.761  12.619 -0.3179 -0.6058 -0.2264
17068TIP3    H172619   0.625   6.802  12.624  0.0961  0.3497 -0.6326
17068TIP3    H272620   0.767   6.828  12.578  0.4828 -1.4199 -0.4917
17069TIP3   OH272621   2.090   1.218   4.483 -0.0752 -0.3705 -0.0366
17069TIP3    H172622   2.080   1.302   4.526  0.5081  0.0975 -0.7861
17069TIP3    H272623   2.002   1.197   4.451 -0.1640  0.0992 -0.1081
17070TIP3   OH272624   4.547   1.835  14.021  0.7870 -0.2195 -0.0756
17070TIP3    H172625   4.480   1.900  14.001  0.3841 -0.9824 -1.3440
17070TIP3    H272626   4.630   1.881  14.009  0.5115  0.0572 -1.0266
17071TIP3   OH272627   3.874   1.656  14.694 -0.7923  0.2986 -0.1685
17071TIP3    H172628   3.853   1.729  14.636 -1.4048  1.2236  1.1690
17071TIP3    H272629   3.792   1.636  14.739  0.1537  1.3818  2.2764
17072TIP3   OH272630   0.942   0.724  13.449 -0.4627  0.4259 -0.4359
17072TIP3    H172631   1.008   0.732  13.381 -0.3980 -0.7889 -0.5352
17072TIP3    H272632   0.988   0.683  13.522 -0.8363  0.6004 -0.0993
17073TIP3   OH272633   2.495   2.047   3.670 -0.1430  0.0614  0.1405
17073TIP3    H172634   2.532   2.096   3.596  1.9634 -1.8572 -0.1800
17073TIP3    H272635   2.570   2.031   3.728 -0.7324 -2.6077  0.2848
17074TIP3   OH272636   5.755   4.421  12.931 -0.8979  0.3954 -0.2879
17074TIP3    H172637   5.732   4.331  12.906 -1.7499  0.8849 -1.3368
17074TIP3    H272638   5.704   4.437  13.010  0.5272 -0.5891  0.8911
17075TIP3   OH272639   0.106   3.651  16.523  0.1265 -0.2620 -0.2370
17075TIP3    H172640   0.084   3.562  16.552 -1.0794 -0.3512 -1.3235
17075TIP3    H272641   0.026   3.701  16.536  0.8741  0.7561  0.5965
17076TIP3   OH272642   4.624   1.159   5.894  0.0908  0.1873  0.0866
17076TIP3    H172643   4.531   1.134   5.897 -0.0154  0.5062 -0.4095
17076TIP3    H272644   4.667   1.096   5.951 -0.3165 -0.4938 -0.3403
17077TIP3   OH272645   3.811   6.769  15.684  0.1816  0.2508 -0.1556
17077TIP3    H172646   3.817   6.702  15.616 -0.5083  1.4814 -1.4789
17077TIP3    H272647   3.901   6.779  15.715  0.0836 -2.4980  1.3758
17078TIP3   OH272648   0.736   1.716   2.380  0.2668 -0.1511 -0.1051
17078TIP3    H172649   0.811   1.721   2.440  0.1720  1.4330 -0.0816
17078TIP3    H272650   0.668   1.768   2.423 -0.3773 -0.3938 -0.8080
17079TIP3   OH272651   2.800   0.601   6.480 -0.0440 -0.8284 -0.4236
17079TIP3    H172652   2.832   0.650   6.404  2.4223 -1.6715 -0.0388
17079TIP3    H272653   2.754   0.526   6.443  1.6717 -1.5691 -1.1649
17080TIP3   OH272654   6.643   3.052  10.337  0.4555  0.5112  0.4547
17080TIP3    H172655   6.735   3.074  10.356  0.7220 -0.1096 -0.0515
17080TIP3    H272656   6.638   2.958  10.356  0.8986 -0.3183 -2.9246
17081TIP3   OH272657   5.447   1.107   5.491 -0.1531  0.7075 -0.2649
17081TIP3    H172658   5.352   1.107   5.480 -0.1611  1.0341 -0.1911
17081TIP3    H272659   5.461   1.125   5.584 -0.1092 -2.7694  0.5657
17082TIP3   OH272660   3.048   3.375   6.039 -0.2119  0.9405 -0.3986
17082TIP3    H172661   3.030   3.462   6.074  1.0092  0.5403  1.3685
17082TIP3    H272662   3.124   3.344   6.088 -0.4211 -1.0069 -1.1872
17083TIP3   OH272663   1.709   5.287   4.927 -0.4809  0.0992 -0.0735
17083TIP3    H172664   1.623   5.264   4.892 -0.3836 -0.2476 -0.0822
17083TIP3    H272665   1.770   5.258   4.860 -0.2861 -0.6298  0.4034
17084TIP3   OH272666   0.207   1.918   0.749 -0.1761  0.3225  0.4142
17084TIP3    H172667   0.249   2.003   0.753  1.0904 -0.2980  0.6745
17084TIP3    H272668   0.197   1.891   0.841  0.4815 -0.2996  0.3133
17085TIP3   OH272669   5.346   1.822   2.075  0.1340  0.3814  0.1170
17085TIP3    H172670   5.437   1.853   2.071  0.2853  0.1440  1.3551
17085TIP3    H272671   5.354   1.728   2.091 -0.3411  0.0625 -1.3373
17086TIP3   OH272672   1.045   5.435   2.940  0.2681  0.5031 -0.8683
17086TIP3    H172673   1.003   5.517   2.969  1.3566  1.0750 -0.8587
17086TIP3    H272674   0.971   5.377   2.919 -0.5345  1.5716 -1.1269
17087TIP3   OH272675   4.241   0.906   3.485  0.2097 -0.1714  0.7041
17087TIP3    H172676   4.218   0.994   3.454 -0.2650 -0.8462 -0.9622
17087TIP3    H272677   4.181   0.890   3.557 -0.8839  0.2215 -0.0872
17088TIP3   OH272678   6.176   4.929  15.059  0.7941 -0.0490  0.4668
17088TIP3    H172679   6.178   4.835  15.074  0.5390 -0.2055 -0.4394
17088TIP3    H272680   6.267   4.952  15.041  0.9965  0.0326  1.5166
17089TIP3   OH272681   3.583   4.767  13.771  0.7612  0.4156 -0.4275
17089TIP3    H172682   3.578   4.860  13.748 -0.2731  0.9717  1.7858
17089TIP3    H272683   3.491   4.740  13.782  1.1016  0.1398  2.4311
17090TIP3   OH272684   1.326   3.581   6.095  0.5677  0.2360  0.0233
17090TIP3    H172685   1.311   3.597   6.188 -0.7844  3.2195 -0.5893
17090TIP3    H272686   1.380   3.654   6.066  1.0524 -0.6856 -1.5251
17091TIP3   OH272687   3.539   3.659   3.974  0.3631 -0.0964 -0.1517
17091TIP3    H172688   3.627   3.632   3.998  0.8288  1.8386  0.4979
17091TIP3    H272689   3.524   3.740   4.023 -1.5297 -0.0271 -0.7474
17092TIP3   OH272690   1.759   5.518   5.064 -0.0753 -0.0241 -0.1302
17092TIP3    H172691   1.729   5.526   5.154 -0.5082  2.0204 -0.3946
17092TIP3    H272692   1.714   5.441   5.030 -1.4450  0.3100  0.8418
17093TIP3   OH272693   0.974   2.813   0.733 -0.4396 -0.2688 -0.4892
17093TIP3    H172694   0.959   2.792   0.641 -3.1955 -3.4145  0.5109
17093TIP3    H272695   0.925   2.894   0.747  0.4784  0.5637 -1.8401
17094TIP3   OH272696   1.306   0.947  16.075  1.1784 -0.1763  0.1225
17094TIP3    H172697   1.226   0.928  16.027  2.0206 -0.1411 -1.3770
17094TIP3    H272698   1.306   1.042  16.085  0.8022 -0.2212  0.5673
17095TIP3   OH272699   1.637   3.155   2.141 -0.0760 -0.0548 -0.7686
17095TIP3    H172700   1.703   3.110   2.088  0.4898  0.3235 -0.3953
17095TIP3    H272701   1.597   3.085   2.193  1.7755  0.0048  0.8642
17096TIP3   OH272702   6.607   4.846  16.830  0.2214  0.2267  0.3039
17096TIP3    H172703   6.592   4.768  16.777 -0.4040  0.6884 -0.2134
17096TIP3    H272704   6.592   4.920  16.770  1.1383  0.7492  0.6899
17097TIP3   OH272705   1.816   6.631   3.075 -0.7482  0.0263  0.5851
17097TIP3    H172706   1.817   6.714   3.027 -1.0647 -0.8238 -0.9692
17097TIP3    H272707   1.884   6.640   3.141  1.5808  0.3026 -1.7171
17098TIP3   OH272708   0.177   5.181   5.078  0.1922  0.4832 -0.0340
17098TIP3    H172709   0.268   5.211   5.067  0.0836  0.4529 -1.0775
17098TIP3    H272710   0.181   5.120   5.152  1.0598  0.3476 -0.1778
17099TIP3   OH272711   1.932   0.780  14.024 -0.4033  0.0077 -0.4569
17099TIP3    H172712   1.935   0.695  13.981 -0.2603  0.6446 -1.7415
17099TIP3    H272713   1.993   0.834  13.975 -0.2527  0.7712  0.5458
17100TIP3   OH272714   1.574   4.280   4.673 -0.1913  0.7316 -0.0750
17100TIP3    H172715   1.668   4.265   4.663 -0.2666  0.1358  0.0702
17100TIP3    H272716   1.533   4.209   4.624 -0.5628  0.1742  1.0051
17101TIP3   OH272717   5.022   1.730   0.868  0.2699  0.1746  0.0657
17101TIP3    H172718   5.076   1.678   0.807 -1.4359 -0.5206 -0.9129
17101TIP3    H272719   5.085   1.763   0.932  1.8838 -0.5125 -1.0752
17102TIP3   OH272720   1.737   4.827  13.831  0.6942 -0.4571 -0.0931
17102TIP3    H172721   1.669   4.763  13.814  1.2555 -1.1944  0.3913
17102TIP3    H272722   1.714   4.902  13.776 -0.9445 -0.3628  0.6493
17103TIP3   OH272723   4.953   6.402   0.313  0.5123  0.2887 -0.0807
17103TIP3    H172724   5.031   6.449   0.343  0.8880 -0.8844  0.8413
17103TIP3    H272725   4.922   6.354   0.390 -0.9442  0.4727 -0.5141
17104TIP3   OH272726   2.617   2.961  11.298  0.0851  0.6103  0.3223
17104TIP3    H172727   2.569   2.906  11.236  1.3104 -1.6041  1.1837
17104TIP3    H272728   2.594   3.050  11.275 -1.4554 -0.2270 -1.6728
17105TIP3   OH272729   0.939   6.377   2.091 -0.2293 -0.4696 -0.4027
17105TIP3    H172730   1.011   6.354   2.032 -0.9256 -0.2172 -1.3920
17105TIP3    H272731   0.892   6.294   2.105 -0.4578 -0.4088 -0.7758
17106TIP3   OH272732   4.139   0.623  14.909 -0.3193  0.0817  0.5915
17106TIP3    H172733   4.219   0.585  14.944 -0.7607 -0.4269  1.0710
17106TIP3    H272734   4.140   0.601  14.816 -0.4857 -0.9725  0.8304
17107TIP3   OH272735   3.371   6.579  16.185  0.2931  0.3788  0.5285
17107TIP3    H172736   3.385   6.485  16.186  1.7503  0.5645 -0.2453
17107TIP3    H272737   3.307   6.594  16.255  1.2929 -0.9774  1.7983
17108TIP3   OH272738   6.113   0.816  12.190  0.0446  0.6077 -0.3089
17108TIP3    H172739   6.172   0.828  12.116 -0.0252  0.5252 -0.3796
17108TIP3    H272740   6.152   0.744  12.240  0.4339  1.0789  0.0840
17109TIP3   OH272741   3.050   5.837  17.095 -0.2062 -0.1543  0.0046
17109TIP3    H172742   2.995   5.898  17.144 -1.2568 -0.2695 -0.9840
17109TIP3    H272743   3.072   5.883  17.014  3.5303  1.0074  1.4546
17110TIP3   OH272744   5.363   6.084   4.930  0.2738 -0.0008  0.1984
17110TIP3    H172745   5.344   6.107   5.021 -0.6849  1.1823 -0.2743
17110TIP3    H272746   5.292   6.123   4.880  0.3934 -1.2440 -1.0093
17111TIP3   OH272747   0.177   4.567  15.952 -0.7295 -0.2673 -0.3513
17111TIP3    H172748   0.129   4.637  15.910 -1.9330 -0.1827  1.0840
17111TIP3    H272749   0.121   4.540  16.025  1.1291 -0.5563  1.0432
17112TIP3   OH272750   1.749   5.444  10.562  0.3548 -0.2441  0.2807
17112TIP3    H172751   1.723   5.365  10.610  1.3841 -0.1067  1.1116
17112TIP3    H272752   1.790   5.411  10.482 -1.6979 -0.4737 -0.7434
17113TIP3   OH272753   1.162   4.962  14.632  0.8174  0.4607 -0.2593
17113TIP3    H172754   1.155   4.979  14.726  0.5626  0.7866 -0.3351
17113TIP3    H272755   1.071   4.957  14.602  0.8986  0.7715 -0.5616
17114TIP3   OH272756   1.154   1.492   6.428  0.7068  0.3855 -0.4784
17114TIP3    H172757   1.091   1.511   6.497  0.1779 -0.2869 -0.7701
17114TIP3    H272758   1.217   1.564   6.433  1.1676 -0.0809  1.2496
17115TIP3   OH272759   1.724   3.837  10.345 -0.0907  0.1894 -0.4918
17115TIP3    H172760   1.775   3.917  10.332 -1.2315  1.3240  1.5720
17115TIP3    H272761   1.789   3.767  10.349  1.3148  1.5213  1.6217
17116TIP3   OH272762   0.256   5.759  11.826  0.1037  0.2338  0.3541
17116TIP3    H172763   0.207   5.831  11.786 -2.7916  0.3145  3.6123
17116TIP3    H272764   0.215   5.680  11.792  2.3723 -0.0167 -2.1320
17117TIP3   OH272765   2.777   1.022   5.825 -0.0560 -0.2829 -0.5424
17117TIP3    H172766   2.722   1.076   5.769 -2.1340 -0.7826  0.8959
17117TIP3    H272767   2.791   1.075   5.904  1.7109 -0.1144 -0.9170
17118TIP3   OH272768   6.611   0.966   6.276  0.0971  0.0699  0.3537
17118TIP3    H172769   6.646   1.039   6.328 -0.8716 -0.4800  1.8495
17118TIP3    H272770   6.539   0.932   6.329  0.4327 -1.8911 -0.3682
17119TIP3   OH272771   0.265   6.756   4.276 -0.2254 -0.1389  0.3012
17119TIP3    H172772   0.202   6.767   4.348 -1.2071 -0.4273 -0.4969
17119TIP3    H272773   0.216   6.780   4.197  0.5625 -0.7113 -0.3758
17120TIP3   OH272774   3.564   4.428  15.306 -0.4154  0.3647 -0.0209
17120TIP3    H172775   3.546   4.382  15.389  1.5052 -2.0363 -0.7870
17120TIP3    H272776   3.507   4.385  15.243  0.6503 -0.3275 -0.5511
17121TIP3   OH272777   1.482   4.570  10.906 -0.2394 -0.4271  0.0453
17121TIP3    H172778   1.460   4.641  10.845  1.3949 -0.2851 -0.4313
17121TIP3    H272779   1.524   4.504  10.851  1.8355 -0.0400  1.0675
17122TIP3   OH272780   1.429   5.261  11.513 -0.0303  0.4079 -0.6041
17122TIP3    H172781   1.408   5.315  11.588 -1.2710  0.3634 -0.9024
17122TIP3    H272782   1.356   5.199  11.506  0.4703 -0.1252 -1.3546
17123TIP3   OH272783   4.066   3.126  12.875 -0.0596 -0.1677 -0.1088
17123TIP3    H172784   4.121   3.063  12.827 -0.6084 -1.0451  0.3920
17123TIP3    H272785   4.008   3.163  12.809  1.3787  1.0737 -0.7299
17124TIP3   OH272786   4.796   4.442   3.787  0.5899 -0.0870 -0.2104
17124TIP3    H172787   4.738   4.517   3.800  0.7594  0.0625 -0.3095
17124TIP3    H272788   4.884   4.478   3.794  0.7189 -0.6679  2.1292
17125TIP3   OH272789   5.320   5.314  16.919  0.1050  0.0053 -0.0512
17125TIP3    H172790   5.288   5.223  16.925  0.8762 -0.2500  0.4544
17125TIP3    H272791   5.310   5.348  17.008  1.7498 -0.2778  0.2750
17126TIP3   OH272792   0.774   1.183   3.674  0.2719  0.5141 -0.5336
17126TIP3    H172793   0.862   1.156   3.703 -0.3482  0.4104  1.3760
17126TIP3    H272794   0.755   1.260   3.726 -0.5904  0.8363 -1.3086
17127TIP3   OH272795   6.571   3.072   3.372 -0.5516 -0.5663 -0.1588
17127TIP3    H172796   6.553   3.132   3.444  2.1385 -2.1771  2.0308
17127TIP3    H272797   6.638   3.115   3.320 -0.1124 -0.7771  0.2263
17128TIP3   OH272798   5.924   6.218   2.793  0.0058  0.5475  0.6571
17128TIP3    H172799   5.939   6.144   2.734 -0.5011  0.4704  0.6200
17128TIP3    H272800   6.008   6.262   2.798  0.3691 -0.1453  0.8315
17129TIP3   OH272801   2.486   3.647  16.686  0.0141 -0.0576  0.0005
17129TIP3    H172802   2.546   3.587  16.641 -0.6862 -0.0625 -0.9594
17129TIP3    H272803   2.509   3.639  16.778  2.0408  0.5565 -0.3948
17130TIP3   OH272804   6.753   4.941   3.765 -0.3744 -0.1573  0.0660
17130TIP3    H172805   6.678   4.997   3.789  0.2298  0.4817  0.4895
17130TIP3    H272806   6.730   4.855   3.798  0.0531  0.5058  2.2459
17131TIP3   OH272807   4.785   0.751  15.366 -0.3792 -0.3900 -0.3494
17131TIP3    H172808   4.861   0.768  15.310 -0.0557  1.4023  0.5729
17131TIP3    H272809   4.777   0.656  15.367  0.9740 -0.5549 -1.6094
17132TIP3   OH272810   6.523   1.529   2.464  0.1726  0.5301 -0.1913
17132TIP3    H172811   6.533   1.434   2.470  0.9444  0.6893  1.8962
17132TIP3    H272812   6.456   1.542   2.397  0.2085 -1.4648 -0.6713
17133TIP3   OH272813   2.253   5.706  16.129 -0.9806 -0.0565 -0.1440
17133TIP3    H172814   2.175   5.750  16.162 -0.1621  0.7199  0.8169
17133TIP3    H272815   2.219   5.632  16.078 -2.3364 -0.4428  1.2183
17134TIP3   OH272816   6.088   0.342  11.493 -0.0717  0.7149  0.1101
17134TIP3    H172817   6.044   0.361  11.576  0.8593  0.6261  0.6427
17134TIP3    H272818   6.181   0.335  11.516  0.2215  0.8275 -0.9670
17135TIP3   OH272819   2.599   3.055   4.163  0.1694  0.0925 -0.4254
17135TIP3    H172820   2.518   3.056   4.113 -0.7326 -0.0204  0.9780
17135TIP3    H272821   2.644   2.976   4.134  0.2670  0.6678 -1.9241
17136TIP3   OH272822   6.574   2.090   6.325 -0.0756 -0.0769 -0.2322
17136TIP3    H172823   6.556   2.104   6.418 -2.0862 -0.4266 -0.5325
17136TIP3    H272824   6.555   2.175   6.284 -0.5646 -0.3121 -0.4999
17137TIP3   OH272825   2.140   1.188  11.352  0.5158 -0.0156  0.2675
17137TIP3    H172826   2.229   1.158  11.369 -0.6544 -2.8043  2.1918
17137TIP3    H272827   2.105   1.126  11.288  0.4934  2.2989 -2.1421
17138TIP3   OH272828   5.833   2.235   2.479  0.1146 -0.4932 -0.1385
17138TIP3    H172829   5.902   2.290   2.440 -0.0242 -0.9994 -1.1137
17138TIP3    H272830   5.762   2.296   2.497  0.9027  0.0931  1.1510
17139TIP3   OH272831   1.587   0.818   5.752 -0.1249 -0.0438  0.5652
17139TIP3    H172832   1.529   0.743   5.761  2.0019 -1.7971  0.4013
17139TIP3    H272833   1.623   0.831   5.841 -0.6554  0.9567  0.6476
17140TIP3   OH272834   6.471   2.682  10.913  0.0670  0.2459  0.3364
17140TIP3    H172835   6.565   2.700  10.909 -0.1495  1.4577  0.0603
17140TIP3    H272836   6.435   2.724  10.834 -1.1341  2.9857  2.1748
17141TIP3   OH272837   4.140   3.193   4.324  0.6558 -0.4111 -0.1603
17141TIP3    H172838   4.096   3.119   4.366  0.1030 -0.4742 -0.8327
17141TIP3    H272839   4.202   3.224   4.390 -0.5112 -0.2098  0.8841
17142TIP3   OH272840   3.447   2.268   2.820 -0.9176 -0.4300  0.7110
17142TIP3    H172841   3.432   2.173   2.823 -0.0781 -0.5510  1.8544
17142TIP3    H272842   3.402   2.302   2.898 -2.0091  0.2651 -0.1805
17143TIP3   OH272843   1.845   0.243   2.477  0.4049  0.0850  0.6991
17143TIP3    H172844   1.755   0.246   2.447  0.6845 -0.6086 -0.2305
17143TIP3    H272845   1.841   0.197   2.561  0.0568 -1.3311 -0.0566
17144TIP3   OH272846   4.316   5.799  11.063 -0.1819  0.0152  0.0517
17144TIP3    H172847   4.281   5.860  11.127 -0.9744 -3.0029  2.7984
17144TIP3    H272848   4.246   5.789  10.998 -0.0402  1.8591 -0.4457
17145TIP3   OH272849   0.975   3.315   1.639  0.1447  0.1511  0.2244
17145TIP3    H172850   0.998   3.353   1.555  0.0525 -0.3029 -0.0112
17145TIP3    H272851   0.972   3.389   1.700 -0.1241  0.5206 -0.2410
17146TIP3   OH272852   1.388   4.607  14.574  0.6098  0.2150 -0.5723
17146TIP3    H172853   1.365   4.650  14.656  0.6546  0.1569 -0.5290
17146TIP3    H272854   1.308   4.610  14.521  1.1556  2.1796 -1.3800
17147TIP3   OH272855   1.903   6.412  17.106  0.1321 -0.4235  0.0121
17147TIP3    H172856   1.974   6.356  17.073  0.8918 -0.8158  2.1316
17147TIP3    H272857   1.943   6.460  17.179 -1.7662 -0.6978  1.2966
17148TIP3   OH272858   4.879   2.326   1.964  0.1159  0.1096  0.1737
17148TIP3    H172859   4.915   2.248   1.923  1.4505  0.0487  1.3682
17148TIP3    H272860   4.907   2.398   1.908  0.0595 -0.1477 -0.1887
17149TIP3   OH272861   5.101   4.829   1.132  0.3950  0.7511 -0.2620
17149TIP3    H172862   5.071   4.822   1.042  2.4043  1.2557 -1.0303
17149TIP3    H272863   5.111   4.739   1.162  1.1068  0.5471 -1.0685
17150TIP3   OH272864   3.009   1.967  12.252  0.1335 -0.1263 -0.3935
17150TIP3    H172865   3.046   2.053  12.272  0.2002 -0.3206  0.3554
17150TIP3    H272866   2.925   1.985  12.211 -0.6556  0.2958  1.3476
17151TIP3   OH272867   2.505   3.478   5.179 -0.6410 -0.3142  0.0748
17151TIP3    H172868   2.583   3.443   5.137  1.6010  1.0787  2.7764
17151TIP3    H272869   2.469   3.405   5.229  0.3838 -0.3806  0.7399
17152TIP3   OH272870   6.072   6.731  13.543  0.4763 -0.0401 -0.0231
17152TIP3    H172871   6.165   6.748  13.527  0.5766 -0.4603  0.0953
17152TIP3    H272872   6.071   6.658  13.606  0.0682 -0.3368 -0.3637
17153TIP3   OH272873   0.317   6.191   5.781 -0.1217 -0.1835  0.1865
17153TIP3    H172874   0.395   6.245   5.769  0.6127 -1.1420  0.6058
17153TIP3    H272875   0.271   6.196   5.697 -0.5350  1.7954  0.4780
17154TIP3   OH272876   0.743   1.325   1.304 -0.3890  0.0675  0.6695
17154TIP3    H172877   0.833   1.343   1.328 -0.5160  1.8337 -0.0399
17154TIP3    H272878   0.750   1.269   1.226  0.0468 -0.9670  1.4232
17155TIP3   OH272879   1.770   4.780   3.319  0.6746  0.7125  0.3421
17155TIP3    H172880   1.770   4.869   3.282  3.4172  0.5208 -0.3689
17155TIP3    H272881   1.818   4.788   3.401  0.2927  0.0036  0.6419
17156TIP3   OH272882   2.626   3.840  11.464 -0.1746 -0.1659  0.2909
17156TIP3    H172883   2.571   3.765  11.440  2.3672 -1.8075 -0.8617
17156TIP3    H272884   2.578   3.916  11.433 -2.9624 -1.2104  1.6725
17157TIP3   OH272885   0.375   2.519   4.251 -0.0220  0.0432  0.1606
17157TIP3    H172886   0.451   2.484   4.297  0.5019 -1.1839 -1.5144
17157TIP3    H272887   0.412   2.581   4.188 -0.5463  0.3613  0.1628
17158TIP3   OH272888   5.100   4.131   0.270 -0.1378 -0.2607  0.0150
17158TIP3    H172889   5.039   4.189   0.315  0.8634 -0.3529  1.5283
17158TIP3    H272890   5.117   4.060   0.332  0.5949 -0.8607 -0.8413
17159TIP3   OH272891   4.432   0.599   5.655  0.2875 -0.2466  0.6757
17159TIP3    H172892   4.432   0.594   5.750 -1.4924 -2.4126  0.6562
17159TIP3    H272893   4.341   0.581   5.630  0.7517  0.0650 -1.4377
17160TIP3   OH272894   4.205   2.862   3.675  0.3171 -0.1161  0.3568
17160TIP3    H172895   4.147   2.895   3.605  0.3392 -0.8750 -0.0308
17160TIP3    H272896   4.165   2.893   3.756 -1.1283 -1.3192  0.1517
17161TIP3   OH272897   5.936   3.243   2.750  0.0819 -0.2371  0.4129
17161TIP3    H172898   5.916   3.181   2.820 -2.0871  0.7788  0.7693
17161TIP3    H272899   5.917   3.195   2.669  2.4208 -1.3500  0.4275
17162TIP3   OH272900   1.921   2.404   3.063  0.1890  0.0379  0.0537
17162TIP3    H172901   1.965   2.324   3.037 -0.0184 -0.4129  1.0195
17162TIP3    H272902   1.897   2.389   3.155  1.2350  1.6791  0.6470
17163TIP3   OH272903   4.401   5.523  15.411 -0.0920  0.2673  0.6511
17163TIP3    H172904   4.423   5.517  15.318 -2.3231 -0.4338  0.1008
17163TIP3    H272905   4.426   5.612  15.436  0.4275  0.5124 -0.6406
17164TIP3   OH272906   1.493   1.472   1.311 -0.2204  0.4252 -0.2667
17164TIP3    H172907   1.461   1.412   1.378  1.1832  0.4601  0.4692
17164TIP3    H272908   1.466   1.433   1.228 -1.1946 -0.0856  0.2837
17165TIP3   OH272909   3.219   4.246  12.240  0.0167 -0.0804  0.7227
17165TIP3    H172910   3.293   4.189  12.262 -0.5604 -0.5555  1.4967
17165TIP3    H272911   3.205   4.298  12.319  0.5596  1.1767  0.0054
17166TIP3   OH272912   2.330   3.412  12.993 -0.0972 -1.0421 -0.0578
17166TIP3    H172913   2.329   3.319  13.016  3.1018 -1.9486 -2.8031
17166TIP3    H272914   2.251   3.424  12.941 -0.1587 -2.4427 -0.3496
17167TIP3   OH272915   1.675   1.169   4.512  0.4020  0.3511 -0.0844
17167TIP3    H172916   1.608   1.233   4.487  0.8166  0.5594 -0.6959
17167TIP3    H272917   1.721   1.210   4.586  1.8648  1.6282 -1.6141
17168TIP3   OH272918   2.878   6.367  13.079  0.7551  0.0146  0.1155
17168TIP3    H172919   2.936   6.391  13.152 -0.0055  2.5191 -0.0221
17168TIP3    H272920   2.806   6.319  13.121  1.5825 -0.8263  0.6253
17169TIP3   OH272921   2.002   2.160   1.282  0.1108 -0.3863 -0.3376
17169TIP3    H172922   1.981   2.235   1.338 -0.7950 -0.8904  0.0167
17169TIP3    H272923   2.032   2.092   1.343 -1.7978 -1.2681 -0.3207
17170TIP3   OH272924   4.999   1.462   4.849  0.1454 -0.2111 -0.1169
17170TIP3    H172925   5.070   1.514   4.811  0.0334  0.2545  0.2881
17170TIP3    H272926   5.008   1.376   4.810  0.3395  0.1158 -0.8120
17171TIP3   OH272927   3.358   1.321  11.170  0.7931 -1.1560 -0.6991
17171TIP3    H172928   3.333   1.229  11.162  0.3168 -1.0575 -0.3697
17171TIP3    H272929   3.351   1.355  11.080  1.0525 -1.4579 -0.8364
17172TIP3   OH272930   4.206   1.847  14.217 -0.3715  0.2564 -0.0842
17172TIP3    H172931   4.228   1.758  14.242  0.5285  0.9151  1.6558
17172TIP3    H272932   4.210   1.848  14.121  1.8330 -1.0166 -0.0476
17173TIP3   OH272933   6.654   6.554  14.572 -0.1215 -0.7664  0.7605
17173TIP3    H172934   6.657   6.645  14.544  1.0817 -0.5916  1.3823
17173TIP3    H272935   6.575   6.519  14.532  0.8094 -0.1886 -1.7285
17174TIP3   OH272936   5.093   2.870  15.849  0.0195 -0.8793  0.1351
17174TIP3    H172937   5.094   2.962  15.878 -0.3518 -1.0144  0.5829
17174TIP3    H272938   5.005   2.839  15.869 -0.1211 -1.1037 -0.7757
17175TIP3   OH272939   1.320   6.610   0.063 -0.7838 -0.3497 -0.1928
17175TIP3    H172940   1.228   6.613   0.087 -0.2220  0.2123  2.1575
17175TIP3    H272941   1.342   6.700   0.039 -0.6175 -0.2631  0.2725
17176TIP3   OH272942   2.697   5.111   5.688  0.2472  0.4922 -0.1069
17176TIP3    H172943   2.713   5.202   5.663  0.0134  0.4090 -0.5659
17176TIP3    H272944   2.666   5.116   5.778  0.6673  0.8303  0.0237
17177TIP3   OH272945   3.666   3.578   3.151 -0.0794 -0.1503  0.2035
17177TIP3    H172946   3.666   3.643   3.222  2.4952  0.5321 -0.3324
17177TIP3    H272947   3.748   3.593   3.105 -0.7356 -1.9585 -1.6880
17178TIP3   OH272948   1.769   2.208   4.480  0.3827  1.1102 -0.3487
17178TIP3    H172949   1.806   2.270   4.417  4.6776 -0.7485  0.0123
17178TIP3    H272950   1.757   2.127   4.431  1.8637  0.2316  0.6298
17179TIP3   OH272951   0.912   0.265  13.577  0.2610  0.8970 -0.3515
17179TIP3    H172952   0.916   0.284  13.671  0.7165  1.2985 -0.4509
17179TIP3    H272953   0.897   0.349  13.536  2.0017  1.0510 -0.7673
17180TIP3   OH272954   4.875   3.832  11.326 -0.4711 -0.7525  0.6366
17180TIP3    H172955   4.836   3.915  11.352  0.4115 -0.8100  2.2180
17180TIP3    H272956   4.969   3.849  11.319 -0.4453 -1.2490 -0.6041
17181TIP3   OH272957   4.792   5.091  15.422 -0.4718  0.0597  0.2929
17181TIP3    H172958   4.773   5.157  15.356 -1.2283 -2.1662 -1.8773
17181TIP3    H272959   4.708   5.048  15.437  0.2193 -1.1862  0.7413
17182TIP3   OH272960   3.324   1.892  15.927  0.2390  0.4437 -0.5893
17182TIP3    H172961   3.360   1.946  15.857 -0.2493 -0.9201 -1.9569
17182TIP3    H272962   3.253   1.842  15.885  1.6996 -2.4786  0.1414
17183TIP3   OH272963   1.092   4.307  16.529 -0.1358 -0.1526  0.3643
17183TIP3    H172964   1.089   4.219  16.568 -0.9283  0.1910  1.0917
17183TIP3    H272965   1.183   4.316  16.499  0.2040 -0.8558  1.1331
17184TIP3   OH272966   3.050   5.057  17.070 -0.0882  0.0781  0.2125
17184TIP3    H172967   3.135   5.099  17.057 -0.7738  1.5800  0.3675
17184TIP3    H272968   3.070   4.978  17.120  1.3148 -0.0934 -0.5626
17185TIP3   OH272969   3.515   3.533   1.311  0.0784 -0.3582  0.7273
17185TIP3    H172970   3.465   3.607   1.279  1.2344  0.2136  0.1724
17185TIP3    H272971   3.561   3.566   1.388  0.1978 -0.6432  0.7822
17186TIP3   OH272972   0.715   3.998   5.246 -0.0068  0.2585 -0.1873
17186TIP3    H172973   0.686   3.911   5.219 -2.1798  1.1135 -0.8367
17186TIP3    H272974   0.669   4.058   5.187  1.8824  1.8615 -0.1535
17187TIP3   OH272975   0.730   0.141  17.011 -0.0447 -0.2797 -0.1648
17187TIP3    H172976   0.770   0.212  16.962 -1.1162 -0.4357 -1.3180
17187TIP3    H272977   0.713   0.073  16.946  1.6327 -1.9432  1.0228
17188TIP3   OH272978   4.178   1.501   2.165 -0.2276  0.3604 -0.0898
17188TIP3    H172979   4.144   1.414   2.142 -0.0915  0.6892 -1.6886
17188TIP3    H272980   4.118   1.533   2.232 -0.7924 -0.6238 -0.1042
17189TIP3   OH272981   4.713   0.577   1.638 -0.3703 -0.2123  0.1494
17189TIP3    H172982   4.649   0.511   1.664 -0.8565  0.0600 -0.3139
17189TIP3    H272983   4.774   0.582   1.711 -0.9884 -0.3448  0.6831
17190TIP3   OH272984   6.706   4.068  16.452 -0.3018 -0.3285 -0.2490
17190TIP3    H172985   6.719   4.146  16.398 -1.7002 -0.6193 -1.0423
17190TIP3    H272986   6.632   4.090  16.508 -0.7944 -1.1428 -0.5731
17191TIP3   OH272987   5.971   3.921  12.108  0.1591 -0.1309 -0.1657
17191TIP3    H172988   5.971   3.931  12.013  1.0665  0.3341 -0.1210
17191TIP3    H272989   6.025   3.993  12.141  2.3475 -1.9520  0.4933
17192TIP3   OH272990   5.785   4.864  14.163  0.2321 -1.0213 -0.2152
17192TIP3    H172991   5.749   4.870  14.075  3.9802 -0.1205 -1.8722
17192TIP3    H272992   5.879   4.877  14.152  0.8344 -0.2629  4.0065
17193TIP3   OH272993   2.284   5.095   2.199 -0.3215  0.6766  0.1433
17193TIP3    H172994   2.221   5.099   2.126  0.3416  0.5645 -0.4452
17193TIP3    H272995   2.273   5.179   2.244  1.3457  2.0878 -1.8874
17194TIP3   OH272996   3.903   4.250   1.197 -0.3403 -0.0685 -0.3108
17194TIP3    H172997   3.963   4.218   1.264 -1.7429  0.1216  1.0870
17194TIP3    H272998   3.848   4.174   1.176 -0.4717  0.1090 -0.6142
17195TIP3   OH272999   1.110   0.945  14.774 -0.1678  0.0477 -0.3138
17195TIP3    H173000   1.136   1.034  14.799  0.3943 -0.7468  2.1694
17195TIP3    H273001   1.092   0.901  14.857 -0.4155 -2.1784 -1.4841
17196TIP3   OH273002   5.141   1.801   4.508  0.0556 -0.2485  0.5024
17196TIP3    H173003   5.104   1.781   4.422  0.0580 -1.0477  0.6863
17196TIP3    H273004   5.194   1.880   4.493  1.3164 -1.2446 -0.5828
17197TIP3   OH273005   2.324   3.161  11.236 -0.6269  0.0980 -0.1846
17197TIP3    H173006   2.229   3.153  11.241 -0.5009 -0.6073  2.6452
17197TIP3    H273007   2.352   3.079  11.194 -1.2066 -0.1498 -0.1006
17198TIP3   OH273008   3.351   2.570   0.517  0.6453  0.4331  0.2088
17198TIP3    H173009   3.304   2.632   0.572  0.4478 -0.0415  0.5848
17198TIP3    H273010   3.402   2.624   0.457  0.5402  0.9541  0.5859
17199TIP3   OH273011   5.981   4.303  16.572 -0.0001 -0.7192  0.3030
17199TIP3    H173012   5.918   4.371  16.596 -0.5011 -0.6642 -1.0742
17199TIP3    H273013   5.959   4.281  16.482  2.3977 -0.2153 -0.4587
17200TIP3   OH273014   0.069   1.114   4.428 -0.0152  0.1460  0.3288
17200TIP3    H173015  -0.019   1.142   4.403  0.9085  2.3673 -0.7791
17200TIP3    H273016   0.089   1.166   4.506  0.4995  0.0844  0.2402
17201TIP3   OH273017   2.429   4.256  13.126  0.0601  0.2704  0.3982
17201TIP3    H173018   2.492   4.300  13.069 -1.5397  0.8238 -1.0187
17201TIP3    H273019   2.396   4.325  13.183 -0.2189  0.2639  0.2454
17202TIP3   OH273020   1.730   6.734   3.788 -0.3084  0.0399  0.6282
17202TIP3    H173021   1.669   6.660   3.783 -0.9200  0.4874  1.2483
17202TIP3    H273022   1.753   6.752   3.697 -1.7702  0.3812  0.2972
17203TIP3   OH273023   3.945   0.337  11.333 -0.2511 -0.0293 -0.0742
17203TIP3    H173024   3.867   0.288  11.307  0.5611 -1.6348  0.4234
17203TIP3    H273025   4.007   0.323  11.261  0.1337 -0.0681  0.2619
17204TIP3   OH273026   0.397   4.849   2.126 -0.5495 -0.0549  0.6413
17204TIP3    H173027   0.424   4.794   2.199  1.1683 -1.7479 -1.1393
17204TIP3    H273028   0.339   4.793   2.074  1.5372 -0.4655 -1.4058
17205TIP3   OH273029   0.207   0.405  14.364  0.0148 -0.0537 -0.5137
17205TIP3    H173030   0.210   0.418  14.458 -2.1433 -1.3835 -0.1734
17205TIP3    H273031   0.259   0.326  14.348  0.3067  0.1210 -0.4107
17206TIP3   OH273032   6.177   0.019  16.256 -0.5098 -0.3904  0.1634
17206TIP3    H173033   6.192   0.089  16.192 -0.5223  0.0159  0.5981
17206TIP3    H273034   6.083   0.022  16.274 -0.6600 -1.0684 -0.4262
17207TIP3   OH273035   6.782   3.510   2.884  0.4925  0.0643 -0.3015
17207TIP3    H173036   6.861   3.454   2.888 -0.7593 -1.7553  0.5597
17207TIP3    H273037   6.749   3.498   2.795  1.0235  0.6271 -0.5840
17208TIP3   OH273038   3.135   3.034   4.521  0.7741 -0.8419 -0.0134
17208TIP3    H173039   3.130   2.939   4.536  1.4435 -0.7906  0.5756
17208TIP3    H273040   3.214   3.062   4.568  0.7446 -0.0346 -0.4206
17209TIP3   OH273041   6.811   4.038  16.837 -0.0989  0.3691  0.5172
17209TIP3    H173042   6.729   4.071  16.802  0.3466 -1.2376 -2.3988
17209TIP3    H273043   6.785   3.970  16.899 -0.9831  0.2544  0.0321
17210TIP3   OH273044   6.169   1.179  11.623  0.5177 -0.0471  0.0965
17210TIP3    H173045   6.095   1.123  11.600  0.8757 -0.9275  1.0172
17210TIP3    H273046   6.229   1.171  11.549 -0.6850  1.4065 -1.0877
17211TIP3   OH273047   4.955   1.826   1.509 -0.2297 -0.0942 -0.0246
17211TIP3    H173048   4.885   1.887   1.530 -2.0046 -1.5484 -1.3708
17211TIP3    H273049   4.949   1.814   1.414 -1.0807 -3.5175  0.3238
17212TIP3   OH273050   3.771   2.271   1.926 -0.4962 -0.9836 -0.2347
17212TIP3    H173051   3.861   2.244   1.944 -0.0198 -1.4162 -2.8823
17212TIP3    H273052   3.716   2.202   1.963  0.2613 -1.1077  0.6958
17213TIP3   OH273053   0.349   0.970  15.765 -0.4997  0.1713 -0.2798
17213TIP3    H173054   0.365   0.881  15.735 -1.4552  0.4449 -1.6936
17213TIP3    H273055   0.430   1.017  15.747 -0.0537 -0.3633  0.3122
17214TIP3   OH273056   4.753   0.093   5.822 -0.0376 -0.1345 -0.9867
17214TIP3    H173057   4.798   0.009   5.821 -0.3476 -0.2973 -1.5902
17214TIP3    H273058   4.806   0.149   5.765 -0.4028 -0.2301 -1.4290
17215TIP3   OH273059   1.889   6.074  14.969 -0.4272 -0.0340 -0.0986
17215TIP3    H173060   1.859   6.126  15.044 -1.4026 -1.0632  0.2619
17215TIP3    H273061   1.825   6.093  14.900  0.1874  0.5311 -0.5272
17216TIP3   OH273062   1.861   6.681   6.370 -0.6546 -0.1311  0.2513
17216TIP3    H173063   1.822   6.613   6.314 -1.2252 -1.0522  1.7133
17216TIP3    H273064   1.890   6.634   6.448 -0.1466  1.1709  0.8727
17217TIP3   OH273065   2.590   1.519  13.693 -0.0419  0.5065  0.3921
17217TIP3    H173066   2.508   1.513  13.741  0.0628  0.1086  0.5281
17217TIP3    H273067   2.613   1.611  13.696  0.0023  0.4745  1.1745
17218TIP3   OH273068   5.096   5.581   3.340 -0.3616 -0.0863  0.9001
17218TIP3    H173069   5.135   5.643   3.402 -0.7199 -0.6070  1.6499
17218TIP3    H273070   5.099   5.497   3.384  0.6289 -0.7282 -0.3402
17219TIP3   OH273071   4.733   1.150   5.605 -0.2086  0.2441 -0.4553
17219TIP3    H173072   4.757   1.060   5.629 -0.4783  0.1978 -0.3550
17219TIP3    H273073   4.746   1.200   5.685 -1.7060 -0.0246 -0.0230
17220TIP3   OH273074   2.391   5.786   3.124  0.3465  0.4596 -0.0292
17220TIP3    H173075   2.316   5.770   3.066  0.4380 -0.9182  0.1953
17220TIP3    H273076   2.352   5.830   3.200 -0.0456  0.7791 -0.4084
17221TIP3   OH273077   5.159   3.606   0.799  0.0937 -0.1094  0.0732
17221TIP3    H173078   5.162   3.535   0.864  0.3100 -1.4991 -1.3944
17221TIP3    H273079   5.077   3.593   0.753  1.1018 -0.7547 -1.6243
17222TIP3   OH273080   4.498   3.909   4.621  0.2109 -0.4209 -0.2940
17222TIP3    H173081   4.545   3.990   4.600 -0.8012  0.1278 -0.4852
17222TIP3    H273082   4.415   3.939   4.660  0.0625 -1.3753  0.1450
17223TIP3   OH273083   1.941   0.523   1.866 -0.2502 -0.6752 -0.3239
17223TIP3    H173084   1.867   0.556   1.815 -0.6676  0.2096  0.8055
17223TIP3    H273085   1.900   0.474   1.938  0.2938 -0.9115 -0.1687
17224TIP3   OH273086   4.952   5.236  17.029  0.1797  0.7100 -0.1019
17224TIP3    H173087   4.961   5.265  17.120 -2.3312 -0.8461  0.7495
17224TIP3    H273088   5.037   5.196  17.009  1.3572  2.5207  0.9284
17225TIP3   OH273089   5.110   4.339   0.600  0.3206 -0.1004  0.8164
17225TIP3    H173090   5.145   4.416   0.644 -0.3691  1.0206 -0.5212
17225TIP3    H273091   5.185   4.279   0.595  0.4156 -0.3361  3.4965
17226TIP3   OH273092   6.239   1.572   5.649 -0.6513  0.1896 -0.3959
17226TIP3    H173093   6.182   1.616   5.712 -0.8830 -1.1082  0.3189
17226TIP3    H273094   6.297   1.519   5.702  0.0556  0.1178 -1.2223
17227TIP3   OH273095   1.820   3.124  12.990  0.0912 -0.5548 -0.2941
17227TIP3    H173096   1.911   3.095  12.985  1.0847  1.9954  1.2677
17227TIP3    H273097   1.774   3.052  13.034  1.8553 -0.9386  1.0334
17228TIP3   OH273098   5.318   3.021  12.731 -0.3228 -0.3369 -0.0308
17228TIP3    H173099   5.396   2.965  12.731 -0.4420 -0.5610 -2.0080
17228TIP3    H273100   5.352   3.109  12.745  0.2076 -0.5220 -0.1451
17229TIP3   OH273101   1.907   5.988   4.018  0.5079  0.1415 -0.5382
17229TIP3    H173102   1.921   5.990   3.923 -0.5337 -0.1397 -0.7117
17229TIP3    H273103   1.824   5.942   4.029  0.3019  0.7250  0.4763
17230TIP3   OH273104   1.062   5.128   1.085 -0.1295  0.5965 -0.1081
17230TIP3    H173105   1.053   5.223   1.072 -0.1411  0.3286 -2.5945
17230TIP3    H273106   1.057   5.092   0.997  1.6580 -1.6007  0.6115
17231TIP3   OH273107   0.591   3.411   0.809 -0.0576 -0.2377  0.3231
17231TIP3    H173108   0.597   3.454   0.723 -3.0865  0.0517  0.1433
17231TIP3    H273109   0.522   3.459   0.855  0.0031 -1.7471  2.1000
17232TIP3   OH273110   0.827   3.768   0.798  0.1271  0.3941 -0.3573
17232TIP3    H173111   0.797   3.799   0.883  1.0330  0.1406  0.0677
17232TIP3    H273112   0.893   3.831   0.771 -1.6302  1.6985 -1.9028
17233TIP3   OH273113   3.807   4.313   2.888  0.1177 -0.3421  0.1804
17233TIP3    H173114   3.830   4.370   2.814 -0.1624 -0.3018  0.1228
17233TIP3    H273115   3.792   4.373   2.960 -1.0595 -0.2611 -0.1031
17234TIP3   OH273116   4.178   2.053  16.506 -0.0695 -0.1315  0.1788
17234TIP3    H173117   4.159   2.002  16.585 -1.2842 -0.5354 -0.3513
17234TIP3    H273118   4.115   2.021  16.442  0.2022  0.9462 -0.6410
17235TIP3   OH273119   3.994   2.078  14.608 -0.1817 -0.0552 -0.3079
17235TIP3    H173120   4.012   2.060  14.516  0.8698  1.3394 -0.4078
17235TIP3    H273121   4.079   2.074  14.651 -0.6933 -0.9279  0.6653
17236TIP3   OH273122   1.421   0.362  15.350 -0.2521 -0.5116  0.3298
17236TIP3    H173123   1.328   0.387  15.359  0.2116  0.8993  1.7428
17236TIP3    H273124   1.461   0.390  15.433  1.3547 -1.5363 -0.0601
17237TIP3   OH273125   4.193   4.583   4.916 -0.3201  0.7405 -1.0236
17237TIP3    H173126   4.233   4.526   4.850 -2.3675  0.2880 -1.9601
17237TIP3    H273127   4.106   4.603   4.881 -0.2502  3.2082  0.0155
17238TIP3   OH273128   1.746   0.767   0.400 -0.1709  0.2273 -0.0077
17238TIP3    H173129   1.802   0.781   0.476 -0.8009  0.2852  0.4514
17238TIP3    H273130   1.807   0.749   0.328  0.3944 -1.2570  0.7994
17239TIP3   OH273131   6.425   5.539   2.809 -0.7670  0.4816 -0.5234
17239TIP3    H173132   6.428   5.634   2.821  3.0871  0.4221  0.0085
17239TIP3    H273133   6.403   5.504   2.895  0.9483  0.8624  0.1021
17240TIP3   OH273134   3.579   3.910  16.055 -0.1452 -0.1115  0.1951
17240TIP3    H173135   3.565   3.993  16.102 -1.5591 -0.6389  0.7490
17240TIP3    H273136   3.576   3.843  16.123  0.2683 -0.6837 -0.3392
17241TIP3   OH273137   6.755   1.921  12.115  0.0137 -0.3823 -0.3121
17241TIP3    H173138   6.668   1.885  12.097 -0.3225 -0.3574  1.1431
17241TIP3    H273139   6.813   1.844  12.115 -0.4131 -0.7334  1.0213
17242TIP3   OH273140   5.922   0.667   0.552 -0.9981 -0.1349 -0.1563
17242TIP3    H173141   5.920   0.639   0.460 -3.0418  0.4622 -0.3510
17242TIP3    H273142   5.862   0.608   0.596  0.7788 -1.1153  1.0825
17243TIP3   OH273143   1.800   6.322   3.513 -0.2968  0.1882 -0.6482
17243TIP3    H173144   1.894   6.313   3.497 -0.4601 -1.1014 -0.9175
17243TIP3    H273145   1.793   6.327   3.608 -0.0207 -0.5952 -0.5809
17244TIP3   OH273146   5.097   0.957  16.145  0.0725  0.0653 -0.1957
17244TIP3    H173147   5.051   0.991  16.069 -0.9489  0.1099  0.4216
17244TIP3    H273148   5.074   0.864  16.149  0.7644 -0.1221 -0.3906
17245TIP3   OH273149   6.484   5.334   0.203 -0.2682  0.0971  0.7538
17245TIP3    H173150   6.405   5.285   0.179  0.1403 -0.5658  0.7251
17245TIP3    H273151   6.555   5.269   0.196  0.1698  0.4868  1.5418
17246TIP3   OH273152   6.642   1.070  10.977 -0.0716  0.2196  0.5404
17246TIP3    H173153   6.606   1.153  11.008 -0.6325  0.2190 -0.0851
17246TIP3    H273154   6.573   1.006  10.993 -0.5594  0.2959 -1.0847
17247TIP3   OH273155   1.792   4.745  12.358 -0.1015  0.2137  0.0121
17247TIP3    H173156   1.819   4.684  12.289  0.3070  0.9656 -0.5070
17247TIP3    H273157   1.705   4.775  12.331  0.0957  0.5769 -0.2423
17248TIP3   OH273158   1.223   4.066   2.702 -0.2173 -0.5727 -0.5311
17248TIP3    H173159   1.131   4.065   2.729 -0.2412 -0.5149 -0.6091
17248TIP3    H273160   1.256   4.150   2.733 -0.2468 -0.5020 -0.6855
17249TIP3   OH273161   6.360   5.311   6.012  0.0680 -0.0411 -0.0671
17249TIP3    H173162   6.328   5.378   6.072 -1.0014 -0.6851  0.1124
17249TIP3    H273163   6.452   5.333   5.998 -0.2976  1.5295 -0.1279
17250TIP3   OH273164   4.271   1.865  10.903 -0.2475  0.2340 -0.0810
17250TIP3    H173165   4.330   1.824  10.965 -2.9808 -1.7225  1.4596
17250TIP3    H273166   4.290   1.959  10.911  1.3885 -0.1722  1.6282
17251TIP3   OH273167   3.131   4.412  16.679 -0.6382  0.2498  0.1464
17251TIP3    H173168   3.209   4.418  16.734  0.1194  1.6027 -1.0155
17251TIP3    H273169   3.132   4.321  16.647  0.0905  0.0594  0.6667
17252TIP3   OH273170   4.900   4.555   2.141 -0.1476  0.6742  0.0997
17252TIP3    H173171   4.836   4.626   2.138 -0.3663  0.5001  0.4879
17252TIP3    H273172   4.872   4.501   2.215  0.8412  0.9774  0.7207
17253TIP3   OH273173   1.465   6.491   4.913  0.4517  0.0241  0.2168
17253TIP3    H173174   1.491   6.400   4.927 -1.9692 -0.7635  0.0395
17253TIP3    H273175   1.478   6.505   4.820  3.3934  0.8111  0.6451
17254TIP3   OH273176   5.476   5.556  16.862 -0.7634  0.0865  0.4089
17254TIP3    H173177   5.476   5.464  16.839  1.8797 -0.0765  0.7733
17254TIP3    H273178   5.423   5.561  16.942 -0.5092 -1.1808  0.6720
17255TIP3   OH273179   3.679   2.297   5.662  0.2815  0.1084  0.8382
17255TIP3    H173180   3.712   2.386   5.651  1.0253 -0.4448 -2.5578
17255TIP3    H273181   3.751   2.240   5.633 -1.2807 -1.4197 -0.2738
17256TIP3   OH273182   3.513   6.403   6.020  0.1620  0.7870 -0.5837
17256TIP3    H173183   3.429   6.395   5.974 -0.2723 -1.0310  0.4644
17256TIP3    H273184   3.570   6.339   5.978  0.7304  1.2724 -0.5767
17257TIP3   OH273185   0.217   3.255   4.713 -0.1551  0.1963 -0.2771
17257TIP3    H173186   0.170   3.329   4.673  0.1253 -0.2774 -1.5072
17257TIP3    H273187   0.153   3.216   4.772 -1.1806 -0.1234 -1.5393
17258TIP3   OH273188   0.159   5.097  13.913 -0.1033 -0.1364  0.0330
17258TIP3    H173189   0.241   5.132  13.878 -1.0005  1.9582 -0.1154
17258TIP3    H273190   0.093   5.161  13.888 -1.4427 -0.6235  2.0594
17259TIP3   OH273191   2.816   6.255  12.491 -0.3346 -0.8633  0.4210
17259TIP3    H173192   2.888   6.202  12.526  1.0301  0.1498 -0.7241
17259TIP3    H273193   2.840   6.345  12.513 -2.0171 -0.6001  1.2838
17260TIP3   OH273194   6.024   3.138   5.490 -0.8655  0.4565  0.1465
17260TIP3    H173195   6.024   3.151   5.395 -0.5623 -1.6550 -0.1834
17260TIP3    H273196   6.109   3.099   5.509 -0.7261  1.3028  1.3902
17261TIP3   OH273197   5.896   2.423  13.566  0.3672  0.0665  0.1978
17261TIP3    H173198   5.807   2.457  13.567  0.4626  0.3432  1.6999
17261TIP3    H273199   5.888   2.335  13.528 -0.5792 -0.0110  0.5620
17262TIP3   OH273200   4.888   3.229   2.813 -0.0725  0.0959 -0.1783
17262TIP3    H173201   4.892   3.323   2.797  2.5574  0.2480  0.8573
17262TIP3    H273202   4.796   3.211   2.829 -0.6743  2.4292 -0.7131
17263TIP3   OH273203   1.519   4.554   0.148  0.3836  0.8720 -0.4675
17263TIP3    H173204   1.424   4.569   0.146 -0.3133 -2.4378  0.7115
17263TIP3    H273205   1.535   4.498   0.072  1.3382  1.0693 -0.4165
17264TIP3   OH273206   5.432   2.199   3.627  0.4436  0.5412  0.1610
17264TIP3    H173207   5.455   2.275   3.572  1.2241 -0.7813 -1.4434
17264TIP3    H273208   5.446   2.124   3.569  1.3977 -0.9476  2.2191
17265TIP3   OH273209   5.663   2.201  14.376  0.1025 -0.0665  1.0773
17265TIP3    H173210   5.659   2.148  14.296 -0.9610  0.4993  0.7288
17265TIP3    H273211   5.731   2.159  14.429  0.4141 -0.8080  0.1335
17266TIP3   OH273212   3.067   2.449  15.038  0.2931 -0.0326  0.0027
17266TIP3    H173213   3.026   2.446  14.952  2.0196 -0.0290 -0.8462
17266TIP3    H273214   3.111   2.365  15.048 -1.0274 -0.5999  1.4967
17267TIP3   OH273215   4.371   2.001   4.634  0.1118 -0.0074  0.0182
17267TIP3    H173216   4.303   1.936   4.615 -0.2179  0.1146  0.7332
17267TIP3    H273217   4.331   2.058   4.700  1.3455 -0.6867  1.4193
17268TIP3   OH273218   0.393   3.982   1.970 -0.3930 -0.9796  0.1293
17268TIP3    H173219   0.320   3.947   1.918 -0.8075 -0.7833  0.5668
17268TIP3    H273220   0.361   3.977   2.061 -0.6590  0.9878  0.1755
17269TIP3   OH273221   0.782   5.636  12.445 -0.1359  0.3070  0.3553
17269TIP3    H173222   0.734   5.681  12.375 -3.3740 -0.5925  1.7918
17269TIP3    H273223   0.807   5.705  12.506  3.3714  1.2054 -1.8407
17270TIP3   OH273224   1.128   2.915   5.405 -0.1285  0.4133  0.9509
17270TIP3    H173225   1.141   2.933   5.312 -1.4012  4.2631  1.3267
17270TIP3    H273226   1.035   2.936   5.420  0.2002  0.4773  3.1578
17271TIP3   OH273227   2.535   0.085   1.412 -0.2935 -0.1545  0.2821
17271TIP3    H173228   2.550  -0.003   1.378  1.3480  0.4975 -0.8545
17271TIP3    H273229   2.464   0.076   1.475 -1.4816 -1.9570 -1.2181
17272TIP3   OH273230   0.288   2.892  14.643 -0.1307 -0.3994 -0.3438
17272TIP3    H173231   0.301   2.819  14.703 -0.3169 -1.1163 -1.1438
17272TIP3    H273232   0.351   2.959  14.671 -1.2713 -0.0869  1.5799
17273TIP3   OH273233   3.922   6.741   3.434 -0.1369  0.2992 -0.5848
17273TIP3    H173234   3.869   6.771   3.507 -0.0467 -1.5621  0.2888
17273TIP3    H273235   3.859   6.714   3.367 -0.2461  0.5253 -0.5719
17274TIP3   OH273236   2.494   5.072  16.681 -0.3232  0.1554  0.0648
17274TIP3    H173237   2.574   5.080  16.733 -0.5807 -1.1647  0.7199
17274TIP3    H273238   2.457   5.160  16.680  0.5417  0.5461  0.7212
17275TIP3   OH273239   4.168   4.325   3.469  0.5243 -0.1169 -0.0015
17275TIP3    H173240   4.214   4.345   3.551  1.3884  1.5985 -0.8596
17275TIP3    H273241   4.080   4.360   3.483  0.7246  0.3479  0.1488
17276TIP3   OH273242   2.184   2.932   2.922  0.4867 -0.3202 -0.4094
17276TIP3    H173243   2.235   2.929   2.840  0.8763  0.7727 -0.2294
17276TIP3    H273244   2.250   2.934   2.991  0.1625 -2.4410  0.0295
17277TIP3   OH273245   2.800   1.491   4.612  0.0625 -0.2541  0.1430
17277TIP3    H173246   2.834   1.492   4.702  1.6615 -0.0009 -0.4193
17277TIP3    H273247   2.706   1.506   4.621  0.3657  0.9972  1.7071
17278TIP3   OH273248   3.396   5.699  14.326  0.2116 -0.1848 -0.0991
17278TIP3    H173249   3.363   5.709  14.415 -0.4892  0.6149 -0.4350
17278TIP3    H273250   3.318   5.709  14.270  0.7432 -0.0302 -0.8260
17279TIP3   OH273251   6.740   4.218  13.518 -0.1861  0.1549 -0.3868
17279TIP3    H173252   6.730   4.191  13.427  2.7315 -0.8981 -0.4986
17279TIP3    H273253   6.690   4.300  13.525 -0.6317  0.1615 -2.8665
17280TIP3   OH273254   6.087   6.693  13.193 -0.1435  0.0962 -0.2094
17280TIP3    H173255   6.020   6.695  13.262  0.2099  0.0121  0.1403
17280TIP3    H273256   6.151   6.759  13.220  0.2251 -0.2533 -0.2215
17281TIP3   OH273257   4.369   1.956   3.555 -0.1262 -0.2961 -0.3309
17281TIP3    H173258   4.424   2.034   3.555 -3.0473  1.9304  1.2724
17281TIP3    H273259   4.360   1.933   3.647 -0.4387 -1.7353 -0.6970
17282TIP3   OH273260   3.199   4.038  11.406  0.3411 -0.8736 -0.3679
17282TIP3    H173261   3.124   3.999  11.360  0.1461  0.2036 -0.9921
17282TIP3    H273262   3.201   3.993  11.490 -2.4989  0.6577  0.6636
17283TIP3   OH273263   0.670   3.636   1.289 -0.3154  0.2649 -0.2103
17283TIP3    H173264   0.579   3.667   1.280 -0.0426  1.1094 -0.1960
17283TIP3    H273265   0.701   3.676   1.370 -0.4020 -1.2739  0.6180
17284TIP3   OH273266   2.556   1.239  14.860 -0.8001 -0.2461 -0.3135
17284TIP3    H173267   2.542   1.319  14.911 -1.1525  0.8608 -2.0575
17284TIP3    H273268   2.470   1.197  14.858 -0.3305 -1.4100  1.7124
17285TIP3   OH273269   5.914   5.774  15.852 -0.0683  0.2935  0.2226
17285TIP3    H173270   5.933   5.862  15.883 -0.0033  0.4189 -0.1717
17285TIP3    H273271   5.824   5.779  15.819  0.4720  0.6182 -1.2601
17286TIP3   OH273272   2.852   6.288   4.815  0.0092 -0.6622 -0.8160
17286TIP3    H173273   2.772   6.336   4.792  0.9106  0.7438 -1.1303
17286TIP3    H273274   2.899   6.347   4.874 -0.1994 -2.3978  1.2261
17287TIP3   OH273275   5.406   1.066  12.897 -0.3827 -0.6664 -0.0695
17287TIP3    H173276   5.498   1.074  12.872 -0.7429 -1.9312 -2.0248
17287TIP3    H273277   5.388   1.144  12.949  2.1466 -1.0993  1.6258
17288TIP3   OH273278   0.093   4.257  17.003 -0.6608 -0.3050  0.9284
17288TIP3    H173279   0.118   4.179  16.954  1.9969  1.4540 -0.7887
17288TIP3    H273280  -0.001   4.265  16.990 -0.2836 -0.5047 -3.1806
17289TIP3   OH273281   3.297   2.082   4.843  0.3800 -0.3674  0.0977
17289TIP3    H173282   3.210   2.042   4.844  0.4265 -0.4581  0.8765
17289TIP3    H273283   3.357   2.008   4.852  0.4667 -0.1520  1.5459
17290TIP3   OH273284   4.833   2.698   3.964 -0.0804  0.4646  0.2504
17290TIP3    H173285   4.902   2.680   3.900 -0.0735 -1.7191  0.7702
17290TIP3    H273286   4.877   2.740   4.037  0.3098  0.9938 -0.2882
17291TIP3   OH273287   2.372   5.424  11.647 -0.3419 -0.5802 -0.0494
17291TIP3    H173288   2.334   5.448  11.731  0.3971 -1.2090  0.4761
17291TIP3    H273289   2.350   5.332  11.637  1.9949 -1.2882  0.8249
17292TIP3   OH273290   6.071   5.398  12.190 -0.0862  0.1266 -0.1087
17292TIP3    H173291   6.064   5.359  12.103 -0.2872  3.8087 -1.9097
17292TIP3    H273292   6.162   5.383  12.215  0.0189 -0.8634 -0.9946
17293TIP3   OH273293   0.100   4.044   3.859  0.3292  0.7377  0.0117
17293TIP3    H173294   0.135   3.964   3.897 -1.0891 -0.1867 -0.5388
17293TIP3    H273295   0.142   4.051   3.774 -0.2735  0.0306 -0.3494
17294TIP3   OH273296   6.048   6.252   6.067  0.5837  0.1438 -0.5739
17294TIP3    H173297   6.108   6.181   6.089  0.2500 -0.0924 -0.4167
17294TIP3    H273298   6.095   6.332   6.094  1.3917  0.0756 -1.7025
17295TIP3   OH273299   5.103   3.942   0.839 -0.6755 -0.5107 -0.0030
17295TIP3    H173300   5.142   3.859   0.810  2.3017  1.2250 -1.3902
17295TIP3    H273301   5.127   4.004   0.771 -0.1777  2.1574  2.4382
17296TIP3   OH273302   4.144   4.872  16.102  0.0602 -0.4966 -0.1610
17296TIP3    H173303   4.144   4.911  16.015 -0.4849  0.6999  0.3556
17296TIP3    H273304   4.226   4.823  16.107  1.5946  1.9228 -0.2505
17297TIP3   OH273305   2.455   3.022  13.788  0.8860 -0.1917  0.5270
17297TIP3    H173306   2.401   2.990  13.861  1.6609  1.2233  1.7636
17297TIP3    H273307   2.512   2.948  13.766 -0.8790 -1.4118 -0.2152
17298TIP3   OH273308   0.346   4.643   2.638  0.4106  0.1234  0.1180
17298TIP3    H173309   0.291   4.628   2.715  0.2745  1.9065  0.3924
17298TIP3    H273310   0.286   4.638   2.564 -0.0412  1.4305  0.3696
17299TIP3   OH273311   6.609   5.168   5.321 -0.0846  0.2912  0.0337
17299TIP3    H173312   6.657   5.244   5.287 -0.7618  0.5880 -0.2628
17299TIP3    H273313   6.544   5.148   5.254  0.1897 -0.6664  0.0303
17300TIP3   OH273314   5.542   6.759   5.104 -0.0525  0.6632  0.2753
17300TIP3    H173315   5.543   6.813   5.025 -2.3918 -0.2629 -0.4918
17300TIP3    H273316   5.452   6.765   5.136  0.1897 -0.9822  1.4220
17301TIP3   OH273317   1.605   4.233   5.473  0.5209  0.5784  0.2429
17301TIP3    H173318   1.655   4.314   5.486  1.1731  0.3491 -0.7989
17301TIP3    H273319   1.652   4.186   5.405 -1.0248  0.2881 -0.6779
17302TIP3   OH273320   3.369   2.377  16.565  0.1197  0.3889  0.0197
17302TIP3    H173321   3.328   2.348  16.647 -0.4716  2.0157  0.3402
17302TIP3    H273322   3.463   2.365  16.580 -0.0533 -0.5555  0.4317
17303TIP3   OH273323   5.964   0.623   2.379  0.1113  0.4074  0.3493
17303TIP3    H173324   5.969   0.676   2.299  1.4999 -1.9674 -1.2529
17303TIP3    H273325   6.028   0.662   2.438 -1.4783  2.6802  0.7346
17304TIP3   OH273326   1.357   3.516  15.446 -0.5185 -0.1836  0.6258
17304TIP3    H173327   1.434   3.572  15.456  1.0872 -2.3009  0.6812
17304TIP3    H273328   1.350   3.502  15.351 -1.2457  0.4814  0.5647
17305TIP3   OH273329   5.332   3.611  11.952 -0.5653  0.7648  0.1163
17305TIP3    H173330   5.360   3.654  12.033 -1.2249  1.2534  0.0902
17305TIP3    H273331   5.357   3.519  11.964 -1.0571  0.7402  1.0682
17306TIP3   OH273332   3.806   2.609  16.902  0.1332 -0.3383  0.1411
17306TIP3    H173333   3.807   2.516  16.927  0.2041 -1.2457 -2.8558
17306TIP3    H273334   3.714   2.635  16.913 -0.1224 -1.1208 -0.0406
17307TIP3   OH273335   3.210   5.744   4.127  0.2542  0.1694  0.1791
17307TIP3    H173336   3.283   5.767   4.184  0.4823  0.5880 -0.2738
17307TIP3    H273337   3.212   5.649   4.122 -0.1309  0.0873  1.3316
17308TIP3   OH273338   3.712   2.253   2.821 -0.2064  0.6801  0.0820
17308TIP3    H173339   3.621   2.279   2.806  0.0315  0.9056 -1.0604
17308TIP3    H273340   3.748   2.323   2.876 -0.6009  0.7993  0.1932
17309TIP3   OH273341   0.448   5.523  16.182  0.3941  0.1607  0.3263
17309TIP3    H173342   0.526   5.470  16.162 -0.4796 -1.4992  1.0947
17309TIP3    H273343   0.482   5.611  16.196  2.0048 -0.3070 -0.3752
17310TIP3   OH273344   3.064   6.419   2.255 -0.1947  0.0089  0.0486
17310TIP3    H173345   3.140   6.376   2.216 -0.5721  0.7528 -1.5774
17310TIP3    H273346   3.086   6.512   2.254 -0.8243  0.1638  0.2356
17311TIP3   OH273347   6.510   1.792  12.066  0.1735  0.5015 -0.6490
17311TIP3    H173348   6.563   1.720  12.102 -0.6684 -0.7699 -1.8314
17311TIP3    H273349   6.473   1.756  11.985  0.4377  2.5972 -1.7716
17312TIP3   OH273350   1.087   6.256   3.556  0.3491  0.2840  0.1279
17312TIP3    H173351   1.055   6.172   3.524  0.2193  0.4699 -0.2294
17312TIP3    H273352   1.109   6.306   3.477 -1.6916  1.4300  0.1990
17313TIP3   OH273353   3.565   2.555  15.708 -0.1826 -0.6825  0.2154
17313TIP3    H173354   3.635   2.578  15.647 -0.4245 -0.9233 -0.1576
17313TIP3    H273355   3.596   2.586  15.793 -0.1919  0.3721 -0.1542
17314TIP3   OH273356   3.925   5.473   5.375 -0.1811 -0.5075 -0.0727
17314TIP3    H173357   3.945   5.551   5.323 -0.3621 -0.2313  0.2690
17314TIP3    H273358   3.955   5.400   5.321  0.2660 -0.1851 -0.2664
17315TIP3   OH273359   0.633   6.739  16.680  0.2077 -0.9662  0.0843
17315TIP3    H173360   0.587   6.820  16.702 -0.7836 -1.1032 -1.3164
17315TIP3    H273361   0.702   6.732  16.745  1.3387  1.8532 -0.6741
17316TIP3   OH273362   6.701   5.327  12.197 -0.5919 -0.2322 -0.3784
17316TIP3    H173363   6.626   5.281  12.158 -1.0974  0.2210  0.0454
17316TIP3    H273364   6.740   5.375  12.124 -1.0765  0.0115 -0.4816
17317TIP3   OH273365   4.162   4.078  16.924  0.3018 -0.2631 -0.1908
17317TIP3    H173366   4.205   4.011  16.871 -0.8676 -1.4077  0.2421
17317TIP3    H273367   4.167   4.045  17.014  0.4502  0.6472  0.1463
17318TIP3   OH273368   3.143   1.110  13.019 -0.2224 -0.2711 -0.8592
17318TIP3    H173369   3.109   1.020  13.021  1.5975 -1.0783 -2.9619
17318TIP3    H273370   3.091   1.154  12.952  0.9663 -0.7328 -2.1336
17319TIP3   OH273371   2.696   2.891  14.413  0.0533 -0.7567 -0.5157
17319TIP3    H173372   2.642   2.842  14.351 -2.1891  1.1764 -0.2339
17319TIP3    H273373   2.701   2.979  14.376  0.1384 -0.0189  1.1523
17320TIP3   OH273374   3.464   6.088  12.889 -0.3700  0.2732  0.1924
17320TIP3    H173375   3.452   5.998  12.856 -0.2594  0.5817 -0.7148
17320TIP3    H273376   3.392   6.100  12.951  0.1391 -0.7488  1.0076
17321TIP3   OH273377   4.504   4.486  15.691  0.5129 -0.4614 -0.0468
17321TIP3    H173378   4.527   4.404  15.735 -0.4658 -0.0544  1.2830
17321TIP3    H273379   4.416   4.471  15.656  0.7461 -0.3178 -0.7162
17322TIP3   OH273380   2.461   4.546   6.137 -0.1752  0.6539 -0.3407
17322TIP3    H173381   2.421   4.466   6.102 -0.4454  0.6153  0.0511
17322TIP3    H273382   2.393   4.585   6.192  0.8283 -0.2693  1.6751
17323TIP3   OH273383   0.735   5.706   0.843  0.0155 -0.0670 -0.1985
17323TIP3    H173384   0.787   5.653   0.904  0.3883  0.1691 -0.3087
17323TIP3    H273385   0.752   5.668   0.757  0.7967  0.6210 -0.3632
17324TIP3   OH273386   1.585   5.903  11.492 -0.3153 -0.2335  0.0693
17324TIP3    H173387   1.588   5.991  11.530  0.4825 -0.6481  1.0350
17324TIP3    H273388   1.657   5.901  11.429 -0.9461  0.1035 -0.6757
17325TIP3   OH273389   2.825   1.843   5.099  0.2572 -0.4428 -0.0466
17325TIP3    H173390   2.866   1.852   5.013 -1.3436  0.5795 -0.7524
17325TIP3    H273391   2.884   1.785   5.147  1.3194 -0.8683 -1.7438
17326TIP3   OH273392   1.044   1.188   3.074  0.3441  0.1678 -0.2258
17326TIP3    H173393   1.119   1.154   3.123  0.5700  0.9366 -0.0194
17326TIP3    H273394   1.021   1.118   3.014 -0.3254 -1.0665  1.3873
17327TIP3   OH273395   2.438   5.902   5.880  0.5500  0.0316 -0.1360
17327TIP3    H173396   2.360   5.847   5.881  0.1618  0.5758 -0.0752
17327TIP3    H273397   2.476   5.892   5.967  0.4216 -0.0607 -0.0908
17328TIP3   OH273398   5.413   5.006  16.768  0.6800 -0.4808  0.3331
17328TIP3    H173399   5.467   4.960  16.704  0.2924 -1.7009  0.8487
17328TIP3    H273400   5.339   5.039  16.719 -0.0005 -2.0572  0.2489
17329TIP3   OH273401   4.138   6.637  10.767 -0.0365  0.3053  0.5481
17329TIP3    H173402   4.124   6.698  10.694 -0.7466 -0.3520  0.1018
17329TIP3    H273403   4.232   6.619  10.766 -0.1669 -0.4811 -0.8895
17330TIP3   OH273404   3.506   4.277  11.140  0.0446 -0.5024 -0.2418
17330TIP3    H173405   3.528   4.306  11.229  0.8281 -1.8154  0.0137
17330TIP3    H273406   3.419   4.239  11.148  0.4237 -1.3059  0.1326
17331TIP3   OH273407   4.614   4.816   3.659 -0.5764 -0.1185 -0.1722
17331TIP3    H173408   4.639   4.812   3.567  0.7688  0.4736  0.1513
17331TIP3    H273409   4.683   4.866   3.701 -1.5895  0.3320  1.0320
17332TIP3   OH273410   3.898   0.768   4.838  0.3486  0.0087 -0.0107
17332TIP3    H173411   3.857   0.683   4.849  0.3549  0.1104  0.8579
17332TIP3    H273412   3.854   0.824   4.902  1.8541  0.1115  0.9899
17333TIP3   OH273413   3.739   4.605  11.459 -0.1708 -0.3476 -0.2911
17333TIP3    H173414   3.718   4.517  11.427 -3.2174  0.2893 -0.2987
17333TIP3    H273415   3.768   4.653  11.382 -1.3675 -0.5632 -0.8938
17334TIP3   OH273416   1.527   0.373  16.506 -0.1597 -0.3213  0.1565
17334TIP3    H173417   1.515   0.323  16.587 -0.9686 -0.2046  0.1184
17334TIP3    H273418   1.516   0.464  16.534 -1.0957 -0.3175 -0.1908
17335TIP3   OH273419   2.780   0.157  11.735  0.0688 -0.6100 -0.2082
17335TIP3    H173420   2.777   0.242  11.778  3.0219 -0.7017  0.3660
17335TIP3    H273421   2.800   0.095  11.805  1.3541 -1.2741 -1.1245
17336TIP3   OH273422   6.128   4.920  11.939 -0.4213 -0.7427  0.3088
17336TIP3    H173423   6.033   4.935  11.934 -0.3039  0.1190  0.5764
17336TIP3    H273424   6.160   4.944  11.852 -0.4519 -1.0903  0.2000
17337TIP3   OH273425   6.271   4.061   0.095  0.5131 -0.2150  0.2276
17337TIP3    H173426   6.324   4.141   0.096  1.1593 -0.6152 -0.6975
17337TIP3    H273427   6.307   4.009   0.023 -0.4539 -0.9732  0.2724
17338TIP3   OH273428   1.991   3.430   0.317  0.8606 -0.0435  0.0602
17338TIP3    H173429   1.930   3.486   0.269  0.3216 -0.4600  0.2502
17338TIP3    H273430   2.028   3.488   0.384  1.2328  0.4042 -0.5163
17339TIP3   OH273431   2.836   4.988   0.998 -0.0580  0.5700  0.0447
17339TIP3    H173432   2.829   4.908   1.050  0.4540  0.8732  0.5991
17339TIP3    H273433   2.926   4.987   0.964 -0.5943  0.0389 -1.4137
17340TIP3   OH273434   5.014   0.333   6.158  0.5198  0.5302  0.0074
17340TIP3    H173435   4.932   0.286   6.141  0.0931  1.3491 -0.2915
17340TIP3    H273436   5.058   0.281   6.224  0.4907 -0.7694 -0.9526
17341TIP3   OH273437   3.596   5.076   0.340  0.4165 -1.0840  0.0830
17341TIP3    H173438   3.648   5.133   0.283 -0.9467 -0.4916 -0.6441
17341TIP3    H273439   3.618   4.987   0.313 -0.6770 -0.8156 -1.9066
17342TIP3   OH273440   2.288   4.601  11.331  0.8706  0.6292 -0.4305
17342TIP3    H173441   2.331   4.592  11.246 -2.3351 -0.6328 -2.0347
17342TIP3    H273442   2.258   4.692  11.333 -0.7232  0.1674 -1.5817
17343TIP3   OH273443   4.293   0.364   0.323 -0.0314 -0.5074  0.7319
17343TIP3    H173444   4.241   0.284   0.327  1.8934 -1.8465  0.0930
17343TIP3    H273445   4.258   0.418   0.394 -2.3678 -1.2342  0.2328
17344TIP3   OH273446   0.224   3.651  13.000 -0.1439  0.1540 -0.2350
17344TIP3    H173447   0.231   3.634  13.094  0.8351 -0.1399 -0.3514
17344TIP3    H273448   0.287   3.590  12.960  1.1544  1.8578 -0.9060
17345TIP3   OH273449   6.335   3.318  11.132 -0.4784 -0.5349  0.1833
17345TIP3    H173450   6.381   3.341  11.213 -1.8143  0.4530  0.6842
17345TIP3    H273451   6.349   3.393  11.074  0.7802 -1.3895 -0.6790
17346TIP3   OH273452   0.773   6.104  16.224 -0.3109  0.1908  0.5895
17346TIP3    H173453   0.774   6.178  16.163  3.1727 -1.1434 -1.2147
17346TIP3    H273454   0.687   6.064  16.212 -0.9392  1.8960 -1.0109
17347TIP3   OH273455   4.868   1.002   0.240 -0.3629 -1.1080 -0.0444
17347TIP3    H173456   4.926   0.993   0.164  0.3185 -1.8334  0.5466
17347TIP3    H273457   4.906   1.076   0.289  0.6166 -2.1402  0.7993
17348TIP3   OH273458   6.753   2.094  11.874  0.5903  0.0231 -0.2095
17348TIP3    H173459   6.664   2.075  11.846  0.4025 -0.2333  0.5191
17348TIP3    H273460   6.763   2.045  11.956  0.7825  1.4649  0.6676
17349TIP3   OH273461   3.206   0.332   0.824  0.9344 -0.9312 -0.1267
17349TIP3    H173462   3.143   0.403   0.811  1.7477 -0.4168 -1.5628
17349TIP3    H273463   3.172   0.282   0.897  0.0642  0.6451  0.5852
17350TIP3   OH273464   2.677   2.917   4.451 -0.4704  0.3051 -0.4854
17350TIP3    H173465   2.644   3.006   4.464 -1.0108  0.1789 -0.9695
17350TIP3    H273466   2.599   2.865   4.434 -0.5722 -0.8660  2.8644
17351TIP3   OH273467   5.282   2.982  15.091 -0.4511 -0.0117  0.7834
17351TIP3    H173468   5.296   3.033  15.170  0.3557  2.6299 -0.9170
17351TIP3    H273469   5.194   3.008  15.061  0.9426  2.7389 -1.4974
17352TIP3   OH273470   0.620   2.791  10.849  0.0926 -0.4352  0.0210
17352TIP3    H173471   0.667   2.754  10.775 -2.4542  0.8153 -2.4169
17352TIP3    H273472   0.666   2.873  10.868  0.5177 -0.5666 -0.4396
17353TIP3   OH273473   3.379   1.828   4.875 -0.1578 -0.4609 -0.1565
17353TIP3    H173474   3.467   1.850   4.907 -0.1516  0.8038 -0.9788
17353TIP3    H273475   3.393   1.753   4.816  0.6357  0.7629 -1.5898
17354TIP3   OH273476   1.407   2.649  16.019 -0.3668 -0.1649  0.0012
17354TIP3    H173477   1.502   2.660  16.025 -0.5241  1.1519  0.2273
17354TIP3    H273478   1.395   2.554  16.020  0.9758 -0.3776 -0.5334
17355TIP3   OH273479   1.539   6.315  11.464  0.4233  0.0150  0.0270
17355TIP3    H173480   1.487   6.338  11.387 -1.8960  1.0584  1.7522
17355TIP3    H273481   1.586   6.396  11.486  1.0767 -0.2788 -0.2520
17356TIP3   OH273482   3.721   0.471  13.763 -0.5114  0.5472  0.1786
17356TIP3    H173483   3.742   0.406  13.696 -0.2048  1.1219 -0.2986
17356TIP3    H273484   3.756   0.553  13.727 -0.9103  0.9722  0.7613
17357TIP3   OH273485   5.790   0.401   3.288 -0.2120  0.0108  0.0297
17357TIP3    H173486   5.838   0.484   3.294 -0.5378  0.2250 -0.2261
17357TIP3    H273487   5.702   0.423   3.320 -0.5024 -0.0570 -0.6831
17358TIP3   OH273488   2.305   2.544  11.533  0.4522  0.5098 -0.1337
17358TIP3    H173489   2.272   2.457  11.556  0.7422 -0.2907 -2.4644
17358TIP3    H273490   2.384   2.526  11.481  0.3398  2.1353 -0.9308
17359TIP3   OH273491   1.698   4.373   1.974  0.2279 -0.3837  0.3081
17359TIP3    H173492   1.641   4.355   1.900 -0.6753  0.2683  0.8361
17359TIP3    H273493   1.728   4.286   2.002 -2.0410 -0.9374  1.2308
17360TIP3   OH273494   3.291   2.826   1.014 -0.4323  0.5734  0.1945
17360TIP3    H173495   3.336   2.745   0.988  0.6493  0.6673  1.6475
17360TIP3    H273496   3.251   2.858   0.933 -0.0651 -0.9012 -0.6119
17361TIP3   OH273497   5.040   4.612   2.646  0.4018 -0.0323 -0.0111
17361TIP3    H173498   4.983   4.536   2.631  0.1061 -0.1334  1.5051
17361TIP3    H273499   4.989   4.686   2.612  0.0291 -0.3210 -0.0963
17362TIP3   OH273500   1.289   1.077   0.151 -0.3368 -0.2810 -0.0522
17362TIP3    H173501   1.365   1.093   0.208  1.3156 -0.3879 -2.1001
17362TIP3    H273502   1.308   0.992   0.110 -1.9365 -0.6494 -0.0843
17363TIP3   OH273503   2.526   2.339   3.362 -0.2379 -0.2296 -0.3437
17363TIP3    H173504   2.514   2.375   3.275 -1.9591  0.6993  0.2343
17363TIP3    H273505   2.445   2.360   3.408  1.3489  1.0083  2.0873
17364TIP3   OH273506   6.757   3.993   3.025 -0.5451 -0.2689 -0.0333
17364TIP3    H173507   6.837   3.944   3.047 -1.0428 -0.7727  0.6906
17364TIP3    H273508   6.745   3.978   2.931 -0.5014 -1.2711  0.1125
17365TIP3   OH273509   0.053   6.273  14.877 -0.4037  0.0505 -0.5977
17365TIP3    H173510   0.148   6.272  14.882 -0.3909 -2.3704 -0.0381
17365TIP3    H273511   0.027   6.181  14.888 -2.9962  0.9933  2.7544
17366TIP3   OH273512   5.387   0.978  13.936 -0.0848 -0.5358  0.0313
17366TIP3    H173513   5.351   1.065  13.923 -1.7082 -1.3387 -1.1909
17366TIP3    H273514   5.312   0.926  13.966  0.8485 -1.5181  0.7087
17367TIP3   OH273515   0.590   3.385  14.323  0.6499  0.3353 -0.4001
17367TIP3    H173516   0.548   3.353  14.403  2.1316  1.5931  0.9354
17367TIP3    H273517   0.518   3.396  14.261 -0.6674  0.2388  1.0541
17368TIP3   OH273518   4.390   0.913  14.388 -0.0302  0.0626  0.2456
17368TIP3    H173519   4.373   0.868  14.306 -2.7447 -0.0153  0.7443
17368TIP3    H273520   4.366   1.004  14.371  0.3515  0.2466  0.6728
17369TIP3   OH273521   3.941   3.013   1.965  0.0175  0.3357  0.5527
17369TIP3    H173522   3.894   2.989   1.885 -0.8994  2.1345  0.5118
17369TIP3    H273523   4.023   3.052   1.934 -0.1394  0.6184  0.4848
17370TIP3   OH273524   3.717   3.045  15.212 -0.1627  0.0378 -0.0202
17370TIP3    H173525   3.772   3.114  15.247  1.9866 -1.8357  0.5552
17370TIP3    H273526   3.633   3.056  15.257  0.7917  1.0141  1.6270
17371TIP3   OH273527   0.337   0.500  11.116  0.2522  0.0448  0.3716
17371TIP3    H173528   0.376   0.470  11.199  0.0917  0.2596  0.5232
17371TIP3    H273529   0.397   0.567  11.085  0.3271 -0.0550  0.2989
17372TIP3   OH273530   6.782   1.247  15.813 -0.3615  0.6455  0.9461
17372TIP3    H173531   6.699   1.198  15.817  0.1120 -0.4065 -1.1535
17372TIP3    H273532   6.849   1.181  15.828  0.2103  0.9728 -0.1201
17373TIP3   OH273533   6.708   2.736   4.710  0.1532 -0.1031  0.1606
17373TIP3    H173534   6.751   2.813   4.675  1.2060 -0.7471 -0.0185
17373TIP3    H273535   6.674   2.763   4.795  1.8202  0.1730  0.7735
17374TIP3   OH273536   2.448   3.828  14.122  0.2324  0.0799 -0.0591
17374TIP3    H173537   2.489   3.848  14.038 -0.1701 -0.9043 -0.5100
17374TIP3    H273538   2.357   3.858  14.112  0.1034 -0.3171 -0.0928
17375TIP3   OH273539   0.758   3.628   0.233 -0.1653 -0.6749 -0.6616
17375TIP3    H173540   0.804   3.578   0.301  0.9107  1.1555  0.0410
17375TIP3    H273541   0.812   3.618   0.155  0.6618  0.2271 -0.2332
17376TIP3   OH273542   2.950   3.210  14.573  0.1608  0.1992 -0.7038
17376TIP3    H173543   2.945   3.143  14.641 -3.8536 -0.2723 -1.1876
17376TIP3    H273544   3.003   3.170  14.504 -0.1447 -1.5351 -0.0005
17377TIP3   OH273545   3.786   5.898   4.902 -0.3552  0.0863 -0.5876
17377TIP3    H173546   3.842   5.835   4.857 -1.1026 -1.7819  0.9413
17377TIP3    H273547   3.837   5.979   4.904  1.6902 -1.1351 -0.5182
17378TIP3   OH273548   6.382   0.925  16.244 -0.1702 -0.5623  0.3141
17378TIP3    H173549   6.413   0.860  16.307  1.1000 -0.3696 -0.0863
17378TIP3    H273550   6.407   1.009  16.282  0.0062 -0.4111 -0.1352
17379TIP3   OH273551   1.922   1.098   0.951 -0.0598  0.0902 -0.0157
17379TIP3    H173552   1.959   1.167   1.006  0.1423 -1.2876  1.6672
17379TIP3    H273553   1.830   1.091   0.979  0.0434 -0.6215  0.1715
17380TIP3   OH273554   4.062   5.504   2.023  0.1207  0.5192  0.4430
17380TIP3    H173555   4.051   5.413   2.052 -0.9774  1.1827  2.3176
17380TIP3    H273556   4.120   5.543   2.088  0.8348  1.1075 -0.5225
17381TIP3   OH273557   1.017   3.788  15.948  0.0288 -0.0323  0.1977
17381TIP3    H173558   1.055   3.871  15.975 -0.7319  0.1052  0.8693
17381TIP3    H273559   0.927   3.809  15.924  0.3062 -0.3825 -1.2342
17382TIP3   OH273560   1.570   2.802   3.767  0.3914  0.0896 -0.3465
17382TIP3    H173561   1.478   2.825   3.754 -0.1166 -1.5577  0.1018
17382TIP3    H273562   1.598   2.766   3.683  0.4842  0.0885 -0.3155
17383TIP3   OH273563   5.842   2.558   0.017 -0.0447  0.1007 -0.2733
17383TIP3    H173564   5.845   2.478  -0.035 -2.2207 -1.8433  2.2665
17383TIP3    H273565   5.909   2.545   0.085 -0.0239  0.7046 -0.1684
17384TIP3   OH273566   2.046   4.126   1.329 -0.1284 -0.3471 -0.5848
17384TIP3    H173567   2.104   4.134   1.405 -0.2001  4.6012 -0.7683
17384TIP3    H273568   1.965   4.090   1.364  1.0143 -1.6415  0.8724
17385TIP3   OH273569   3.437   4.396  13.700 -0.1002 -0.6107 -0.3050
17385TIP3    H173570   3.348   4.375  13.670  0.2914 -0.3783 -1.7287
17385TIP3    H273571   3.424   4.467  13.763 -1.0050 -1.3967  0.4308
17386TIP3   OH273572   0.615   5.548  15.212 -0.4575  0.7590 -0.3438
17386TIP3    H173573   0.647   5.625  15.261  0.0774  1.1008 -1.2045
17386TIP3    H273574   0.623   5.476  15.274  1.5927  0.9127 -0.3410
17387TIP3   OH273575   2.172   6.310  15.759 -0.7479  0.2274 -0.0702
17387TIP3    H173576   2.104   6.298  15.693 -0.3111  0.2316 -0.5272
17387TIP3    H273577   2.125   6.333  15.838 -1.2356  0.9392 -0.5574
17388TIP3   OH273578   0.175   1.802  17.030  0.3889 -0.1606  0.8445
17388TIP3    H173579   0.172   1.898  17.028  1.9341 -0.1067 -0.1484
17388TIP3    H273580   0.268   1.781  17.033  0.1158 -1.6504 -0.2028
17389TIP3   OH273581   6.102   5.605  11.789 -0.3451 -0.2118  0.0479
17389TIP3    H173582   6.136   5.545  11.856 -0.2604  1.5623  1.6732
17389TIP3    H273583   6.008   5.610  11.806 -0.2932  0.3987  0.1595
17390TIP3   OH273584   2.840   1.195  15.541  0.4718  0.4369 -0.0165
17390TIP3    H173585   2.778   1.168  15.473 -0.7939 -0.8655  1.5729
17390TIP3    H273586   2.917   1.225  15.493  0.0983 -1.5529 -2.0165
17391TIP3   OH273587   3.626   3.203  11.050  0.5750 -0.7966  0.3178
17391TIP3    H173588   3.542   3.213  11.095 -0.0889  0.1149 -1.0568
17391TIP3    H273589   3.691   3.237  11.112 -0.4196  1.3718  0.2415
17392TIP3   OH273590   5.347   5.144  12.029 -0.5436 -0.7036 -0.7636
17392TIP3    H173591   5.348   5.224  11.977 -0.8629  0.4642  0.9567
17392TIP3    H273592   5.355   5.174  12.119 -1.4838 -2.5634 -0.0103
17393TIP3   OH273593   1.084   5.166  14.069 -0.1176  0.4542  0.0300
17393TIP3    H173594   1.109   5.126  13.986 -1.9091  3.2159 -2.0347
17393TIP3    H273595   1.044   5.095  14.119  0.6407 -1.2224 -1.6319
17394TIP3   OH273596   5.216   5.514   0.552 -0.5342  0.0343  0.1103
17394TIP3    H173597   5.216   5.450   0.622 -2.5750  0.3283  0.4368
17394TIP3    H273598   5.263   5.590   0.588 -0.0390 -0.4544  0.5028
17395TIP3   OH273599   4.398   1.032   5.146  0.0623  0.3459 -0.1241
17395TIP3    H173600   4.493   1.042   5.155 -0.0223  0.1445  1.1503
17395TIP3    H273601   4.383   0.938   5.157 -0.1911  0.1961 -1.5076
17396TIP3   OH273602   3.455   0.708   0.882 -0.3608 -0.3059 -0.3645
17396TIP3    H173603   3.500   0.702   0.967 -0.4212  1.1196 -0.2039
17396TIP3    H273604   3.494   0.784   0.840 -1.2055 -0.2574 -1.0861
17397TIP3   OH273605   6.526   0.885  11.484 -0.5609 -0.0381 -0.5163
17397TIP3    H173606   6.509   0.972  11.521  1.7371 -0.0885  0.9063
17397TIP3    H273607   6.595   0.901  11.419 -0.9458 -0.6543 -1.0803
17398TIP3   OH273608   6.313   0.798   2.305 -0.3222 -0.0462 -0.3369
17398TIP3    H173609   6.342   0.728   2.247 -0.2666  0.8256 -1.3985
17398TIP3    H273610   6.252   0.850   2.252 -1.5847 -0.1774  0.9218
17399TIP3   OH273611   4.432   4.247   4.078 -0.3106  0.4110  0.2520
17399TIP3    H173612   4.470   4.321   4.029  1.0692 -0.9890 -0.9175
17399TIP3    H273613   4.359   4.285   4.126  0.3691  2.5462 -0.2721
17400TIP3   OH273614   2.592   6.711   5.885  0.1554  0.1598  0.0001
17400TIP3    H173615   2.650   6.740   5.955  3.6338 -0.9853 -2.1302
17400TIP3    H273616   2.614   6.618   5.873  0.0064  0.3933 -2.7452
17401TIP3   OH273617   1.938   3.780  15.748  0.7783 -0.3958 -0.0933
17401TIP3    H173618   1.884   3.715  15.793 -1.2175  1.3566  0.1966
17401TIP3    H273619   1.966   3.736  15.668 -2.0021 -1.1225 -0.7873
17402TIP3   OH273620   5.841   3.527  15.790  0.3426 -0.5007 -0.3235
17402TIP3    H173621   5.785   3.521  15.867 -2.4292  2.7056 -1.8290
17402TIP3    H273622   5.789   3.486  15.720 -1.0422  3.6158 -2.0295
17403TIP3   OH273623   1.634   2.803   0.157  0.0344 -0.0033  0.0392
17403TIP3    H173624   1.607   2.714   0.181  0.8323 -0.2405  0.0789
17403TIP3    H273625   1.625   2.853   0.238  1.9306 -0.6174  0.6689
17404TIP3   OH273626   4.223   2.570   3.373  1.1351  0.3613  0.0606
17404TIP3    H173627   4.176   2.571   3.456  0.2784  0.0712 -0.4156
17404TIP3    H273628   4.180   2.637   3.320 -0.8867 -2.0201 -1.5211
17405TIP3   OH273629   5.371   1.484  15.205 -0.0720 -0.2660  0.4803
17405TIP3    H173630   5.336   1.423  15.271  1.7887 -0.6144  1.1917
17405TIP3    H273631   5.399   1.428  15.133 -0.1534 -0.0694  0.2953
17406TIP3   OH273632   0.356   6.048   3.805 -0.3803  0.0762 -0.2265
17406TIP3    H173633   0.385   6.128   3.761 -2.1542  0.8864  0.0204
17406TIP3    H273634   0.297   6.006   3.742 -3.6898  1.7147  1.5426
17407TIP3   OH273635   0.081   2.300   1.234 -0.2457 -0.3897 -0.0162
17407TIP3    H173636   0.032   2.333   1.309  1.4394  1.4013  0.4012
17407TIP3    H273637   0.042   2.345   1.158 -0.7137 -0.7338  0.0179
17408TIP3   OH273638   6.132   3.298   1.591 -0.0025  0.6799  0.5500
17408TIP3    H173639   6.075   3.374   1.591  0.1165  0.7729  1.4549
17408TIP3    H273640   6.218   3.332   1.614 -0.0827  0.1784  1.6370
17409TIP3   OH273641   5.262   4.842  12.458 -0.2270  0.2286 -0.1102
17409TIP3    H173642   5.270   4.878  12.369 -1.8972 -0.3544 -0.5394
17409TIP3    H273643   5.198   4.771  12.449  1.7474 -1.8223  1.0316
17410TIP3   OH273644   1.209   4.566   4.100 -0.0706 -0.0722  0.4084
17410TIP3    H173645   1.194   4.656   4.069  2.1115 -0.1715 -1.0858
17410TIP3    H273646   1.124   4.523   4.089 -0.8567  1.4955  0.0692
17411TIP3   OH273647   5.753   1.568   0.015 -0.4304  0.4843 -0.6105
17411TIP3    H173648   5.778   1.593  -0.074  0.3164  0.2845 -0.4664
17411TIP3    H273649   5.835   1.568   0.064 -0.7362 -0.0529 -0.0758
17412TIP3   OH273650   1.497   4.296  12.118  0.1748  0.1750 -0.1104
17412TIP3    H173651   1.453   4.215  12.094  1.0790 -1.0312  2.0563
17412TIP3    H273652   1.590   4.275  12.116  0.4061  0.9821  0.9454
17413TIP3   OH273653   1.309   3.649   0.897 -0.0554  0.1002  0.0577
17413TIP3    H173654   1.352   3.586   0.840  0.3174 -1.6388  2.1230
17413TIP3    H273655   1.216   3.627   0.891 -0.0209 -0.0537  0.0815
17414TIP3   OH273656   5.457   3.299  11.095  0.2945 -0.0435 -0.1730
17414TIP3    H173657   5.433   3.346  11.015  0.2146 -1.0611 -0.7684
17414TIP3    H273658   5.445   3.206  11.072  0.0241 -0.3350  1.1003
17415TIP3   OH273659   3.647   0.206   2.854 -0.7900  0.7449  0.7285
17415TIP3    H173660   3.677   0.293   2.829  1.5237 -0.3665 -0.6281
17415TIP3    H273661   3.568   0.192   2.801 -1.7183  2.2896  1.6154
17416TIP3   OH273662   6.308   5.449  11.997  0.1066  0.5305 -0.2544
17416TIP3    H173663   6.377   5.504  12.034 -1.1815  2.7939 -1.0103
17416TIP3    H273664   6.333   5.436  11.906 -0.7180  1.9087 -0.7088
17417TIP3   OH273665   4.062   5.960   6.155  0.8831  0.3844 -0.1962
17417TIP3    H173666   4.126   5.889   6.152  0.8914  0.3628  0.3478
17417TIP3    H273667   3.977   5.916   6.150  0.8922  0.5103 -2.6719
17418TIP3   OH273668   1.646   5.835   0.383 -0.2319 -0.0988  0.4854
17418TIP3    H173669   1.740   5.840   0.369 -0.1776 -2.1889 -0.1940
17418TIP3    H273670   1.612   5.917   0.347  0.9076 -1.0863 -3.2297
17419TIP3   OH273671   1.418   3.837   5.231  0.5258 -0.1992  0.4836
17419TIP3    H173672   1.413   3.906   5.298 -0.7631  0.7842 -0.5494
17419TIP3    H273673   1.338   3.786   5.243  0.6966 -0.5307  0.2286
17420TIP3   OH273674   4.166   4.971   3.731  0.0992 -0.3705  0.3078
17420TIP3    H173675   4.092   4.930   3.687 -0.4799  1.7367 -0.8440
17420TIP3    H273676   4.128   5.013   3.808 -0.3964  2.2134 -1.1918
17421TIP3   OH273677   6.246   4.664   4.082  0.9496 -0.1778  0.3676
17421TIP3    H173678   6.302   4.601   4.036  0.1888 -0.2373 -0.5230
17421TIP3    H273679   6.293   4.747   4.077  1.4809 -0.4573  0.6431
17422TIP3   OH273680   2.572   4.528   5.674  0.0799 -0.0561 -0.0145
17422TIP3    H173681   2.667   4.523   5.680  0.1334  0.6990 -0.0616
17422TIP3    H273682   2.542   4.437   5.677  0.8383 -0.3304 -0.6140
17423TIP3   OH273683   0.618   4.131   5.660 -0.1526  0.2509  0.7701
17423TIP3    H173684   0.697   4.107   5.612  0.0246  0.5812  0.8992
17423TIP3    H273685   0.629   4.090   5.746 -0.7493 -0.8647  0.3400
17424TIP3   OH273686   1.828   4.037   4.579  0.0747  0.5173  0.0309
17424TIP3    H173687   1.811   4.112   4.635  0.5553 -0.3168  1.3381
17424TIP3    H273688   1.898   4.065   4.521  1.1149  0.6933  1.3336
17425TIP3   OH273689   5.065   6.397   5.687  0.0356  0.2582  0.2767
17425TIP3    H173690   5.087   6.334   5.756 -0.3051 -0.9545 -0.6745
17425TIP3    H273691   4.970   6.403   5.689  0.0003 -0.0132 -0.2570
17426TIP3   OH273692   4.952   1.326  16.326  0.1761 -0.0929  0.1372
17426TIP3    H173693   4.933   1.306  16.235  0.0192  1.1698 -0.1270
17426TIP3    H273694   4.988   1.245  16.362  1.4898 -0.2212 -1.3832
17427TIP3   OH273695   2.032   1.342   4.090  0.2356 -0.1516  0.2751
17427TIP3    H173696   2.057   1.258   4.052 -0.1942  0.0823 -0.5315
17427TIP3    H273697   2.035   1.404   4.017  2.5940  0.9951  1.2136
17428TIP3   OH273698   2.255   0.228  12.257  0.0393 -0.4136  0.2191
17428TIP3    H173699   2.329   0.170  12.238 -0.2949 -0.9933  0.6610
17428TIP3    H273700   2.204   0.181  12.323 -2.4473 -1.5441 -2.2882
17429TIP3   OH273701   1.519   1.715  13.381 -0.3494 -0.1804  0.7356
17429TIP3    H173702   1.449   1.725  13.446  0.5547  0.0502  1.6988
17429TIP3    H273703   1.473   1.703  13.298 -1.5730  1.9191  1.0199
17430TIP3   OH273704   2.856   0.198  13.849  0.1773  0.0473  0.1008
17430TIP3    H173705   2.841   0.231  13.760 -0.7788  0.3894  0.3790
17430TIP3    H273706   2.865   0.104  13.838  0.1822  0.0957 -0.3678
17431TIP3   OH273707   4.456   4.480   3.952  0.3796 -0.3865  0.0012
17431TIP3    H173708   4.531   4.538   3.936  0.0562 -0.5987 -2.9637
17431TIP3    H273709   4.380   4.538   3.950  0.3230 -0.3974  1.2746
17432TIP3   OH273710   2.228   1.241   4.901  0.1773  0.0629  0.3119
17432TIP3    H173711   2.256   1.264   4.813 -0.6102  0.7372  0.2196
17432TIP3    H273712   2.196   1.324   4.938  0.4708 -0.2135  1.2221
17433TIP3   OH273713   4.662   4.565  11.082  0.3901 -0.4185  0.4078
17433TIP3    H173714   4.632   4.572  11.173  0.6869 -0.2235  0.4924
17433TIP3    H273715   4.587   4.529  11.035 -0.3448  0.9965  0.4434
17434TIP3   OH273716   2.697   0.581   6.051 -0.2680  0.2712 -0.7372
17434TIP3    H173717   2.738   0.667   6.062  0.0451 -0.0113  0.4386
17434TIP3    H273718   2.767   0.525   6.017 -0.1743  0.2323 -0.4843
17435TIP3   OH273719   0.014   0.170   1.738 -0.3237  0.4715  0.6125
17435TIP3    H173720  -0.035   0.134   1.664 -1.7581  3.6044 -0.1319
17435TIP3    H273721  -0.054   0.195   1.801  0.3132  3.4753  0.2430
17436TIP3   OH273722   4.730   3.991   3.158  0.2621 -0.0793  0.7428
17436TIP3    H173723   4.761   4.075   3.192 -0.8792  0.3375  0.7687
17436TIP3    H273724   4.809   3.949   3.123  0.7169  1.3356  0.0052
17437TIP3   OH273725   4.208   2.797  15.147 -0.3922  0.4239 -0.8752
17437TIP3    H173726   4.198   2.702  15.137 -0.0933  0.3633 -0.5974
17437TIP3    H273727   4.166   2.834  15.069 -0.3742  0.0570 -1.0575
17438TIP3   OH273728   5.573   2.674  10.504  0.7922  0.5996  0.5617
17438TIP3    H173729   5.508   2.651  10.570  1.0984  1.8296  1.3231
17438TIP3    H273730   5.657   2.674  10.551  1.2712 -0.2422 -0.2398
17439TIP3   OH273731   3.374   3.157   0.699  0.3549 -0.5875 -0.3658
17439TIP3    H173732   3.298   3.109   0.731 -0.2136  0.5845  0.0934
17439TIP3    H273733   3.408   3.203   0.775  0.7133 -0.0354 -0.8490
17440TIP3   OH273734   6.444   3.061   2.310 -0.1286 -0.3470  0.1349
17440TIP3    H173735   6.434   3.027   2.222 -0.0062  0.0790 -0.0456
17440TIP3    H273736   6.382   3.011   2.363 -0.0041 -0.7871 -0.1411
17441TIP3   OH273737   0.530   4.530   3.915 -0.7076  0.0086 -0.2912
17441TIP3    H173738   0.472   4.496   3.848  0.0532 -1.6072 -0.1711
17441TIP3    H273739   0.617   4.529   3.875 -0.3713 -0.1442  0.4219
17442TIP3   OH273740   1.559   3.751  13.289  0.0690 -0.3616  0.0383
17442TIP3    H173741   1.499   3.695  13.339 -1.0476 -1.2114 -2.1226
17442TIP3    H273742   1.516   3.837  13.288  1.1469  0.2932  2.2373
17443TIP3   OH273743   6.130   1.858  12.442  0.0838  0.2980  0.0107
17443TIP3    H173744   6.108   1.941  12.485 -0.2342 -0.1923  0.8166
17443TIP3    H273745   6.199   1.882  12.379 -2.3655  1.8108 -2.3155
17444TIP3   OH273746   6.219   0.128  14.591  0.2387  0.2473 -0.1778
17444TIP3    H173747   6.156   0.087  14.531  0.2754 -3.0734  1.8448
17444TIP3    H273748   6.173   0.206  14.624 -1.3001 -0.0360 -1.5048
17445TIP3   OH273749   6.110   6.694   0.789 -0.1960  0.1223  0.1713
17445TIP3    H173750   6.022   6.665   0.814 -0.6386  0.7654 -0.6006
17445TIP3    H273751   6.166   6.618   0.808 -0.8951 -0.2639  0.7504
17446TIP3   OH273752   0.800   3.783   1.519 -0.0524  0.6242  0.0905
17446TIP3    H173753   0.804   3.794   1.614 -0.2479  1.2011  0.0342
17446TIP3    H273754   0.874   3.833   1.486  0.0399  0.3884 -0.0577
17447TIP3   OH273755   3.571   4.387   1.987  0.6833 -0.1214  0.0010
17447TIP3    H173756   3.548   4.308   2.036  0.2947 -0.4503 -0.6973
17447TIP3    H273757   3.660   4.369   1.956  0.5317 -0.3585 -0.3004
17448TIP3   OH273758   4.090   6.628   0.324  0.0376  0.0251  0.7301
17448TIP3    H173759   4.039   6.642   0.404 -1.2620 -1.1617  0.1556
17448TIP3    H273760   4.156   6.697   0.326 -0.9409  0.9977  2.0368
17449TIP3   OH273761   6.098   0.907  14.352 -0.2649 -0.1343 -0.5919
17449TIP3    H173762   6.124   0.995  14.323  1.7862 -0.7863 -0.8356
17449TIP3    H273763   6.060   0.921  14.439  2.3284  0.7534  0.4824
17450TIP3   OH273764   2.890   0.369  16.087 -0.1386  0.8657 -0.1774
17450TIP3    H173765   2.859   0.447  16.040  2.5571  1.7464 -0.6787
17450TIP3    H273766   2.935   0.403  16.164  0.6926 -0.1966 -0.1652
17451TIP3   OH273767   3.685   0.552   5.680 -0.0032  0.4531 -0.2303
17451TIP3    H173768   3.729   0.543   5.595  0.9819  2.3748  0.0229
17451TIP3    H273769   3.722   0.482   5.733 -0.3734 -0.5611 -1.2775
17452TIP3   OH273770   2.690   3.749   4.137  0.0524 -0.0497 -0.0427
17452TIP3    H173771   2.670   3.769   4.045 -0.4901 -1.0308 -0.1568
17452TIP3    H273772   2.653   3.823   4.186  0.0474  0.3154 -0.5884
17453TIP3   OH273773   5.742   5.859   4.017  0.1639  0.1598  0.1411
17453TIP3    H173774   5.772   5.950   4.012 -0.7266  0.3979 -1.4294
17453TIP3    H273775   5.734   5.842   4.111  0.6223  1.6091  0.4718
17454TIP3   OH273776   5.745   6.548  11.626 -0.2434  0.0747 -0.6244
17454TIP3    H173777   5.786   6.628  11.658  1.2464 -0.3781 -1.3241
17454TIP3    H273778   5.655   6.574  11.606  0.4723  1.8481 -1.7987
17455TIP3   OH273779   5.501   2.840   1.014  0.0392  0.3478 -0.0750
17455TIP3    H173780   5.508   2.791   1.095 -1.2841  0.5211  0.1562
17455TIP3    H273781   5.550   2.788   0.950  0.5252 -0.1221  0.6652
17456TIP3   OH273782   5.835   0.253  14.805  0.4234 -0.2390  0.3376
17456TIP3    H173783   5.904   0.272  14.742 -0.8902  0.5242 -0.9380
17456TIP3    H273784   5.836   0.328  14.866  0.2085  0.1766 -0.1618
17457TIP3   OH273785   1.853   1.158  17.139  0.6105  0.1580  0.3981
17457TIP3    H173786   1.825   1.109  17.062  1.2193  2.1330 -1.1428
17457TIP3    H273787   1.886   1.090  17.199  0.1133 -1.4334 -1.0501
17458TIP3   OH273788   2.369   0.370  12.466  0.1555  0.4230 -0.4760
17458TIP3    H173789   2.308   0.313  12.514 -0.7090  0.1971 -1.8099
17458TIP3    H273790   2.338   0.369  12.376  2.0844  0.3762 -1.1957
17459TIP3   OH273791   4.308   3.187  16.308 -0.2261 -0.0580  0.4705
17459TIP3    H173792   4.383   3.144  16.269 -0.0930  2.9586 -3.1929
17459TIP3    H273793   4.343   3.232  16.385  2.0975  1.8985 -1.5499
17460TIP3   OH273794   1.688   5.138   5.174 -0.0954  0.3183  0.0562
17460TIP3    H173795   1.758   5.073   5.169  0.6301  0.8750  2.1520
17460TIP3    H273796   1.706   5.199   5.102  2.3074  1.1105  1.2355
17461TIP3   OH273797   6.395   1.042  14.074 -0.0107  0.0483 -0.0538
17461TIP3    H173798   6.466   0.998  14.027  0.6899  0.4867  0.5728
17461TIP3    H273799   6.426   1.048  14.165 -1.3777 -0.8700  0.5065
17462TIP3   OH273800   4.432   6.540   6.822 -0.1556  0.3143  0.2302
17462TIP3    H173801   4.365   6.484   6.860 -0.4415  0.3308 -0.2473
17462TIP3    H273802   4.510   6.523   6.876 -0.7448  0.9032  1.3038
17463TIP3   OH273803   5.927   3.787   3.802  0.1810  0.2866 -0.3714
17463TIP3    H173804   6.013   3.825   3.784  1.3026 -2.1969 -0.6255
17463TIP3    H273805   5.918   3.716   3.738 -1.7096 -0.0514  0.1895
17464TIP3   OH273806   3.883   6.434  11.926  0.1041  0.3381 -0.4254
17464TIP3    H173807   3.806   6.488  11.944 -1.9915 -1.7023 -2.5253
17464TIP3    H273808   3.929   6.481  11.857 -2.0239 -0.6222 -2.6664
17465TIP3   OH273809   5.434   2.661   5.040  0.3915 -0.2336 -0.3652
17465TIP3    H173810   5.492   2.613   4.981 -0.0855 -2.6838  1.0137
17465TIP3    H273811   5.357   2.680   4.986 -0.8181 -3.9998 -0.2733
17466TIP3   OH273812   3.179   4.092  14.155 -0.2501  1.0510  0.4076
17466TIP3    H173813   3.186   4.123  14.245  0.6598  1.2488  0.2734
17466TIP3    H273814   3.093   4.124  14.125 -0.1927  1.7041  0.9220
17467TIP3   OH273815   5.070   3.766  10.912 -0.3097 -0.4755  0.2872
17467TIP3    H173816   5.062   3.693  10.974 -1.1745 -0.4289  0.2446
17467TIP3    H273817   4.985   3.769  10.868 -0.5236  0.9746  0.7486
17468TIP3   OH273818   4.685   3.184  17.089 -0.3131  0.1948  0.0440
17468TIP3    H173819   4.691   3.259  17.147  2.6223  0.6891 -0.7401
17468TIP3    H273820   4.776   3.162  17.068 -1.1822 -1.2520 -2.7176
17469TIP3   OH273821   2.816   3.368  13.584  0.2548  0.0994  0.3562
17469TIP3    H173822   2.895   3.381  13.636 -0.0192 -0.6732  0.9808
17469TIP3    H273823   2.845   3.320  13.507  0.6492  1.1784 -0.1914
17470TIP3   OH273824   0.547   0.730  15.786 -0.0094  0.3355  0.4214
17470TIP3    H173825   0.514   0.641  15.773 -1.1189  0.5694  1.4186
17470TIP3    H273826   0.638   0.719  15.813  0.9080 -0.3259 -2.5657
17471TIP3   OH273827   2.891   0.353   6.200  0.4592 -0.8476  0.0624
17471TIP3    H173828   2.942   0.414   6.147  0.2168  0.2481  1.0549
17471TIP3    H273829   2.944   0.339   6.278 -0.6459  0.1692  1.0246
17472TIP3   OH273830   2.091   3.471   4.168 -0.4006 -0.6275  0.4515
17472TIP3    H173831   2.158   3.509   4.224  1.2426  0.0448 -1.8161
17472TIP3    H273832   2.076   3.537   4.101 -2.1244 -1.4689 -0.0387
17473TIP3   OH273833   4.974   1.298   1.300  0.0443  0.0507  0.0455
17473TIP3    H173834   5.066   1.282   1.280 -0.0181  1.1802 -1.3255
17473TIP3    H273835   4.925   1.239   1.243 -0.1072 -0.7204  0.9415
17474TIP3   OH273836   5.672   3.025   1.788 -0.5655  0.0942  0.7613
17474TIP3    H173837   5.644   2.945   1.743 -0.2011 -0.0705  0.8232
17474TIP3    H273838   5.754   3.049   1.747 -0.8671  0.6647  0.4793
17475TIP3   OH273839   4.919   6.614   3.684 -0.3487  0.2122  0.7697
17475TIP3    H173840   4.835   6.632   3.641 -0.4703 -2.1651 -0.1546
17475TIP3    H273841   4.944   6.528   3.651  3.6451  1.7755 -0.8014
17476TIP3   OH273842   0.685   1.567  16.900  0.0317  0.6531  0.1465
17476TIP3    H173843   0.754   1.633  16.902  0.6872  0.0603 -1.6827
17476TIP3    H273844   0.608   1.613  16.866 -0.4076  1.1993  1.7684
17477TIP3   OH273845   0.721   1.285  12.461 -0.2884 -0.0879  0.3758
17477TIP3    H173846   0.656   1.353  12.443 -0.1062  0.0046  0.0719
17477TIP3    H273847   0.670   1.214  12.499 -0.8654 -0.6874 -1.3910
17478TIP3   OH273848   2.847   3.000   1.679 -0.4236  0.3040 -0.1013
17478TIP3    H173849   2.756   3.013   1.705 -0.7118  0.7559 -1.2758
17478TIP3    H273850   2.842   2.946   1.600  0.3897 -0.5123  0.3866
17479TIP3   OH273851   4.414   6.798  16.847 -0.0073 -0.0767 -0.4098
17479TIP3    H173852   4.505   6.823  16.858  0.2249 -0.6541 -0.9427
17479TIP3    H273853   4.418   6.711  16.808 -0.7541  0.9931 -3.0736
17480TIP3   OH273854   4.517   5.932   1.765  0.0911 -0.0052  0.4016
17480TIP3    H173855   4.547   5.879   1.691  2.2972  0.5681  0.7944
17480TIP3    H273856   4.425   5.949   1.748  0.2595 -0.8711 -1.6038
17481TIP3   OH273857   2.891   0.830   1.616  0.6930  0.3857 -0.4597
17481TIP3    H173858   2.916   0.901   1.556  1.1742  4.2131  3.7564
17481TIP3    H273859   2.798   0.845   1.633  0.7772 -0.0712  0.4362
17482TIP3   OH273860   3.920   4.461   3.575 -0.2076 -0.2668 -0.0945
17482TIP3    H173861   3.896   4.369   3.591 -0.4706 -0.0701  0.6743
17482TIP3    H273862   3.865   4.487   3.500 -0.7673 -0.4819  0.2333
17483TIP3   OH273863   5.205   1.620   1.279 -0.4063  0.0355 -0.0553
17483TIP3    H173864   5.233   1.577   1.360  0.2026 -0.4338 -0.5022
17483TIP3    H273865   5.196   1.549   1.216 -2.0869  0.2393 -0.0942
17484TIP3   OH273866   1.905   5.048  15.162  0.0835 -0.5917  0.1301
17484TIP3    H173867   1.819   5.040  15.122 -0.2484  2.7014 -0.0902
17484TIP3    H273868   1.952   4.969  15.134 -1.8218 -0.9496 -2.3955
17485TIP3   OH273869   2.315   1.078  11.775  0.4167  0.0135 -0.1515
17485TIP3    H173870   2.296   1.108  11.686  1.5356  0.1869 -0.3388
17485TIP3    H273871   2.345   0.988  11.764 -1.3726 -0.6923  0.2654
17486TIP3   OH273872   1.980   2.138   6.271 -0.1831  0.3346  0.4357
17486TIP3    H173873   2.021   2.052   6.284 -0.9622  0.0031  0.7501
17486TIP3    H273874   2.037   2.199   6.318  1.0150  0.1776 -0.7281
17487TIP3   OH273875   5.232   5.163   2.050  0.3234  0.1527  0.3637
17487TIP3    H173876   5.262   5.247   2.084  0.9082 -0.3204  1.0350
17487TIP3    H273877   5.299   5.137   1.987  0.9923 -0.5702  1.3482
17488TIP3   OH273878   5.446   6.605   1.741  0.1474  0.2063 -0.2723
17488TIP3    H173879   5.523   6.661   1.740  0.1897  0.2479  1.6327
17488TIP3    H273880   5.481   6.516   1.733  0.3424  0.2539  0.0605
17489TIP3   OH273881   5.738   3.419  15.543  0.4022 -0.2384 -0.1499
17489TIP3    H173882   5.820   3.416  15.493 -0.1208  1.3879 -1.2084
17489TIP3    H273883   5.673   3.382  15.483  0.0916 -0.0012  0.0433
17490TIP3   OH273884   4.872   1.776  11.263  0.3319 -0.5650  0.6775
17490TIP3    H173885   4.839   1.803  11.177 -0.4546  0.4646  1.2861
17490TIP3    H273886   4.944   1.716  11.243  0.9652  0.5988 -0.7225
17491TIP3   OH273887   2.005   4.650  13.505  0.1237 -0.3858 -1.3157
17491TIP3    H173888   1.928   4.698  13.474  0.0098 -0.8903 -1.8269
17491TIP3    H273889   1.993   4.645  13.600  0.3977  1.0348 -1.1834
17492TIP3   OH273890   5.379   2.247  16.341 -0.2774 -0.2943  0.5486
17492TIP3    H173891   5.399   2.221  16.251  0.2787 -1.4693  1.0039
17492TIP3    H273892   5.464   2.263  16.382 -0.5265  0.2473  0.8738
17493TIP3   OH273893   3.326   0.824   3.547  0.0535  0.4407  0.5853
17493TIP3    H173894   3.305   0.802   3.457  1.1286 -0.6703  0.5909
17493TIP3    H273895   3.420   0.842   3.547  0.2421 -0.4396  1.6456
17494TIP3   OH273896   0.563   0.255  14.057 -0.6466 -0.3523 -0.0544
17494TIP3    H173897   0.542   0.161  14.055 -0.2877 -0.4526  0.4620
17494TIP3    H273898   0.537   0.282  14.145  0.7042 -0.3286  0.3607
17495TIP3   OH273899   2.991   3.583  12.662 -0.1322  0.1971 -0.7313
17495TIP3    H173900   3.047   3.527  12.609 -1.2894 -0.8928 -0.8368
17495TIP3    H273901   2.905   3.580  12.619 -0.2235  2.0969 -0.7679
17496TIP3   OH273902   4.868   4.226  15.300 -0.3364  0.4818  0.1713
17496TIP3    H173903   4.800   4.181  15.351  1.3201 -0.3702  1.7465
17496TIP3    H273904   4.948   4.179  15.321  1.0732  2.6529 -0.1006
17497TIP3   OH273905   5.223   3.313  13.248  0.0758  0.4189  0.0695
17497TIP3    H173906   5.139   3.345  13.215 -0.0022 -2.8659 -3.6981
17497TIP3    H273907   5.284   3.385  13.232 -1.0939  0.9902 -2.3126
17498TIP3   OH273908   2.437   1.328   1.837 -0.1379 -0.2769  0.0391
17498TIP3    H173909   2.440   1.398   1.902  1.9856  0.1996 -0.4986
17498TIP3    H273910   2.479   1.365   1.759 -0.9769 -1.4348 -0.9938
17499TIP3   OH273911   6.620   3.488   3.391 -0.2944  0.2288  0.6749
17499TIP3    H173912   6.714   3.482   3.411  0.1841  4.1652  0.2975
17499TIP3    H273913   6.617   3.527   3.304 -2.2540  1.9571  1.4586
17500TIP3   OH273914   6.703   3.606  15.808 -0.0893  0.8987 -0.8666
17500TIP3    H173915   6.704   3.559  15.725 -0.4581 -0.3352 -0.2024
17500TIP3    H273916   6.614   3.595  15.840  0.8585 -1.5573  1.2483
17501TIP3   OH273917   5.920   0.845  16.425  0.1438  0.4446 -0.0556
17501TIP3    H173918   5.895   0.937  16.430 -1.2179  0.1877 -1.5608
17501TIP3    H273919   5.988   0.842  16.357  0.9906  0.4696  0.7666
17502TIP3   OH273920   0.573   1.331   0.026 -0.1068 -0.4709  0.0617
17502TIP3    H173921   0.537   1.259   0.078  0.1520  0.7747  2.0680
17502TIP3    H273922   0.658   1.349   0.066  0.5056 -0.0193 -1.3792
17503TIP3   OH273923   5.010   3.543  13.396 -0.8006 -0.2330 -0.2810
17503TIP3    H173924   4.992   3.637  13.407 -3.3289 -0.2808 -2.7684
17503TIP3    H273925   5.078   3.540  13.328 -0.5516 -0.1972 -0.0328
17504TIP3   OH273926   4.844   5.773  16.469  0.3341  0.5344  0.4940
17504TIP3    H173927   4.759   5.773  16.425  0.5326  3.8858 -0.0861
17504TIP3    H273928   4.854   5.683  16.500 -2.9087 -0.2534 -0.3620
17505TIP3   OH273929   5.381   5.520   6.204  0.1126  0.6333 -0.1216
17505TIP3    H173930   5.469   5.528   6.241  0.3861  0.7717 -0.7867
17505TIP3    H273931   5.324   5.557   6.271  0.2792 -1.6615  1.4087
17506TIP3   OH273932   1.129   1.845   1.493 -0.5395 -0.7633  0.0774
17506TIP3    H173933   1.211   1.883   1.462 -0.2070 -2.6247 -1.5646
17506TIP3    H273934   1.061   1.883   1.437 -0.4630 -1.0490 -0.2142
17507TIP3   OH273935   5.888   2.472  16.134  0.2055 -0.5314 -0.1667
17507TIP3    H173936   5.966   2.512  16.171  0.2353 -0.3004 -0.4687
17507TIP3    H273937   5.862   2.532  16.063 -0.6120 -0.2681  0.3393
17508TIP3   OH273938   0.009   4.984   4.978  0.1001 -0.4770 -0.6642
17508TIP3    H173939   0.065   4.911   5.004 -0.7880 -1.1016 -0.4693
17508TIP3    H273940   0.056   5.062   5.008  0.6141 -1.0179 -0.0420
17509TIP3   OH273941   1.788   4.307  17.064  0.1560  0.2298 -0.2163
17509TIP3    H173942   1.826   4.304  16.976 -2.1088 -0.1879 -1.2395
17509TIP3    H273943   1.823   4.229  17.108  0.9960  0.2353 -0.8496
17510TIP3   OH273944   2.751   3.906  15.312 -0.3553  0.1042  0.1352
17510TIP3    H173945   2.744   3.823  15.266 -0.0907  0.1260  0.0510
17510TIP3    H273946   2.734   3.972  15.245  1.7626  0.2164 -0.3829
17511TIP3   OH273947   5.461   5.160  11.173 -0.2913  0.1826  0.1660
17511TIP3    H173948   5.453   5.158  11.078  0.1974  2.2875  0.0486
17511TIP3    H273949   5.372   5.178  11.204 -0.1718  1.0555  0.0156
17512TIP3   OH273950   2.008   6.140  16.796 -0.2488 -0.1814 -0.2529
17512TIP3    H173951   2.063   6.168  16.723 -2.0822 -0.8986 -2.0036
17512TIP3    H273952   1.926   6.111  16.755 -2.1424  1.2412  2.2290
17513TIP3   OH273953   5.762   4.043  16.525  0.1307 -0.3329  0.0487
17513TIP3    H173954   5.767   4.001  16.610 -0.8530  2.0959  1.4161
17513TIP3    H273955   5.718   4.126  16.542 -0.5843  0.0082 -2.9382
17514TIP3   OH273956   1.962   0.098   5.926  0.0125  0.0061 -0.2698
17514TIP3    H173957   2.015   0.145   5.861  0.7640 -0.3929  0.0324
17514TIP3    H273958   1.950   0.011   5.887 -2.0612  0.6551 -1.1981
17515TIP3   OH273959   0.281   2.602   3.359  0.3304  0.5446  0.3298
17515TIP3    H173960   0.226   2.634   3.431 -1.0072  1.6456 -1.1265
17515TIP3    H273961   0.293   2.678   3.302  0.5837 -0.5239 -1.1000
17516TIP3   OH273962   5.294   4.828  14.682  0.2914  0.7261  0.0749
17516TIP3    H173963   5.210   4.792  14.711 -0.2799  1.9601  0.0242
17516TIP3    H273964   5.322   4.770  14.612 -0.0788 -0.2157  0.6813
17517TIP3   OH273965   4.021   1.135  11.456 -0.3834 -0.4145 -0.1564
17517TIP3    H173966   4.061   1.063  11.407 -0.4410  0.7765 -2.0894
17517TIP3    H273967   3.989   1.194  11.388 -2.1544  0.4557  1.3654
17518TIP3   OH273968   3.208   5.717  10.829 -0.0928 -0.2162 -0.1782
17518TIP3    H173969   3.295   5.730  10.791 -0.1086 -0.5043 -0.3178
17518TIP3    H273970   3.148   5.719  10.754 -0.0319 -1.7218 -0.3070
17519TIP3   OH273971   0.285   5.725  10.615 -0.2441  0.2281 -0.2990
17519TIP3    H173972   0.318   5.669  10.685  0.1212  2.5916  1.5330
17519TIP3    H273973   0.190   5.715  10.619 -0.2096 -3.3375 -2.8192
17520TIP3   OH273974   5.647   6.143   1.985 -0.5646 -0.0409 -0.1019
17520TIP3    H173975   5.605   6.169   2.067  2.4701  0.7130  1.3593
17520TIP3    H273976   5.612   6.056   1.966 -1.7061 -0.0307  1.7063
17521TIP3   OH273977   1.479   3.457   5.377 -0.2413  0.0496  0.0698
17521TIP3    H173978   1.384   3.463   5.367 -0.1375  1.3895 -0.2492
17521TIP3    H273979   1.513   3.452   5.288 -0.0254 -0.8297  0.1939
17522TIP3   OH273980   4.506   5.050   0.551 -0.2241  0.3275 -0.0516
17522TIP3    H173981   4.584   5.075   0.601 -1.1109  0.8929  1.0812
17522TIP3    H273982   4.526   4.962   0.519  0.5843  0.1643  0.8447
17523TIP3   OH273983   3.643   1.549  14.485 -0.4203 -0.4446  0.3658
17523TIP3    H173984   3.603   1.622  14.438  1.3121 -0.5382 -1.4139
17523TIP3    H273985   3.636   1.475  14.424 -1.0207 -1.4596  1.6204
17524TIP3   OH273986   1.105   1.725   5.941 -0.3611  0.6369 -0.2397
17524TIP3    H173987   1.183   1.755   5.989 -0.1318  0.8268 -0.7295
17524TIP3    H273988   1.137   1.708   5.852 -0.3002 -1.7712  0.1612
17525TIP3   OH273989   6.547   0.317  12.923  0.0165  0.3252  0.2530
17525TIP3    H173990   6.588   0.290  13.005 -0.6899  0.5492  0.6847
17525TIP3    H273991   6.577   0.252  12.859  3.0551  1.8083 -0.0392
17526TIP3   OH273992   5.272   5.346   5.974  0.2821  0.1360  0.2840
17526TIP3    H173993   5.231   5.279   6.029  1.1149 -1.4535 -0.9563
17526TIP3    H273994   5.305   5.411   6.036 -1.9746  0.2655  1.4437
17527TIP3   OH273995   4.662   1.075   5.118  0.9654 -0.4204 -0.1434
17527TIP3    H173996   4.708   0.992   5.130  1.3832 -0.0905  0.6251
17527TIP3    H273997   4.698   1.132   5.186  0.5040  0.3131 -0.5023
17528TIP3   OH273998   3.419   4.219  16.392 -0.2490 -0.2729  0.1060
17528TIP3    H173999   3.438   4.263  16.310  0.4693  1.1825  1.0177
17528TIP3    H274000   3.324   4.227  16.402 -0.4483 -1.1062 -0.9006
17529TIP3   OH274001   3.270   3.234   5.714  0.1635  0.6483  0.2097
17529TIP3    H174002   3.271   3.155   5.767  1.3002  0.4615 -0.0732
17529TIP3    H274003   3.360   3.245   5.684 -0.3143  1.0906 -1.1663
17530TIP3   OH274004   5.195   1.466  13.367  0.4300  0.5638  0.3631
17530TIP3    H174005   5.140   1.391  13.390  0.5200  0.7622  1.2575
17530TIP3    H274006   5.148   1.542  13.402  1.4379  0.7035  1.4854
17531TIP3   OH274007   0.444   5.555  17.150 -0.0251 -0.1294 -0.4242
17531TIP3    H174008   0.529   5.590  17.177  0.5385 -0.8574 -1.2128
17531TIP3    H274009   0.380   5.620  17.181  0.8888  0.9686 -0.7972
17532TIP3   OH274010   6.056   5.685  13.056 -0.1652 -0.2792  0.2740
17532TIP3    H174011   5.972   5.705  13.015  0.1120 -1.0983 -0.7313
17532TIP3    H274012   6.117   5.673  12.983  0.8321  0.2739  0.9800
17533TIP3   OH274013   4.162   2.740  17.157  0.0152  0.3905 -0.0163
17533TIP3    H174014   4.253   2.715  17.175 -0.4676 -1.0293  0.5746
17533TIP3    H274015   4.162   2.764  17.065  0.8826 -0.1314 -0.1712
17534TIP3   OH274016   4.362   3.560   2.481  0.2361 -0.0430 -0.4293
17534TIP3    H174017   4.388   3.493   2.418  2.1733  0.4020 -0.1806
17534TIP3    H274018   4.407   3.640   2.451  0.0234  0.5225  0.6881
17535TIP3   OH274019   3.794   5.292  12.345  0.4289 -0.7598  0.1621
17535TIP3    H174020   3.870   5.346  12.366  0.9326 -1.5459  0.4048
17535TIP3    H274021   3.773   5.315  12.254  0.7652 -0.3170  0.1906
17536TIP3   OH274022   1.009   5.119   5.813 -0.0413  0.3146 -0.1460
17536TIP3    H174023   0.967   5.111   5.728 -0.6494  2.8961 -0.1539
17536TIP3    H274024   0.940   5.099   5.876  0.0217 -0.1568 -0.2219
17537TIP3   OH274025   4.800   3.685  11.561  0.5483  0.1254  0.7064
17537TIP3    H174026   4.846   3.740  11.497  3.3963 -1.5442  1.1212
17537TIP3    H274027   4.867   3.665  11.626 -1.4357 -0.7584  2.5823
17538TIP3   OH274028   1.803   1.022  16.921  0.0086 -0.7273  0.0136
17538TIP3    H174029   1.874   0.979  16.874  1.1381  1.0791 -0.0137
17538TIP3    H274030   1.752   1.065  16.853  0.4341  0.1487  0.2352
17539TIP3   OH274031   6.388   6.154  15.945  0.2529  0.2126  0.0339
17539TIP3    H174032   6.294   6.132  15.941 -0.3050  2.3120  0.4782
17539TIP3    H274033   6.431   6.081  15.901 -1.6898 -0.2540 -1.2487
17540TIP3   OH274034   6.782   0.558  14.808 -0.3341  0.2985 -0.6920
17540TIP3    H174035   6.835   0.601  14.876 -0.6761  0.5247 -0.5667
17540TIP3    H274036   6.846   0.528  14.744  0.1556 -1.3871  0.5098
17541TIP3   OH274037   4.793   4.463  10.647 -0.1511 -0.3888  0.2213
17541TIP3    H174038   4.852   4.388  10.644  0.2058 -0.1872  1.5724
17541TIP3    H274039   4.809   4.503  10.732 -0.4193  1.1639 -0.4266
17542TIP3   OH274040   1.316   3.572   4.768  0.3490 -0.8557  0.1772
17542TIP3    H174041   1.394   3.625   4.751  0.5759 -1.1858  0.1854
17542TIP3    H274042   1.338   3.486   4.733 -0.5230 -0.6022 -1.0538
17543TIP3   OH274043   4.758   4.387   4.653 -0.5375  0.0029  0.3833
17543TIP3    H174044   4.794   4.359   4.569  1.4141  0.8969  0.8661
17543TIP3    H274045   4.675   4.428   4.631 -0.1566  0.0338 -1.0865
17544TIP3   OH274046   2.033   4.856  13.048 -0.0628 -0.0241 -0.9381
17544TIP3    H174047   1.994   4.825  13.130 -3.2024  2.3418 -1.3421
17544TIP3    H274048   2.101   4.917  13.075  0.9373 -1.4307 -0.1604
17545TIP3   OH274049   6.453   0.025  11.830  0.3555  0.1445  0.4942
17545TIP3    H174050   6.451  -0.039  11.902 -1.0990 -0.2729  0.1007
17545TIP3    H274051   6.477   0.108  11.873  2.4242 -0.6447  0.9869
17546TIP3   OH274052   1.723   1.333  14.427  0.3228  0.3449  0.0827
17546TIP3    H174053   1.630   1.331  14.449 -0.0108  1.0625 -1.1992
17546TIP3    H274054   1.751   1.422  14.448  0.6583  0.2116  0.2105
17547TIP3   OH274055   2.466   2.016   4.431  0.0276  0.3764  0.5775
17547TIP3    H174056   2.384   2.027   4.479 -0.3022  1.6596 -0.2237
17547TIP3    H274057   2.530   2.069   4.479 -0.1563  1.1552 -0.0059
17548TIP3   OH274058   2.384   1.092  11.489 -0.3131 -0.1954  0.6934
17548TIP3    H174059   2.391   1.026  11.420  0.2523  0.7091 -0.1416
17548TIP3    H274060   2.475   1.118  11.505 -0.6423  2.1302 -0.7573
17549TIP3   OH274061   4.545   1.793  14.815 -0.1512  0.2373 -0.7137
17549TIP3    H174062   4.462   1.766  14.854  0.6141  1.1084  1.7379
17549TIP3    H274063   4.573   1.868  14.868  2.3513 -0.2152 -1.2497
17550TIP3   OH274064   1.792   0.615   2.554 -0.1412 -0.0139  0.8236
17550TIP3    H174065   1.811   0.559   2.478  1.6128  0.1142  1.1284
17550TIP3    H274066   1.723   0.569   2.601 -0.1398 -0.8972 -0.0061
17551TIP3   OH274067   5.101   0.060   2.806  0.4603  0.4900 -0.1880
17551TIP3    H174068   5.101   0.155   2.810 -1.2402  0.5365 -0.6578
17551TIP3    H274069   5.053   0.033   2.885  1.0457  0.0033  0.0124
17552TIP3   OH274070   5.956   3.116   2.989  0.0985  0.2190 -0.7254
17552TIP3    H174071   6.044   3.082   2.974  0.2859  1.2796 -2.3731
17552TIP3    H274072   5.968   3.210   3.007 -0.7452  1.0071 -3.6182
17553TIP3   OH274073   0.070   0.177  17.005 -0.0503 -0.2843  0.0419
17553TIP3    H174074   0.075   0.161  16.911 -0.5054  0.0975 -0.0482
17553TIP3    H274075  -0.020   0.207  17.020 -0.4812 -1.8279  0.8314
17554TIP3   OH274076   1.993   4.380  12.073  0.3763  0.4976  0.6274
17554TIP3    H174077   2.046   4.303  12.092  1.9779  1.4481  0.1499
17554TIP3    H274078   2.027   4.413  11.990  0.0350  1.9798  1.0452
17555TIP3   OH274079   2.815   5.366  11.846  0.0583 -0.6958  0.1199
17555TIP3    H174080   2.898   5.394  11.885 -1.2005  2.8259  0.6449
17555TIP3    H274081   2.750   5.423  11.885 -2.6546 -3.0875 -0.5291
17556TIP3   OH274082   6.594   4.679  15.494  0.2686  0.1474  0.0030
17556TIP3    H174083   6.597   4.700  15.587  0.6256  0.2796 -0.0371
17556TIP3    H274084   6.571   4.587  15.491  0.2664  0.1400  0.2227
17557TIP3   OH274085   3.474   4.031   1.285 -0.1914 -0.1457  0.4198
17557TIP3    H174086   3.424   4.098   1.239  0.3692  1.5043  2.0846
17557TIP3    H274087   3.534   4.080   1.340  4.6647 -1.8718 -2.6585
17558TIP3   OH274088   3.369   1.801   5.410 -0.0674  0.1527  0.0715
17558TIP3    H174089   3.441   1.755   5.451  0.2415  0.4774 -0.0985
17558TIP3    H274090   3.375   1.890   5.443  0.6658  0.6255 -1.2463
17559TIP3   OH274091   4.268   1.247   5.303  0.7447  0.6152  0.9139
17559TIP3    H174092   4.338   1.231   5.366 -0.2535 -0.6219  1.7682
17559TIP3    H274093   4.292   1.195   5.226  1.5165  1.4213  0.5981
17560TIP3   OH274094   0.912   0.803  11.272 -0.0530  0.2154  0.1445
17560TIP3    H174095   1.001   0.824  11.299  0.1855 -0.5372 -0.0148
17560TIP3    H274096   0.907   0.834  11.181  0.3378 -0.4989 -0.1344
17561TIP3   OH274097   1.706   3.337  13.472  0.0309  0.2143  0.4919
17561TIP3    H174098   1.693   3.390  13.394  0.8540 -0.4099 -0.0945
17561TIP3    H274099   1.744   3.397  13.536  2.5614  0.0072 -0.7098
17562TIP3   OH274100   6.638   1.321  14.277 -0.6390 -0.1377 -0.2534
17562TIP3    H174101   6.719   1.363  14.305  0.1383 -2.0020  0.3786
17562TIP3    H274102   6.625   1.353  14.187 -0.9107  2.5773  0.6477
17563TIP3   OH274103   5.257   2.362   4.485 -0.3330 -0.5305  0.3099
17563TIP3    H174104   5.285   2.419   4.413  2.0043 -1.4696  0.3972
17563TIP3    H274105   5.196   2.300   4.444 -1.3270  0.7339 -0.1962
17564TIP3   OH274106   0.714   4.125  16.527 -0.5787  0.4600 -0.1734
17564TIP3    H174107   0.712   4.038  16.488 -1.2706  0.8604 -1.0854
17564TIP3    H274108   0.713   4.110  16.621  0.0141 -0.5228 -0.3164
17565TIP3   OH274109   1.047   0.086  15.524 -0.2960 -0.5753 -0.5872
17565TIP3    H174110   1.085   0.166  15.488  0.0716 -1.7731 -3.0275
17565TIP3    H274111   1.114   0.019  15.511 -1.3510 -1.7091 -0.4114
17566TIP3   OH274112   6.005   2.311   5.550  0.6663 -0.1860  0.6298
17566TIP3    H174113   5.955   2.230   5.559 -1.0168  0.5377 -1.3890
17566TIP3    H274114   5.968   2.369   5.616 -0.3260 -0.0682 -0.0113
17567TIP3   OH274115   2.357   2.594   5.834  0.1604  0.1186  0.8672
17567TIP3    H174116   2.369   2.513   5.884  0.1730  0.4180  1.3549
17567TIP3    H274117   2.441   2.639   5.841  0.4522 -0.2344 -0.1633
17568TIP3   OH274118   4.258   0.809   3.885  0.6893  0.7862  0.0445
17568TIP3    H174119   4.351   0.832   3.880  1.3071 -1.4098  0.1414
17568TIP3    H274120   4.241   0.798   3.979  0.8793 -0.6235 -0.0556
17569TIP3   OH274121   5.694   2.884   5.077  0.1295  0.2244 -0.4753
17569TIP3    H174122   5.717   2.793   5.096 -2.5345 -0.0477  2.1643
17569TIP3    H274123   5.774   2.933   5.094  1.0748 -1.4038 -0.0001
17570TIP3   OH274124   0.561   5.268   1.975  0.1792 -0.4688 -0.0922
17570TIP3    H174125   0.656   5.258   1.982  0.5801  1.6048 -1.3978
17570TIP3    H274126   0.526   5.180   1.988  2.1354 -1.0539  1.9538
17571TIP3   OH274127   6.233   0.900  13.597 -0.2275 -0.0143 -0.1884
17571TIP3    H174128   6.182   0.847  13.537  0.4219  1.7703 -2.4494
17571TIP3    H274129   6.313   0.920  13.550  1.1637 -0.0592  2.0288
17572TIP3   OH274130   3.366   1.372  12.465  0.2419  0.0601 -0.3328
17572TIP3    H174131   3.400   1.283  12.475  0.1076  0.0214 -0.2321
17572TIP3    H274132   3.381   1.413  12.550 -0.4235 -0.1099 -0.1342
17573TIP3   OH274133   3.647   4.775   3.920 -0.3129 -0.6855  0.2350
17573TIP3    H174134   3.608   4.862   3.913 -0.1230 -0.5355  0.9356
17573TIP3    H274135   3.654   4.760   4.014 -0.7067 -1.6203  0.1264
17574TIP3   OH274136   2.956   5.707  15.403 -0.0441 -0.2007 -0.0719
17574TIP3    H174137   2.995   5.794  15.412  1.0370 -0.5468 -1.1477
17574TIP3    H274138   2.862   5.721  15.414  0.2787  0.7599  2.0170
17575TIP3   OH274139   0.612   4.987   1.550  1.0354  0.4609 -0.1396
17575TIP3    H174140   0.666   4.965   1.626  2.0624  0.7917 -0.7565
17575TIP3    H274141   0.603   5.082   1.554  0.2254  0.3806  0.1297
17576TIP3   OH274142   5.687   3.131  14.700  0.0046  0.0011  0.5288
17576TIP3    H174143   5.713   3.187  14.627 -0.1410  0.1533  0.5944
17576TIP3    H274144   5.770   3.107  14.742  0.4543 -2.7644 -1.6214
17577TIP3   OH274145   0.942   1.528   2.851  0.1786 -0.4289  0.1454
17577TIP3    H174146   0.976   1.614   2.829  0.0069 -0.2155  0.6866
17577TIP3    H274147   1.019   1.470   2.848  0.4490 -0.1016  0.5809
17578TIP3   OH274148   1.684   5.836   4.856 -0.2750 -0.1246 -0.2484
17578TIP3    H174149   1.728   5.758   4.823  0.2369 -0.0739  0.2958
17578TIP3    H274150   1.594   5.809   4.871 -1.1745  0.4520 -3.8803
17579TIP3   OH274151   5.529   2.262  14.087  0.0689 -0.2776  0.0527
17579TIP3    H174152   5.438   2.274  14.115  0.1197 -0.6711  0.3864
17579TIP3    H274153   5.553   2.175  14.119  1.2350  0.6195  1.8242
17580TIP3   OH274154   6.698   5.200   2.131 -0.3581 -0.4334 -0.3240
17580TIP3    H174155   6.750   5.146   2.190  2.4077  1.8740 -0.3864
17580TIP3    H274156   6.625   5.145   2.106 -0.7730 -2.1798  3.8324
17581TIP3   OH274157   1.539   2.061  14.042 -0.3352 -0.6021  0.3800
17581TIP3    H174158   1.523   2.023  14.128 -0.8279  0.5069  0.7981
17581TIP3    H274159   1.634   2.057  14.031 -0.2545 -0.5777  1.0584
17582TIP3   OH274160   1.357   2.880  12.640  0.4528  0.5963  0.1553
17582TIP3    H174161   1.292   2.812  12.623 -0.2432  1.1648  0.5156
17582TIP3    H274162   1.438   2.846  12.600 -0.7158  1.2138 -3.0560
17583TIP3   OH274163   4.481   2.706  13.667 -0.0385  0.2258 -0.3530
17583TIP3    H174164   4.461   2.687  13.758 -1.5554 -0.8968 -0.8876
17583TIP3    H274165   4.409   2.667  13.617  0.7820  0.7505 -2.0408
17584TIP3   OH274166   2.981   4.286   0.758 -0.3783 -0.1674 -0.1944
17584TIP3    H174167   3.001   4.201   0.796 -0.1328 -0.3468 -0.7199
17584TIP3    H274168   2.918   4.325   0.819 -0.7442 -0.8580 -0.1245
17585TIP3   OH274169   4.047   3.464  14.834  0.1525  0.0098  0.2171
17585TIP3    H174170   4.100   3.527  14.785 -0.7672  0.4020 -0.2972
17585TIP3    H274171   4.011   3.406  14.767  2.4273 -2.2630  0.7998
17586TIP3   OH274172   1.961   1.340  16.613  0.3990  0.4314 -0.5079
17586TIP3    H174173   1.866   1.342  16.600  0.4239  1.6556 -0.6254
17586TIP3    H274174   1.976   1.264  16.669 -0.4971 -0.5823 -1.6001
17587TIP3   OH274175   1.697   1.521  14.869 -0.3219 -0.2762 -0.2874
17587TIP3    H174176   1.747   1.599  14.844  0.5345 -1.4519 -2.5181
17587TIP3    H274177   1.756   1.471  14.924 -0.1896 -0.2185 -0.3776
17588TIP3   OH274178   1.805   0.810  16.554  0.3018 -0.4014 -0.4392
17588TIP3    H174179   1.851   0.874  16.499  0.1327 -0.4938 -0.6880
17588TIP3    H274180   1.833   0.725  16.521  2.3712 -0.5188  1.3686
17589TIP3   OH274181   4.015   4.532   0.044 -0.1339  0.1564  0.1934
17589TIP3    H174182   4.055   4.485  -0.030  0.7076 -0.3668  0.9565
17589TIP3    H274183   4.087   4.543   0.106 -1.0294 -0.1993  1.3166
17590TIP3   OH274184   0.453   2.800  16.130 -0.3718 -0.6670  0.5755
17590TIP3    H174185   0.494   2.834  16.210 -0.5726 -0.0875  0.4370
17590TIP3    H274186   0.509   2.727  16.103 -0.1134 -0.6476  1.0586
17591TIP3   OH274187   4.195   4.220  16.369 -0.1249 -0.8578  0.3485
17591TIP3    H174188   4.144   4.139  16.368  1.3595 -1.8235  0.5295
17591TIP3    H274189   4.233   4.223  16.457 -0.9040  0.5445  0.6718
17592TIP3   OH274190   4.811   4.534  13.005  0.1689 -0.0598 -0.3075
17592TIP3    H174191   4.774   4.621  13.018 -0.8508 -0.6368  0.8226
17592TIP3    H274192   4.808   4.521  12.910 -0.8291  0.6564 -0.3934
17593TIP3   OH274193   6.280   1.923  15.631  0.4849 -0.3203 -0.0441
17593TIP3    H174194   6.200   1.891  15.673  0.7626  1.3562  1.9210
17593TIP3    H274195   6.336   1.845  15.623  0.2392 -0.8297  2.3933
17594TIP3   OH274196   5.524   2.582  12.766 -0.3002 -0.1981  0.3717
17594TIP3    H174197   5.471   2.609  12.842 -0.9449 -1.1670  0.2892
17594TIP3    H274198   5.469   2.517  12.721  0.2697  0.0295 -0.6742
17595TIP3   OH274199   4.564   3.573  16.419 -0.0807 -0.2028 -0.2298
17595TIP3    H174200   4.629   3.552  16.352 -1.3892 -3.8652 -0.5540
17595TIP3    H274201   4.485   3.597  16.371 -0.0122  0.7307  0.1032
17596TIP3   OH274202   1.159   1.560  12.685 -0.1154  0.6479 -0.4341
17596TIP3    H174203   1.116   1.624  12.628 -0.9216  0.6017  0.0977
17596TIP3    H274204   1.252   1.582  12.680 -0.5491  3.8317  1.9524
17597TIP3   OH274205   6.328   6.780  13.571  0.3517 -0.6094 -0.7211
17597TIP3    H174206   6.404   6.820  13.530  0.4146 -0.3780 -0.3875
17597TIP3    H274207   6.350   6.776  13.664 -0.6830  0.9606 -0.3715
17598TIP3   OH274208   5.198   5.612  16.334 -0.7310 -0.3696 -0.2276
17598TIP3    H174209   5.212   5.705  16.315 -1.0101 -0.1303  0.7145
17598TIP3    H274210   5.282   5.582  16.369 -1.1253 -0.0739  0.9939
17599TIP3   OH274211   4.902   2.606  13.237 -0.1542 -0.6599 -0.1379
17599TIP3    H174212   4.818   2.580  13.199  0.1005 -0.6863 -0.6960
17599TIP3    H274213   4.885   2.691  13.279  0.0772  0.5769 -2.3689
17600TIP3   OH274214   1.926   3.078   5.184 -0.2783 -0.5007  0.3989
17600TIP3    H174215   1.953   2.987   5.175  0.6972 -0.0607 -1.6415
17600TIP3    H274216   1.842   3.083   5.139 -0.8045 -0.5617  1.3416
17601TIP3   OH274217   3.073   4.775  15.849  0.3777  0.0563  0.1201
17601TIP3    H174218   3.126   4.835  15.902 -0.2398 -1.3642  2.5161
17601TIP3    H274219   3.135   4.739  15.785  2.5448 -1.7729  2.9800
17602TIP3   OH274220   1.364   5.064   1.683 -0.3045  0.2787  0.6907
17602TIP3    H174221   1.418   4.986   1.691 -1.3641 -0.6738 -0.9350
17602TIP3    H274222   1.378   5.095   1.594 -2.6070 -0.1986  0.0856
17603TIP3   OH274223   4.976   4.893  12.897 -0.2141  0.1904  0.4742
17603TIP3    H174224   5.022   4.834  12.836 -0.6594 -1.7322  1.8798
17603TIP3    H274225   4.889   4.904  12.858  0.6797  2.1993 -1.1613
17604TIP3   OH274226   5.254   2.081   5.210  0.1348 -0.0097  0.0845
17604TIP3    H174227   5.198   2.056   5.136 -0.2246 -0.0659  0.3766
17604TIP3    H274228   5.343   2.079   5.173  0.2259 -2.4300  0.2387
17605TIP3   OH274229   1.545   0.138   1.075  0.1309 -0.2016 -0.2445
17605TIP3    H174230   1.570   0.050   1.045  0.2505  0.0342 -0.8582
17605TIP3    H274231   1.551   0.192   0.996 -0.0675  0.3320  0.1042
17606TIP3   OH274232   1.990   4.690  11.092 -0.7821 -0.2139 -0.1518
17606TIP3    H174233   2.067   4.680  11.036  0.0644  0.2145  0.9061
17606TIP3    H274234   1.925   4.631  11.053 -0.3513  0.3332 -1.7810
17607TIP3   OH274235   2.402   2.173  14.571 -0.0335 -0.0598  0.0599
17607TIP3    H174236   2.428   2.153  14.661  0.4296 -2.2484 -0.4820
17607TIP3    H274237   2.475   2.223  14.535  0.7016 -0.8916  0.3495
17608TIP3   OH274238   3.257   4.497   3.246 -0.4187 -0.0913 -0.5057
17608TIP3    H174239   3.170   4.459   3.237 -0.1657 -0.7348 -0.2483
17608TIP3    H274240   3.277   4.532   3.159 -0.6640 -0.5142 -0.7340
17609TIP3   OH274241   6.651   2.013   1.473 -0.1482 -0.2752 -0.3421
17609TIP3    H174242   6.687   2.098   1.498 -0.0329 -0.5896  0.5996
17609TIP3    H274243   6.706   1.949   1.519 -0.6742 -0.8357 -0.4742
17610TIP3   OH274244   2.394   0.065  12.996 -0.3911  0.3538 -0.0246
17610TIP3    H174245   2.455  -0.008  13.011 -0.3723  0.5926  1.1490
17610TIP3    H274246   2.314   0.039  13.041 -0.0374  1.5057  1.3319
17611TIP3   OH274247   4.995   2.528  12.218  0.1212 -0.0496  0.2574
17611TIP3    H174248   4.984   2.494  12.129  1.6097 -1.1322  0.4650
17611TIP3    H274249   5.048   2.607  12.207 -1.3318  0.9514  0.0286
17612TIP3   OH274250   5.955   3.653  13.224 -0.1693  0.0005  0.4250
17612TIP3    H174251   6.041   3.621  13.198  0.2705  1.6078 -0.2465
17612TIP3    H274252   5.914   3.680  13.142 -2.2833 -2.7962  0.4013
17613TIP3   OH274253   0.555   4.177   6.018  0.4545  0.2156  0.5193
17613TIP3    H174254   0.471   4.195   5.975  1.9555  1.3508 -2.1648
17613TIP3    H274255   0.535   4.182   6.112 -2.5968 -0.3159  0.0196
17614TIP3   OH274256   6.235   2.148   1.653  0.4153 -0.7860 -0.3937
17614TIP3    H174257   6.298   2.218   1.639 -0.2331 -0.2872 -0.9098
17614TIP3    H274258   6.259   2.110   1.737 -1.3415  2.3550  1.7061
17615TIP3   OH274259   6.081   1.664  13.216 -0.5128 -0.0098  0.1728
17615TIP3    H174260   6.019   1.684  13.287 -0.5459 -0.7643  0.3601
17615TIP3    H274261   6.046   1.712  13.141 -0.7893  0.3482  0.5214
17616TIP3   OH274262   1.122   5.906  12.063 -0.7343 -0.7621 -0.3101
17616TIP3    H174263   1.214   5.891  12.085 -0.7854  0.7206  1.1102
17616TIP3    H274264   1.118   5.998  12.035 -1.9448 -0.3915  0.9138
17617TIP3   OH274265   5.302   2.266   4.046  0.2580  0.0030 -0.1029
17617TIP3    H174266   5.302   2.192   4.107 -2.1240 -0.4261 -0.5115
17617TIP3    H274267   5.348   2.336   4.093 -1.9629 -0.1072  2.4908
17618TIP3   OH274268   6.376   5.764  15.931  0.6173  0.4811 -0.1031
17618TIP3    H174269   6.285   5.734  15.926  0.5180  0.6665  0.5258
17618TIP3    H274270   6.421   5.695  15.980  1.1146 -0.2690 -1.5548
17619TIP3   OH274271   2.322   0.700   5.290 -0.0984  0.2034  0.0487
17619TIP3    H174272   2.365   0.650   5.360 -0.1002  0.2516  0.0841
17619TIP3    H274273   2.368   0.674   5.210 -0.7564 -0.6217 -0.0755
17620TIP3   OH274274   4.875   1.128   2.107 -0.5080 -0.1800  0.2698
17620TIP3    H174275   4.889   1.190   2.036  0.8229 -1.5038 -0.6898
17620TIP3    H274276   4.887   1.042   2.066 -2.0091 -1.0820  1.6087
17621TIP3   OH274277   2.297   3.308  15.648 -0.3613 -0.4484  0.2803
17621TIP3    H174278   2.247   3.263  15.717 -0.0836 -1.1667  0.0192
17621TIP3    H274279   2.385   3.272  15.655 -0.4524 -0.9096 -0.7776
17622TIP3   OH274280   5.147   1.443   2.837 -0.1155 -0.0020  0.1965
17622TIP3    H174281   5.179   1.527   2.871 -0.7403  0.7382 -0.9643
17622TIP3    H274282   5.068   1.426   2.888 -0.7625  0.8404 -0.4868
17623TIP3   OH274283   0.351   0.845  11.204 -0.1222 -0.6622 -0.2510
17623TIP3    H174284   0.260   0.815  11.207 -0.1393 -0.4934  1.2648
17623TIP3    H274285   0.346   0.940  11.212  0.1925 -0.6615 -0.0318
17624TIP3   OH274286   0.110   1.749  13.197 -0.3160  0.2976  0.1000
17624TIP3    H174287   0.193   1.719  13.161  1.0060  2.4573  1.1099
17624TIP3    H274288   0.064   1.786  13.122 -1.2879 -2.5774 -0.8381
17625TIP3   OH274289   3.562   0.750   1.317 -0.0752  0.0294 -0.6150
17625TIP3    H174290   3.651   0.774   1.292 -0.4756  2.2110 -0.1464
17625TIP3    H274291   3.506   0.814   1.272 -1.2416 -0.0592  0.6309
17626TIP3   OH274292   2.981   2.718   4.246  0.3732 -1.2037  0.6533
17626TIP3    H174293   2.901   2.761   4.216  0.0472 -2.0545  0.2641
17626TIP3    H274294   3.049   2.745   4.184 -0.0020 -1.8716 -0.0638
17627TIP3   OH274295   5.367   4.540   2.826  0.0833  0.0654  0.1548
17627TIP3    H174296   5.427   4.470   2.799 -1.0646 -0.4532 -1.1907
17627TIP3    H274297   5.340   4.580   2.743 -2.6505 -0.7716  0.5715
17628TIP3   OH274298   0.430   1.399  11.442  0.3339  0.0628  0.1405
17628TIP3    H174299   0.441   1.339  11.516  0.1703 -1.6579 -1.1668
17628TIP3    H274300   0.518   1.407  11.404  0.1098 -0.5053 -0.5227
17629TIP3   OH274301   3.923   6.120   6.842  0.5556  0.1341 -0.4359
17629TIP3    H174302   3.879   6.134   6.758 -1.0239 -0.0056  0.3145
17629TIP3    H274303   3.945   6.209   6.872 -0.0120  0.2913 -0.4546
17630TIP3   OH274304   6.542   4.237  10.584  0.4864 -0.6337  0.4726
17630TIP3    H174305   6.525   4.321  10.627  0.6424 -0.3309 -0.0460
17630TIP3    H274306   6.629   4.247  10.545  0.6618 -1.1663  0.7164
17631TIP3   OH274307   5.331   3.344  14.952  0.4753  0.2939 -0.8646
17631TIP3    H174308   5.245   3.316  14.983  0.6997 -1.4943 -1.7115
17631TIP3    H274309   5.315   3.383  14.866  0.4753  0.2166 -0.8993
17632TIP3   OH274310   2.544   6.775  12.071  0.2308  0.8113 -0.3015
17632TIP3    H174311   2.556   6.838  12.000  0.9600  1.5830  0.4727
17632TIP3    H274312   2.541   6.829  12.150 -1.2711  0.0334  0.2077
17633TIP3   OH274313   3.837   3.382  13.255 -0.8039 -0.8211 -0.3323
17633TIP3    H174314   3.833   3.424  13.341  0.0343 -0.5259 -0.4302
17633TIP3    H274315   3.777   3.433  13.200 -0.3804 -0.2184 -0.2479
17634TIP3   OH274316   4.096   5.749   3.894  0.0168  0.2316  0.3221
17634TIP3    H174317   4.005   5.721   3.905  0.1214 -1.2135 -1.8405
17634TIP3    H274318   4.089   5.831   3.845 -0.1115  0.8626  1.3509
17635TIP3   OH274319   4.554   6.487   1.149 -0.5381 -0.5431 -0.6146
17635TIP3    H174320   4.488   6.511   1.084  0.5334 -0.1240 -1.5868
17635TIP3    H274321   4.548   6.555   1.215 -1.2924 -0.6875 -0.5254
17636TIP3   OH274322   3.667   6.323  14.420  0.3947  0.2852 -0.2873
17636TIP3    H174323   3.731   6.380  14.464  0.3570  0.6571 -0.7118
17636TIP3    H274324   3.604   6.383  14.382 -0.1587 -0.0805  0.0411
17637TIP3   OH274325   2.849   2.822   2.348  0.1617 -0.3940 -0.4465
17637TIP3    H174326   2.911   2.866   2.407  0.3676 -1.2429 -0.0228
17637TIP3    H274327   2.843   2.733   2.381 -1.1187 -0.3920 -0.6243
17638TIP3   OH274328   4.533   4.154  15.207 -0.6089  0.0891  0.1156
17638TIP3    H174329   4.492   4.083  15.158  1.6281 -1.2887  0.0701
17638TIP3    H274330   4.584   4.109  15.275 -1.2597  1.8112  1.8199
17639TIP3   OH274331   2.990   5.160   5.652  0.3549 -0.1583  0.6545
17639TIP3    H174332   3.027   5.202   5.729  1.3409 -1.1535  0.7506
17639TIP3    H274333   2.903   5.131   5.681  1.0808 -1.3751  1.7245
17640TIP3   OH274334   6.663   2.682  12.789  0.1254 -0.0821  0.2750
17640TIP3    H174335   6.623   2.635  12.716  1.3495  2.1126 -1.9785
17640TIP3    H274336   6.603   2.755  12.807  1.3612  1.3126 -0.9109
17641TIP3   OH274337   3.256   6.162   3.387 -0.1284  0.0573 -0.6364
17641TIP3    H174338   3.240   6.077   3.345  2.1546  0.2516 -2.1266
17641TIP3    H274339   3.169   6.198   3.405 -1.2089 -3.0009  1.0427
17642TIP3   OH274340   1.082   1.796   2.991  0.1042  0.8387 -0.1045
17642TIP3    H174341   1.082   1.879   2.944  1.0864  1.5802  1.1250
17642TIP3    H274342   1.175   1.779   3.008 -0.1432 -0.1161  0.3339
17643TIP3   OH274343   4.974   1.261  14.207 -0.0760 -0.2395 -0.4083
17643TIP3    H174344   4.943   1.224  14.290 -3.1039 -1.0767 -1.8050
17643TIP3    H274345   5.065   1.231  14.201 -0.4008 -1.8878  1.6506
17644TIP3   OH274346   6.318   6.170   4.961 -0.1484 -0.4233  0.5669
17644TIP3    H174347   6.313   6.195   5.053 -0.5288 -1.2090  0.7642
17644TIP3    H274348   6.290   6.249   4.914  0.6535  0.1864  1.0855
17645TIP3   OH274349   6.055   5.925  10.954 -0.3261  0.1706 -0.4770
17645TIP3    H174350   6.060   5.863  10.882 -1.2384  0.9468 -1.2410
17645TIP3    H274351   5.977   5.977  10.935 -0.2720  0.7447  0.7878
17646TIP3   OH274352   6.102   6.712   4.265  0.5200  0.3464  0.3676
17646TIP3    H174353   6.067   6.732   4.352  1.4331  0.6871  0.6723
17646TIP3    H274354   6.197   6.714   4.277  0.6699 -1.2384 -0.2736
17647TIP3   OH274355   3.028   6.258  15.249  0.5821 -0.1446 -0.0030
17647TIP3    H174356   3.122   6.271  15.246  0.2729  2.3246 -1.9522
17647TIP3    H274357   3.005   6.225  15.162 -0.3801 -0.5566  0.3854
17648TIP3   OH274358   4.886   6.120  16.998 -0.0736 -0.0811 -0.3632
17648TIP3    H174359   4.949   6.176  17.044 -1.0294  0.3495  0.4507
17648TIP3    H274360   4.801   6.148  17.030 -0.6785 -0.8551 -1.2350
17649TIP3   OH274361   5.832   6.428  13.382 -0.3150  0.1823  0.0497
17649TIP3    H174362   5.911   6.378  13.401 -1.4027 -1.1576  1.3221
17649TIP3    H274363   5.858   6.519  13.391  0.5319 -0.2438  3.0559
17650TIP3   OH274364   6.408   1.218  10.885 -0.1098  0.2284  0.2981
17650TIP3    H174365   6.323   1.181  10.909  1.3489 -2.3983  1.8717
17650TIP3    H274366   6.429   1.279  10.957  0.3617 -0.9899  1.2314
17651TIP3   OH274367   3.764   0.034   1.782  0.3656 -0.1631 -0.1575
17651TIP3    H174368   3.759   0.018   1.688 -1.5790 -0.1788 -0.0948
17651TIP3    H274369   3.841   0.090   1.793  0.2987  0.3082 -1.8200
17652TIP3   OH274370   5.365   1.647  11.047  0.4192 -0.7071 -0.1089
17652TIP3    H174371   5.322   1.608  10.971 -1.5304  0.7659  0.1792
17652TIP3    H274372   5.321   1.608  11.122 -1.3311  1.6469  0.1824
17653TIP3   OH274373   1.420   3.285   2.809 -0.3838 -0.2778 -0.6321
17653TIP3    H174374   1.360   3.271   2.736  0.2677  2.0420 -1.7155
17653TIP3    H274375   1.368   3.265   2.887 -0.7302 -4.0436 -1.6572
17654TIP3   OH274376   3.666   4.481  12.232 -0.1138  0.1595 -0.1523
17654TIP3    H174377   3.614   4.504  12.309  0.4582 -3.1305  1.4050
17654TIP3    H274378   3.750   4.450  12.267 -0.4095 -3.0476 -1.8295
17655TIP3   OH274379   2.081   6.285   3.925  0.5105 -0.2060  0.0670
17655TIP3    H174380   2.145   6.279   3.854  1.5231 -0.5102  0.9693
17655TIP3    H274381   2.090   6.374   3.958 -0.2171  0.0503 -0.4090
17656TIP3   OH274382   0.876   6.800  15.934  0.3589  0.7611  0.0248
17656TIP3    H174383   0.839   6.723  15.976  0.8253  0.7706  0.4581
17656TIP3    H274384   0.918   6.766  15.855 -2.9136  1.0664 -2.0412
17657TIP3   OH274385   1.349   3.757  11.862  0.2028 -0.5653  0.3021
17657TIP3    H174386   1.403   3.766  11.941 -1.0826 -0.9711  1.2526
17657TIP3    H274387   1.334   3.847  11.833  2.3007 -0.4710 -0.6450
17658TIP3   OH274388   2.168   5.825   3.950  0.5267 -0.7340 -0.4700
17658TIP3    H174389   2.152   5.783   3.866 -1.8384 -2.3535  0.6791
17658TIP3    H274390   2.141   5.916   3.937 -2.4095 -1.5596 -0.8472
17659TIP3   OH274391   6.581   6.585   2.020 -0.5562  0.5212  0.7107
17659TIP3    H174392   6.539   6.520   2.076 -0.0046  0.3710  0.9575
17659TIP3    H274393   6.673   6.585   2.047 -0.6266  1.7140  1.0061
17660TIP3   OH274394   0.857   5.537   3.673  0.0469 -0.1545 -0.0980
17660TIP3    H174395   0.848   5.529   3.578  0.5485 -2.7466  0.0090
17660TIP3    H274396   0.945   5.504   3.692  0.3000  1.1594  1.2154
17661TIP3   OH274397   0.009   4.676   3.602  0.8277 -0.0538  0.1299
17661TIP3    H174398   0.004   4.771   3.588 -1.3846 -0.0794  0.3679
17661TIP3    H274399   0.068   4.666   3.677 -0.2171  1.2882  1.1761
17662TIP3   OH274400   4.959   2.967  12.770 -1.4051  0.0702 -0.1842
17662TIP3    H174401   5.005   2.971  12.854 -2.4986 -3.6454  0.7646
17662TIP3    H274402   5.027   2.951  12.706 -0.6762  1.8798  0.0854
17663TIP3   OH274403   4.092   6.704  15.391 -0.4615 -0.1233 -0.6379
17663TIP3    H174404   4.032   6.654  15.446 -1.9098  0.8865 -1.2393
17663TIP3    H274405   4.137   6.638  15.339 -1.0523 -0.9128 -0.1745
17664TIP3   OH274406   0.857   4.205  13.041 -0.5596  0.1250  0.5933
17664TIP3    H174407   0.814   4.152  12.973 -0.8745 -0.2474  1.0808
17664TIP3    H274408   0.855   4.150  13.119  0.8797  0.0716  0.6057
17665TIP3   OH274409   0.893   5.694   3.923  0.7588 -0.5295 -0.1337
17665TIP3    H174410   0.914   5.636   3.850 -0.0419 -0.1065 -0.7104
17665TIP3    H274411   0.869   5.777   3.882 -0.2244 -0.4442  0.5805
17666TIP3   OH274412   5.458   5.432  15.678 -0.1931  0.0024 -0.1152
17666TIP3    H174413   5.446   5.355  15.733  2.0430 -0.5002 -0.2241
17666TIP3    H274414   5.553   5.448  15.680 -0.1384  0.5858 -2.9232
17667TIP3   OH274415   3.668   3.776   3.357  0.1725  0.9145  0.3064
17667TIP3    H174416   3.643   3.744   3.444 -2.1870 -0.0449 -0.6631
17667TIP3    H274417   3.611   3.851   3.341  0.4166  0.9333 -0.5322
17668TIP3   OH274418   6.666   1.499   1.171  0.0023 -0.6725 -0.2002
17668TIP3    H174419   6.759   1.522   1.163 -0.4044  0.9202 -0.8736
17668TIP3    H274420   6.629   1.522   1.086 -1.2357 -0.1270  0.4622
17669TIP3   OH274421   2.970   3.669  11.685  0.0886  0.1628 -0.1271
17669TIP3    H174422   2.962   3.751  11.635  0.3702  0.9919  1.1261
17669TIP3    H274423   3.054   3.677  11.730  0.1031 -0.8145  0.0338
17670TIP3   OH274424   1.386   2.443   1.816  0.5292 -0.5718  0.3163
17670TIP3    H174425   1.406   2.368   1.759 -0.9607 -0.6909 -0.0859
17670TIP3    H274426   1.465   2.455   1.868  1.6741 -0.9369 -1.2546
17671TIP3   OH274427   5.405   5.901  13.883  0.0772  0.4399  0.7293
17671TIP3    H174428   5.416   5.936  13.972  0.5474 -0.2760  0.9592
17671TIP3    H274429   5.424   5.975  13.826  1.2473  0.5359  1.2052
17672TIP3   OH274430   0.959   2.823  15.194 -0.3363  0.3169 -0.2945
17672TIP3    H174431   0.939   2.853  15.106  0.3302  1.6319 -0.0211
17672TIP3    H274432   1.053   2.838  15.204 -0.3548 -0.0618  0.5495
17673TIP3   OH274433   4.908   5.433  15.683 -0.0179  0.0904  0.0107
17673TIP3    H174434   4.817   5.453  15.660 -0.4873 -0.2135  1.5196
17673TIP3    H274435   4.926   5.352  15.635 -0.2810  0.5407 -0.8820
17674TIP3   OH274436   3.715   3.117   4.846 -0.0069 -0.7400 -0.1865
17674TIP3    H174437   3.754   3.203   4.859 -0.7162 -0.6359  1.5088
17674TIP3    H274438   3.786   3.064   4.809  0.5247  0.4792 -0.9676
17675TIP3   OH274439   4.957   2.819   5.865 -0.2390  0.1361  0.5516
17675TIP3    H174440   4.950   2.842   5.958 -0.7299  0.0955  0.5268
17675TIP3    H274441   5.040   2.856   5.837 -1.5576  3.0720  0.1781
17676TIP3   OH274442   4.054   5.882   6.909 -0.1240  0.1617 -0.5259
17676TIP3    H174443   3.989   5.950   6.888 -0.0735  0.2271 -0.4704
17676TIP3    H274444   4.122   5.928   6.958 -0.7613 -0.1992  0.7484
17677TIP3   OH274445   1.366   4.928  13.141  0.6773  0.7379 -0.3354
17677TIP3    H174446   1.436   4.868  13.116 -0.3008 -2.0768  2.8686
17677TIP3    H274447   1.288   4.896  13.096  0.4763  0.6141  0.0873
17678TIP3   OH274448   1.107   3.347  11.414 -0.4242  0.1760  0.7446
17678TIP3    H174449   1.129   3.428  11.368  1.4916 -0.1374  1.0497
17678TIP3    H274450   1.107   3.279  11.346 -0.8116  0.2198  0.6959
17679TIP3   OH274451   5.654   3.194   6.350  0.3841  0.2350 -0.3362
17679TIP3    H174452   5.636   3.106   6.385  0.4810 -0.6602 -2.3976
17679TIP3    H274453   5.731   3.224   6.399  1.0153 -1.2918 -0.3342
17680TIP3   OH274454   5.820   1.252   2.921 -0.3442 -0.1786 -0.2348
17680TIP3    H174455   5.767   1.313   2.871 -0.1437 -0.7468 -1.1546
17680TIP3    H274456   5.808   1.280   3.012 -0.7795  0.8047 -0.5785
17681TIP3   OH274457   0.144   4.358  12.581 -0.2504  0.1392  0.2975
17681TIP3    H174458   0.196   4.339  12.660  1.4007 -3.1381 -1.3693
17681TIP3    H274459   0.079   4.288  12.579 -1.2036  1.0198 -0.5660
17682TIP3   OH274460   2.045   2.181   3.028  0.1321 -0.1212  0.1037
17682TIP3    H174461   2.031   2.094   3.064  1.6455 -0.9304 -1.1142
17682TIP3    H274462   2.116   2.169   2.965 -1.5099  1.4322 -2.1981
17683TIP3   OH274463   1.327   2.966  10.835 -0.5303 -0.2403  0.1886
17683TIP3    H174464   1.300   2.875  10.827  0.6095 -0.9093  2.9928
17683TIP3    H274465   1.319   2.986  10.928  0.9720  1.9666 -0.0764
17684TIP3   OH274466   4.851   1.003   4.605  0.0672  0.3829 -0.0290
17684TIP3    H174467   4.931   0.979   4.559  1.0093 -0.9450  2.1460
17684TIP3    H274468   4.782   0.955   4.560  0.6661  0.5401 -1.1536
17685TIP3   OH274469   5.474   0.958   3.310 -0.4033 -0.5933  0.1457
17685TIP3    H174470   5.466   0.977   3.403 -1.5507 -1.1156  0.1653
17685TIP3    H274471   5.522   1.033   3.275 -0.8777  0.1234  0.9859
17686TIP3   OH274472   4.078   1.304   2.432 -0.1712 -0.2841 -0.1588
17686TIP3    H174473   4.000   1.357   2.412  0.1140  0.3034  0.2645
17686TIP3    H274474   4.054   1.255   2.510  0.4648  1.1901  1.0097
17687TIP3   OH274475   0.459   2.954   3.531  0.3572 -0.5496  0.1885
17687TIP3    H174476   0.545   2.918   3.551  0.7916  0.7614  0.7435
17687TIP3    H274477   0.398   2.882   3.550  1.2082 -1.0265  1.1673
17688TIP3   OH274478   4.126   3.999   4.396  0.4070 -0.5136  0.8320
17688TIP3    H174479   4.100   3.966   4.482 -0.4421 -0.0396  0.7646
17688TIP3    H274480   4.046   4.038   4.360  0.5431 -1.3801 -0.4958
17689TIP3   OH274481   2.457   3.446   0.254  0.0313 -0.1322  0.2788
17689TIP3    H174482   2.452   3.413   0.344  0.4558 -0.6525  0.1226
17689TIP3    H274483   2.524   3.514   0.257  0.5662 -0.6453  0.2241
17690TIP3   OH274484   1.782   6.379   3.794  0.2667 -0.5247 -0.2889
17690TIP3    H174485   1.703   6.424   3.824  0.2393 -0.2523 -0.7516
17690TIP3    H274486   1.846   6.391   3.864  0.5749  1.0858 -0.8106
17691TIP3   OH274487   2.030   6.735   4.650 -0.0750  0.2028 -0.0674
17691TIP3    H174488   1.952   6.788   4.660  0.0384  0.7490 -1.7263
17691TIP3    H274489   2.099   6.797   4.626  0.3130 -0.5342 -0.9342
17692TIP3   OH274490   6.009   2.240  15.182  0.1838  0.4980 -0.0045
17692TIP3    H174491   5.947   2.203  15.120 -0.1449 -0.0387  0.6372
17692TIP3    H274492   5.959   2.307  15.229  0.4118  0.8533 -0.2627
17693TIP3   OH274493   3.994   2.038  13.585 -0.0425 -0.7675  0.5157
17693TIP3    H174494   4.067   1.999  13.538 -0.3005  0.9951 -1.5092
17693TIP3    H274495   3.944   1.963  13.618  1.6512 -2.0186  0.3737
17694TIP3   OH274496   1.548   1.074   4.269  0.3581 -0.1583  0.6559
17694TIP3    H174497   1.545   1.059   4.175  0.3589  1.3529  0.3881
17694TIP3    H274498   1.512   1.162   4.280  1.6763  0.2563  1.9297
17695TIP3   OH274499   5.211   0.560   0.879 -0.2004 -0.4063  0.2347
17695TIP3    H174500   5.221   0.535   0.787 -2.6134 -1.0042  0.0530
17695TIP3    H274501   5.241   0.484   0.929  1.8866  0.2215  0.0193
17696TIP3   OH274502   5.217   0.122   1.482 -0.4888  0.2193 -0.1917
17696TIP3    H174503   5.260   0.205   1.504 -0.6650  0.2501  0.0453
17696TIP3    H274504   5.124   0.145   1.475 -0.4812  0.1324 -0.5871
17697TIP3   OH274505   4.098   3.559  13.232  0.2498 -0.2953  0.1249
17697TIP3    H174506   4.092   3.474  13.187  1.2147 -0.2304 -0.1578
17697TIP3    H274507   4.010   3.597  13.223  0.1984 -0.6340 -1.0254
17698TIP3   OH274508   1.935   4.168  16.501  0.6383  0.8523  0.1103
17698TIP3    H174509   1.932   4.263  16.497  0.2406  0.7864 -2.8328
17698TIP3    H274510   1.844   4.141  16.509  0.7081  0.6864  0.3852
17699TIP3   OH274511   3.894   6.126  11.042  0.2494  0.1370 -0.3508
17699TIP3    H174512   3.971   6.181  11.060  1.2293 -1.1838 -0.3569
17699TIP3    H274513   3.919   6.039  11.074 -0.8403 -0.5514 -1.3204
17700TIP3   OH274514   6.329   4.127   5.006 -0.3062  0.2009 -0.2099
17700TIP3    H174515   6.397   4.162   4.949 -0.5817 -0.0857 -0.7310
17700TIP3    H274516   6.368   4.051   5.048 -0.1092  0.3972 -0.0386
17701TIP3   OH274517   4.881   3.433  14.175 -0.5119 -0.1376 -0.8413
17701TIP3    H174518   4.800   3.387  14.197 -0.7197  1.2267  1.5781
17701TIP3    H274519   4.948   3.365  14.176 -1.1059 -0.7453  0.7158
17702TIP3   OH274520   3.665   3.693   1.537 -0.1922 -0.3373  0.1049
17702TIP3    H174521   3.692   3.651   1.619  3.2500  1.9122  0.3316
17702TIP3    H274522   3.736   3.673   1.475 -1.5466 -0.0151 -1.6285
17703TIP3   OH274523   3.482   0.686   5.536  0.4700 -0.1220  0.1179
17703TIP3    H174524   3.539   0.731   5.473  1.5811 -1.5777  0.0237
17703TIP3    H274525   3.534   0.681   5.616  0.4265 -1.3224  0.0890
17704TIP3   OH274526   5.434   2.431  14.675 -0.1305 -0.5041  0.3586
17704TIP3    H174527   5.515   2.481  14.660 -0.2578 -0.4285 -0.0988
17704TIP3    H274528   5.405   2.406  14.587 -1.3844  0.7244  0.3879
17705TIP3   OH274529   2.964   4.267  13.176 -0.2855  0.2289  0.1802
17705TIP3    H174530   2.931   4.273  13.086 -0.4402 -0.7475  0.1612
17705TIP3    H274531   3.038   4.206  13.170 -0.7182 -0.3641  0.8297
17706TIP3   OH274532   2.968   0.025   2.883  0.5784  0.7262  1.0135
17706TIP3    H174533   2.924   0.103   2.849  1.1049  0.6384  0.0808
17706TIP3    H274534   3.061   0.043   2.873  0.7150 -0.4417 -0.3242
17707TIP3   OH274535   3.667   4.564  12.767 -0.3198  0.7259 -0.0486
17707TIP3    H174536   3.581   4.547  12.804 -0.6749 -0.6138 -1.3790
17707TIP3    H274537   3.727   4.560  12.841 -1.2449  0.2933  0.6888
17708TIP3   OH274538   0.761   5.220  15.962  0.6601  0.2352 -0.1576
17708TIP3    H174539   0.792   5.146  16.015  0.3156  1.0353  1.2202
17708TIP3    H274540   0.670   5.233  15.990  0.4073  0.5738 -1.0999
17709TIP3   OH274541   2.385   5.359   1.439 -0.2308 -0.8606 -0.2512
17709TIP3    H174542   2.407   5.297   1.509 -1.9059 -0.1156  1.0156
17709TIP3    H274543   2.466   5.371   1.390  0.6451 -2.4529  0.7279
17710TIP3   OH274544   1.303   4.597   3.263  0.0645 -0.3512 -0.0339
17710TIP3    H174545   1.277   4.514   3.223  0.0656 -0.3746  0.0146
17710TIP3    H274546   1.387   4.618   3.222 -0.4321  0.1520 -0.8251
17711TIP3   OH274547   6.461   5.066  17.096 -0.2767  0.8609 -0.7687
17711TIP3    H174548   6.393   5.019  17.144  1.2174 -2.0670 -1.2583
17711TIP3    H274549   6.413   5.123  17.035 -2.4285 -2.0848 -2.0848
17712TIP3   OH274550   6.427   1.653   0.614 -0.1110  0.0341  0.4143
17712TIP3    H174551   6.494   1.591   0.585 -0.1014  0.2493 -0.0301
17712TIP3    H274552   6.396   1.617   0.697  0.7368  0.0733  0.7583
17713TIP3   OH274553   5.046   4.458   3.375  0.4119 -0.2690  0.2327
17713TIP3    H174554   5.040   4.552   3.358  1.7506 -0.1127  0.5468
17713TIP3    H274555   4.955   4.431   3.393  0.1771  1.1769  1.3407
17714TIP3   OH274556   2.309   0.109   0.441  0.4822  0.5017  0.2868
17714TIP3    H174557   2.223   0.137   0.408  0.4732 -0.6630 -0.7525
17714TIP3    H274558   2.371   0.148   0.379  0.4871 -1.4300 -0.9832
17715TIP3   OH274559   6.535   1.887  13.858  0.3621 -0.7932 -0.0194
17715TIP3    H174560   6.539   1.864  13.766 -2.2056  0.8870 -0.6664
17715TIP3    H274561   6.468   1.828  13.894  2.5181 -2.6381  1.2965
17716TIP3   OH274562   2.961   6.287   3.204  0.4083 -0.0397  0.0086
17716TIP3    H174563   3.005   6.371   3.190  0.6110 -0.0136  0.7316
17716TIP3    H274564   2.898   6.281   3.133  2.4077 -0.6527 -1.7922
17717TIP3   OH274565   1.669   3.622  11.250 -0.3746 -0.6451 -0.0332
17717TIP3    H174566   1.602   3.559  11.275  0.0369 -0.5331  1.4314
17717TIP3    H274567   1.627   3.708  11.260  0.3222 -0.5003  2.1821
17718TIP3   OH274568   4.448   4.561  14.547  0.3856 -0.2210 -0.1807
17718TIP3    H174569   4.524   4.521  14.503 -0.8939 -1.0633 -1.7528
17718TIP3    H274570   4.373   4.512  14.513 -0.7660 -0.5627  2.6207
17719TIP3   OH274571   4.890   1.962   3.634  0.1021  0.0510  0.1608
17719TIP3    H174572   4.832   2.025   3.677  1.3687  0.1945  1.7646
17719TIP3    H274573   4.942   2.015   3.573 -0.4431  0.1538 -0.2204
17720TIP3   OH274574   1.456   1.775  11.237  0.6398 -0.4811 -0.2150
17720TIP3    H174575   1.406   1.842  11.190  0.8878 -0.7958 -0.9372
17720TIP3    H274576   1.390   1.725  11.285  0.4744  0.4503  0.5663
17721TIP3   OH274577   0.729   4.525   3.711 -0.2270  0.3996  0.0365
17721TIP3    H174578   0.746   4.510   3.618  0.4478  0.1153  0.1968
17721TIP3    H274579   0.696   4.441   3.743 -0.2237  0.4226  0.1018
17722TIP3   OH274580   6.231   2.207  14.738 -0.1289  0.1506  0.2702
17722TIP3    H174581   6.157   2.267  14.727  0.4650  0.8719  0.1074
17722TIP3    H274582   6.202   2.145  14.805 -0.2657  1.4444  1.4441
17723TIP3   OH274583   4.378   0.975   0.850 -0.3919  0.3440  0.2627
17723TIP3    H174584   4.287   0.948   0.856 -0.0436 -1.3832 -1.4717
17723TIP3    H274585   4.379   1.041   0.782 -0.1525 -0.7995 -0.8781
17724TIP3   OH274586   1.649   4.046   3.805 -0.7917  0.4149 -0.4422
17724TIP3    H174587   1.715   4.040   3.737 -0.2870 -0.7316  0.1171
17724TIP3    H274588   1.666   4.129   3.848  1.2599 -0.4847  0.6306
17725TIP3   OH274589   0.178   0.041   5.314 -0.2058 -0.1931  0.2591
17725TIP3    H174590   0.213   0.112   5.261  1.8901 -0.5003  1.1114
17725TIP3    H274591   0.144  -0.022   5.250  2.0453 -0.4517 -0.7881
17726TIP3   OH274592   1.833   3.439   3.233 -0.8122 -0.2978  0.6804
17726TIP3    H174593   1.849   3.441   3.139  0.5000  0.5040  0.8861
17726TIP3    H274594   1.783   3.519   3.250 -0.4571 -0.0890  0.7513
17727TIP3   OH274595   3.224   3.671   0.636 -0.3906 -0.3426 -0.4618
17727TIP3    H174596   3.181   3.589   0.662 -0.5037 -0.7867 -1.9500
17727TIP3    H274597   3.316   3.657   0.655 -0.3460 -0.9976 -1.1324
17728TIP3   OH274598   0.969   3.458   5.168  0.2804  0.2090  0.2595
17728TIP3    H174599   0.982   3.551   5.151 -0.6403  0.2088 -0.5480
17728TIP3    H274600   0.941   3.422   5.084  0.1155 -0.7026  0.6897
17729TIP3   OH274601   2.721   1.014   3.464 -0.4865 -0.0438 -0.2026
17729TIP3    H174602   2.666   0.974   3.532  1.1351 -1.6498  0.2231
17729TIP3    H274603   2.775   1.078   3.510  1.3125 -1.8295  0.2547
17730TIP3   OH274604   2.440   0.462  11.403 -0.2097  0.6858  0.2730
17730TIP3    H174605   2.408   0.453  11.313  0.8504  1.6814 -0.2209
17730TIP3    H274606   2.425   0.554  11.425 -0.1955  0.5184  1.0240
17731TIP3   OH274607   0.400   5.815   2.607  0.0649  0.7330 -0.0583
17731TIP3    H174608   0.319   5.766   2.592 -0.4188  1.4490  0.1579
17731TIP3    H274609   0.438   5.825   2.519  0.7620 -0.9916  0.0133
17732TIP3   OH274610   0.866   1.977  15.388  0.0994  0.3396 -0.3272
17732TIP3    H174611   0.839   2.068  15.375 -0.4384  0.2001 -0.1870
17732TIP3    H274612   0.912   1.954  15.307  1.6765  1.2491  0.2546
17733TIP3   OH274613   4.226   4.607  16.883  0.5998 -0.1164  0.3719
17733TIP3    H174614   4.264   4.520  16.869  1.5550  0.2239  0.7790
17733TIP3    H274615   4.301   4.665  16.892  0.0285  0.4121  2.3000
17734TIP3   OH274616   2.341   0.026   5.592 -0.6785  0.2257  0.0840
17734TIP3    H174617   2.305  -0.035   5.528 -2.8050  1.0134  0.4619
17734TIP3    H274618   2.358  -0.027   5.670 -0.9510 -0.1857 -0.1355
17735TIP3   OH274619   4.275   0.389  12.446  0.0258 -0.4111  0.5201
17735TIP3    H174620   4.275   0.301  12.407 -1.4457 -0.7460  1.2050
17735TIP3    H274621   4.184   0.406  12.468  0.4744  0.7247  1.6771
17736TIP3   OH274622   3.147   5.938   4.483 -0.1915 -0.1488  0.3082
17736TIP3    H174623   3.226   5.923   4.535  0.6023 -0.5720 -0.9836
17736TIP3    H274624   3.128   5.852   4.444  0.6673  0.6512 -2.0321
17737TIP3   OH274625   0.861   3.518  14.031  0.0866 -1.0360  0.0242
17737TIP3    H174626   0.771   3.524  13.997  0.9268 -1.0468 -2.3406
17737TIP3    H274627   0.917   3.542  13.958  2.0042  3.3952  2.5609
17738TIP3   OH274628   2.564   6.041  15.333 -0.0174 -0.2797  0.7296
17738TIP3    H174629   2.639   6.100  15.337  0.7931 -1.2605  0.4488
17738TIP3    H274630   2.508   6.079  15.264 -0.7482  1.4992  2.2081
17739TIP3   OH274631   5.882   1.589  16.467  0.6284  0.0937 -0.5984
17739TIP3    H174632   5.809   1.551  16.517  1.2900 -2.1256 -1.2308
17739TIP3    H274633   5.839   1.631  16.392 -0.2819  2.5420  1.1319
17740TIP3   OH274634   5.546   6.723   5.679 -0.5176 -0.2351  0.0352
17740TIP3    H174635   5.548   6.780   5.756  0.0045 -3.0226  2.2225
17740TIP3    H274636   5.636   6.691   5.670 -1.0120 -1.5765 -0.4230
17741TIP3   OH274637   3.886   4.472   4.691  0.0812 -0.5763  0.4306
17741TIP3    H174638   3.837   4.475   4.609 -1.3341 -2.3510  1.1339
17741TIP3    H274639   3.837   4.530   4.750  0.2279 -0.4775  0.4558
17742TIP3   OH274640   3.196   6.545   4.414 -0.1888  0.2330  0.5228
17742TIP3    H174641   3.215   6.631   4.377  0.5700 -0.3634 -0.5123
17742TIP3    H274642   3.263   6.487   4.377 -1.9310 -1.2466 -0.5292
17743TIP3   OH274643   5.240   2.657   3.554  0.2454 -0.0446  0.5677
17743TIP3    H174644   5.267   2.700   3.473  0.3791  0.2752  0.7826
17743TIP3    H274645   5.310   2.676   3.616 -0.2552  0.4170  1.0003
17744TIP3   OH274646   2.652   1.990  14.029  0.2278 -0.0528 -0.2423
17744TIP3    H174647   2.711   1.959  13.960  1.5680 -0.2950  0.9611
17744TIP3    H274648   2.683   1.946  14.108 -0.2883  1.3953  0.8040
17745TIP3   OH274649   4.809   5.437   3.413  0.5484  0.2055  0.6978
17745TIP3    H174650   4.796   5.521   3.457  0.2759  0.0069  1.0026
17745TIP3    H274651   4.903   5.419   3.422  1.1078  1.6753 -1.5555
17746TIP3   OH274652   4.171   5.745  12.302  0.7221  0.0991  0.1065
17746TIP3    H174653   4.139   5.815  12.360  1.3230 -1.1669  2.0883
17746TIP3    H274654   4.251   5.781  12.263  0.2755  1.0072  0.0133
17747TIP3   OH274655   2.708   0.586  14.217  0.2973 -0.0075 -0.4794
17747TIP3    H174656   2.661   0.647  14.159 -0.7869 -0.1332  0.2372
17747TIP3    H274657   2.737   0.516  14.158 -1.6566 -0.6458 -0.7770
17748TIP3   OH274658   6.158   4.296  11.311 -0.0256  0.7583  0.1042
17748TIP3    H174659   6.104   4.220  11.290  0.6584 -0.2353  1.8194
17748TIP3    H274660   6.133   4.361  11.245 -0.7756 -0.8522 -1.2830
17749TIP3   OH274661   4.571   3.873   0.824 -0.2560 -0.3272  0.1669
17749TIP3    H174662   4.493   3.901   0.775 -0.1969  0.7335  0.6561
17749TIP3    H274663   4.588   3.784   0.793 -1.5256 -0.4927 -0.1234
17750TIP3   OH274664   6.760   2.071  10.778 -0.2977 -1.0761 -0.1070
17750TIP3    H174665   6.773   2.162  10.752 -0.7487 -0.7099  0.8975
17750TIP3    H274666   6.722   2.029  10.701  1.9184 -0.9630 -1.3490
17751TIP3   OH274667   3.703   0.898   5.679 -0.3969  0.3428  0.3158
17751TIP3    H174668   3.637   0.880   5.746  0.7708  0.7892  1.6437
17751TIP3    H274669   3.739   0.984   5.703  0.9158 -0.0458 -0.1371
17752TIP3   OH274670   0.127   6.616   3.966 -0.2063 -0.0156  0.0449
17752TIP3    H174671   0.069   6.545   3.939  0.2336 -0.7940  1.0623
17752TIP3    H274672   0.215   6.582   3.952  0.0289  1.0604 -1.2442
17753TIP3   OH274673   0.118   2.572   4.572  0.2675  0.0374  0.2459
17753TIP3    H174674   0.192   2.632   4.572  0.1533  0.1882 -0.7984
17753TIP3    H274675   0.043   2.626   4.596  0.0593  0.4805 -1.2752
17754TIP3   OH274676   0.306   4.277  15.949 -0.4021  0.4442  0.0318
17754TIP3    H174677   0.237   4.225  15.990 -0.2523 -0.1488 -0.4611
17754TIP3    H274678   0.271   4.366  15.949 -0.7998  0.2962  0.5811
17755TIP3   OH274679   0.177   2.782  15.211 -0.2094  0.1728  0.4252
17755TIP3    H174680   0.233   2.717  15.169 -0.6813 -0.6432  1.0341
17755TIP3    H274681   0.238   2.843  15.253  0.2393  0.2783 -0.3561
17756TIP3   OH274682   2.058   0.134   3.747  0.1569 -0.1561 -0.2336
17756TIP3    H174683   2.048   0.097   3.659 -2.2390 -1.0739  0.3406
17756TIP3    H274684   2.117   0.074   3.792 -0.7791 -1.2595 -0.4300
17757TIP3   OH274685   6.482   4.378  15.971 -0.0877  0.1097  0.1169
17757TIP3    H174686   6.450   4.441  15.905  1.8400 -1.5357 -2.5579
17757TIP3    H274687   6.506   4.433  16.045  1.3215  2.5957 -2.0061
17758TIP3   OH274688   3.180   2.080   0.551 -0.1397 -0.2092 -0.1287
17758TIP3    H174689   3.095   2.078   0.506 -1.5428 -0.6833  2.3604
17758TIP3    H274690   3.194   2.172   0.572 -1.3016 -0.3809  1.5825
17759TIP3   OH274691   5.790   3.028  12.560  0.2748  0.5856  0.1329
17759TIP3    H174692   5.820   3.119  12.563  1.7992  0.1148  0.0171
17759TIP3    H274693   5.840   2.983  12.629  1.7932 -0.7452 -1.6961
17760TIP3   OH274694   3.361   6.211   3.003 -0.0430  0.2916  0.4038
17760TIP3    H174695   3.311   6.129   3.013  1.0461 -0.9692 -3.0003
17760TIP3    H274696   3.295   6.277   2.983 -0.7319 -0.3269  0.5919
17761TIP3   OH274697   4.648   5.194  17.141  0.4153  0.4981  0.0895
17761TIP3    H174698   4.732   5.220  17.103  0.0891  2.3296  0.5310
17761TIP3    H274699   4.670   5.122  17.200  1.3315 -0.5146 -1.4245
17762TIP3   OH274700   2.551   0.945   1.030  0.3313  0.1882  0.4197
17762TIP3    H174701   2.628   1.000   1.014 -0.8700  1.0155 -3.4469
17762TIP3    H274702   2.575   0.859   0.997  0.0460  0.0987  0.4398
17763TIP3   OH274703   3.498   4.095   3.897 -0.2576 -0.9686  0.4844
17763TIP3    H174704   3.540   4.179   3.880  1.2925 -1.9750 -0.9820
17763TIP3    H274705   3.427   4.091   3.834 -0.8867 -0.4147  1.1409
17764TIP3   OH274706   5.909   1.551   6.000  0.2111  0.0576  0.2344
17764TIP3    H174707   5.859   1.588   6.073 -1.4760  1.2961 -1.4511
17764TIP3    H274708   5.886   1.458   6.000  0.8402 -0.1239  1.7119
17765TIP3   OH274709   1.476   5.526   3.523  0.1830 -0.4900 -0.0521
17765TIP3    H174710   1.559   5.517   3.475 -1.2397 -2.5315 -2.3604
17765TIP3    H274711   1.424   5.586   3.469 -0.0711  0.3590  1.1021
17766TIP3   OH274712   3.829   6.171   2.862 -0.9084 -0.0927  0.0511
17766TIP3    H174713   3.813   6.100   2.800  0.0984  0.4897 -0.9180
17766TIP3    H274714   3.889   6.134   2.927 -2.5077 -0.9130  1.1070
17767TIP3   OH274715   0.577   2.047   1.817  0.1461  0.0736  0.3029
17767TIP3    H174716   0.565   2.123   1.873  0.4696  0.8504 -0.6449
17767TIP3    H274717   0.667   2.018   1.835 -1.3332 -3.0131  4.1023
17768TIP3   OH274718   0.331   1.509   5.647  0.4829 -0.3395  0.4980
17768TIP3    H174719   0.397   1.507   5.717  0.5918 -0.2771  0.3984
17768TIP3    H274720   0.304   1.418   5.638 -1.0943 -0.0795  2.0817
17769TIP3   OH274721   6.706   3.516   2.323  0.3769  0.7008  0.6954
17769TIP3    H174722   6.685   3.423   2.333  0.9831  0.3443 -1.0703
17769TIP3    H274723   6.620   3.559   2.317  0.0993  0.1149  0.3768
17770TIP3   OH274724   2.124   6.422   5.590  0.1067 -0.0237 -0.0448
17770TIP3    H174725   2.168   6.358   5.534 -0.2788  0.1923 -0.6139
17770TIP3    H274726   2.115   6.378   5.675 -0.9258 -1.0744 -0.6554
17771TIP3   OH274727   6.063   5.626  16.303  0.5049 -0.3705  0.1619
17771TIP3    H174728   6.028   5.636  16.391 -0.2729 -0.3415 -0.1406
17771TIP3    H274729   5.995   5.578  16.255  1.6506 -1.9048  0.0186
17772TIP3   OH274730   2.876   4.279   3.961 -0.5399 -0.3198 -0.1413
17772TIP3    H174731   2.878   4.373   3.942  0.6275 -0.5909 -1.4976
17772TIP3    H274732   2.783   4.256   3.958 -1.1180  1.2214  2.7287
17773TIP3   OH274733   5.973   6.343   1.084 -0.3988  0.0775  0.0974
17773TIP3    H174734   6.040   6.292   1.037 -0.2984  1.4411 -1.3165
17773TIP3    H274735   6.024   6.402   1.140 -0.4853 -0.2609  0.5417
17774TIP3   OH274736   4.105   0.733  15.207  0.3161  0.0743 -0.2265
17774TIP3    H174737   4.054   0.808  15.174 -0.1576 -0.4930 -0.8130
17774TIP3    H274738   4.178   0.773  15.254 -1.3743  0.9327  1.8342
17775TIP3   OH274739   1.032   1.548   5.702  0.3589  0.3002  0.5353
17775TIP3    H174740   1.081   1.534   5.783  0.0193  0.8288  0.8400
17775TIP3    H274741   0.960   1.485   5.706  2.2272 -2.1154 -0.9846
17776TIP3   OH274742   1.301   1.302   5.707  0.2255  0.6365  0.0047
17776TIP3    H174743   1.305   1.360   5.784 -3.1227 -1.5564  2.0862
17776TIP3    H274744   1.362   1.231   5.729  1.0615  1.1696 -0.5357
17777TIP3   OH274745   3.636   1.323   3.039 -0.3325 -0.8735 -0.2172
17777TIP3    H174746   3.615   1.300   2.948 -0.0898 -1.6992 -0.0729
17777TIP3    H274747   3.579   1.266   3.092 -1.2213  0.3295  0.1557
17778TIP3   OH274748   3.424   0.107  12.664  0.0466 -0.1443 -0.4914
17778TIP3    H174749   3.418   0.195  12.701  2.2829  0.5376 -1.5599
17778TIP3    H274750   3.334   0.084  12.641 -0.4065  2.7166 -2.0130
17779TIP3   OH274751   3.544   0.028   2.119 -0.4674  0.2084 -0.3196
17779TIP3    H174752   3.504   0.114   2.107 -0.0868  0.6230  1.1409
17779TIP3    H274753   3.475  -0.034   2.096 -1.4080  0.9165  0.4817
17780TIP3   OH274754   2.632   3.433   3.068 -0.0824  0.6665  0.2076
17780TIP3    H174755   2.650   3.388   3.151 -0.5672  0.1108  0.0215
17780TIP3    H274756   2.585   3.368   3.016  1.0457  0.6825 -0.8693
17781TIP3   OH274757   2.261   4.805  17.096 -0.5988  0.1654 -0.2872
17781TIP3    H174758   2.237   4.843  17.011 -0.4979  0.8812 -0.0033
17781TIP3    H274759   2.324   4.736  17.075 -0.4166  0.4767 -0.7789
17782TIP3   OH274760   3.867   5.140  11.441 -0.5368 -0.6509 -0.6396
17782TIP3    H174761   3.903   5.113  11.357 -0.7932 -1.7656 -0.4042
17782TIP3    H274762   3.937   5.122  11.504  0.6215  2.4346 -0.8498
17783TIP3   OH274763   1.614   5.558  14.368 -0.1230  0.2706  0.2341
17783TIP3    H174764   1.700   5.595  14.387  0.7569 -0.8355 -1.3771
17783TIP3    H274765   1.557   5.595  14.435  1.8305  0.0989  2.1149
17784TIP3   OH274766   0.978   4.477  15.512  0.1783 -0.0398 -0.0909
17784TIP3    H174767   0.978   4.546  15.445 -1.4298 -1.3931 -1.5798
17784TIP3    H274768   0.919   4.511  15.580 -2.7216 -0.8894 -2.0029
17785TIP3   OH274769   3.936   4.077  12.223 -0.1167 -0.5055 -0.1661
17785TIP3    H174770   3.903   4.014  12.159 -0.4642  1.4375 -1.9956
17785TIP3    H274771   4.007   4.031  12.268  1.1366 -1.4781 -2.9677
17786TIP3   OH274772   1.628   5.531  13.988  0.7202 -0.2388  0.8415
17786TIP3    H174773   1.708   5.578  13.965  0.3727  0.0745  0.2709
17786TIP3    H274774   1.562   5.599  13.999  0.4334 -0.5288  0.9282
17787TIP3   OH274775   4.329   6.598   5.987  0.1650 -0.1117 -0.1933
17787TIP3    H174776   4.328   6.652   5.908  2.5912 -0.2113 -0.3704
17787TIP3    H274777   4.419   6.604   6.018 -0.9360  0.9773  3.3135
17788TIP3   OH274778   0.399   2.156  14.815 -0.3238 -0.3570 -0.3453
17788TIP3    H174779   0.372   2.182  14.727  0.4498 -0.3239 -0.5854
17788TIP3    H274780   0.447   2.074  14.801 -0.2341 -0.3725  0.0553
17789TIP3   OH274781   0.127   5.463   1.810  0.1263 -0.5731  0.3988
17789TIP3    H174782   0.155   5.543   1.854  2.0141 -0.7085 -0.4559
17789TIP3    H274783   0.209   5.417   1.790 -0.7176 -1.2519 -1.8241
17790TIP3   OH274784   2.072   1.514   6.708 -0.2318  0.5201 -0.8212
17790TIP3    H174785   2.008   1.447   6.682 -0.2401 -0.1103  0.7029
17790TIP3    H274786   2.131   1.468   6.768 -0.4664  1.9598  0.5708
17791TIP3   OH274787   0.795   0.857  12.580  0.3339  0.4648 -0.2359
17791TIP3    H174788   0.742   0.936  12.574  1.4784  1.2469 -0.3621
17791TIP3    H274789   0.883   0.885  12.556  1.1947 -0.3927  1.6949
17792TIP3   OH274790   6.236   0.728   3.058 -0.1264  0.4719  0.6802
17792TIP3    H174791   6.287   0.674   2.997 -1.3099  0.4973 -0.3640
17792TIP3    H274792   6.202   0.799   3.004 -0.3923  1.0414  1.5889
17793TIP3   OH274793   0.449   5.360  15.660  0.5809 -0.0755  0.1060
17793TIP3    H174794   0.463   5.266  15.659  1.0673 -0.0537  1.8927
17793TIP3    H274795   0.365   5.373  15.616 -0.2985 -1.4930  1.3223
17794TIP3   OH274796   3.758   3.317  13.678 -0.1296  0.4802 -0.4414
17794TIP3    H174797   3.712   3.319  13.762  0.8426  0.4665  0.1028
17794TIP3    H274798   3.850   3.316  13.702  0.1888 -2.4847 -1.4351
17795TIP3   OH274799   6.649   3.685  11.565 -0.0777 -0.5529  0.1949
17795TIP3    H174800   6.590   3.652  11.497  0.6283  0.1051 -0.7669
17795TIP3    H274801   6.596   3.748  11.613 -0.3565 -0.4398 -0.2482
17796TIP3   OH274802   6.316   3.040  13.493 -0.5573  0.0826 -0.0942
17796TIP3    H174803   6.357   2.992  13.421  0.5608 -1.7958  1.7042
17796TIP3    H274804   6.227   3.006  13.497 -0.1790 -0.8863  0.3108
17797TIP3   OH274805   4.009   2.994  15.902 -0.0952 -0.1810  0.5136
17797TIP3    H174806   3.944   3.064  15.899 -0.4160 -0.4946  0.0896
17797TIP3    H274807   3.961   2.917  15.931  0.3174 -0.1683  1.2476
17798TIP3   OH274808   5.988   5.808   4.553 -0.3629 -0.4920  0.3692
17798TIP3    H174809   5.899   5.779   4.532 -1.2222  0.3440  2.5450
17798TIP3    H274810   5.975   5.880   4.615  1.7924  1.3388 -1.1444
17799TIP3   OH274811   2.996   4.686  13.662 -0.0149 -0.2348  0.0717
17799TIP3    H174812   2.931   4.748  13.694  1.0333 -0.3001  2.5024
17799TIP3    H274813   2.955   4.600  13.672  0.2399 -0.2400  1.1232
17800TIP3   OH274814   5.458   4.062   4.180  0.1618  0.2955  0.3509
17800TIP3    H174815   5.516   4.056   4.256  1.1816 -1.6170 -0.4893
17800TIP3    H274816   5.478   3.983   4.129  0.2006  1.9511 -2.3878
17801TIP3   OH274817   5.186   0.019  11.847  0.2816 -0.4039  0.7505
17801TIP3    H174818   5.273  -0.015  11.869  1.2594  1.6041  0.2297
17801TIP3    H274819   5.195   0.051  11.758 -0.6208  0.9858  1.1297
17802TIP3   OH274820   2.486   4.199  12.592  0.1704  0.3383  0.3897
17802TIP3    H174821   2.483   4.106  12.567  2.6419  0.1453  0.6044
17802TIP3    H274822   2.431   4.204  12.670 -1.3464 -0.5859 -0.5587
17803TIP3   OH274823   3.391   0.799  13.994  0.4436 -0.6099 -0.7406
17803TIP3    H174824   3.401   0.706  13.975 -0.1882 -1.1016  1.1878
17803TIP3    H274825   3.315   0.805  14.051  0.9635  0.9994 -0.1476
17804TIP3   OH274826   2.223   3.315  11.469 -0.1475  0.5728 -0.1314
17804TIP3    H174827   2.285   3.288  11.537  0.3626  0.2548 -0.7120
17804TIP3    H274828   2.262   3.284  11.387 -0.0605  2.1432 -0.7254
17805TIP3   OH274829   2.843   5.878   3.416  0.8447 -0.5701  0.7317
17805TIP3    H174830   2.794   5.856   3.495  2.1088 -3.2572  0.8968
17805TIP3    H274831   2.836   5.800   3.361  2.8464 -0.1082 -0.2878
17806TIP3   OH274832   5.428   2.908  11.557 -0.5769 -0.4694  0.6492
17806TIP3    H174833   5.405   2.859  11.478  0.0042 -0.3178  0.3799
17806TIP3    H274834   5.480   2.846  11.610  0.8095  0.0622 -0.0328
17807TIP3   OH274835   0.100   0.893   5.822 -0.2790 -0.3931 -0.7248
17807TIP3    H174836   0.047   0.828   5.775 -0.2343 -1.6703  0.9199
17807TIP3    H274837   0.076   0.883   5.914  1.2873  0.4655 -0.1819
17808TIP3   OH274838   5.865   2.065   5.605 -0.5466 -0.2140 -0.1099
17808TIP3    H174839   5.829   2.083   5.692 -1.1992 -0.7948 -0.2475
17808TIP3    H274840   5.920   1.988   5.617 -0.0251  0.1622 -0.0675
17809TIP3   OH274841   3.756   6.479   3.564 -0.0726  0.0602  0.7358
17809TIP3    H174842   3.669   6.467   3.526  0.5218  0.0776 -0.6888
17809TIP3    H274843   3.817   6.458   3.493  1.0908  0.6846  1.5036
17810TIP3   OH274844   2.218   4.109   1.558 -0.8259 -0.4309  0.4558
17810TIP3    H174845   2.313   4.118   1.572 -0.7171  0.3808 -0.6405
17810TIP3    H274846   2.183   4.092   1.645  0.0900  1.5036  1.2718
17811TIP3   OH274847   0.473   1.445   6.071  0.3530 -0.6924  0.0558
17811TIP3    H174848   0.448   1.407   6.155  1.7539  0.6085  1.1212
17811TIP3    H274849   0.475   1.539   6.087 -2.0777 -0.1455 -2.2321
17812TIP3   OH274850   2.414   3.727  12.975  0.0239  0.1125  0.4566
17812TIP3    H174851   2.375   3.790  13.037 -1.3910 -1.1838  0.9457
17812TIP3    H274852   2.356   3.651  12.978  0.7449 -0.5741 -1.3896
17813TIP3   OH274853   0.987   0.778  14.978  0.1646  0.1840  0.3900
17813TIP3    H174854   0.902   0.733  14.983 -0.1647  0.4216 -1.7893
17813TIP3    H274855   0.975   0.859  15.027 -0.8447  0.1699  0.1812
17814TIP3   OH274856   0.744   4.479  12.079  0.4215  0.0468  0.2878
17814TIP3    H174857   0.804   4.534  12.129  1.3335  1.0430 -1.7918
17814TIP3    H274858   0.725   4.406  12.137  3.0326  0.0816  1.3313
17815TIP3   OH274859   6.550   4.948   1.474  0.0263  0.4075  0.6600
17815TIP3    H174860   6.623   4.944   1.412  1.7476  0.6661  2.5552
17815TIP3    H274861   6.474   4.919   1.424  1.8423 -2.2058 -0.7926
17816TIP3   OH274862   2.048   2.214  16.588 -0.2654  0.2552  0.0949
17816TIP3    H174863   2.023   2.123  16.604 -0.7051  0.3680  0.0753
17816TIP3    H274864   2.072   2.216  16.495  3.0862 -0.5831  0.8244
17817TIP3   OH274865   4.861   6.628   3.329 -0.6377 -0.1614 -0.0107
17817TIP3    H174866   4.788   6.608   3.387  0.8349  0.1513  2.0878
17817TIP3    H274867   4.884   6.719   3.351  0.5660 -0.3578 -0.3844
17818TIP3   OH274868   2.725   4.170  16.070 -0.2105 -0.1492 -0.0320
17818TIP3    H174869   2.754   4.257  16.040 -0.2289  0.0401  0.4855
17818TIP3    H274870   2.776   4.109  16.017 -0.7085  0.1715 -0.8948
17819TIP3   OH274871   5.249   1.488  13.857 -0.1385  0.2782  0.3212
17819TIP3    H174872   5.323   1.510  13.801 -0.2409 -0.1313  0.0182
17819TIP3    H274873   5.190   1.437  13.800 -1.1341  1.4439  0.2572
17820TIP3   OH274874   2.170   6.497   1.968  0.2691 -0.1983  0.3056
17820TIP3    H174875   2.116   6.523   2.043  1.3511  1.3173  0.6114
17820TIP3    H274876   2.160   6.402   1.963 -2.2543  0.0108  0.4381
17821TIP3   OH274877   1.146   5.007  15.845 -0.3392  0.6626  0.2170
17821TIP3    H174878   1.078   4.979  15.784  0.1381  0.0035 -0.0224
17821TIP3    H274879   1.104   5.001  15.931 -0.5018  0.0062  0.0950
17822TIP3   OH274880   2.917   2.432  17.101  0.1525 -0.2908 -0.1397
17822TIP3    H174881   2.998   2.461  17.059  0.0908  0.1177  0.0256
17822TIP3    H274882   2.901   2.495  17.170  0.1784 -0.8880  0.4186
17823TIP3   OH274883   6.493   6.166   0.451 -0.1376 -0.1778 -0.5228
17823TIP3    H174884   6.532   6.200   0.371  0.6814  0.1610  0.0038
17823TIP3    H274885   6.462   6.243   0.497  0.0079 -0.3026 -0.2072
17824TIP3   OH274886   6.681   6.237   2.766  0.6262  0.4251  1.0055
17824TIP3    H174887   6.770   6.207   2.783  0.7189  0.3516  0.4237
17824TIP3    H274888   6.628   6.158   2.774  0.8033  0.1773 -0.0071
17825TIP3   OH274889   0.019   2.838   2.180  0.4182 -0.2217 -0.4410
17825TIP3    H174890   0.087   2.810   2.119  1.8901  2.5229 -0.2167
17825TIP3    H274891  -0.044   2.886   2.126  0.5702  0.3352 -0.1294
17826TIP3   OH274892   0.047   3.992  15.137 -0.0464  0.1718 -0.0883
17826TIP3    H174893   0.113   4.046  15.181  0.4507  0.7107 -1.4330
17826TIP3    H274894   0.017   3.931  15.204  0.2645  1.3282  1.1366
17827TIP3   OH274895   4.615   3.562  12.497  0.0293  0.2618 -0.2560
17827TIP3    H174896   4.543   3.624  12.481 -0.9620 -0.7243  0.2538
17827TIP3    H274897   4.677   3.578  12.426 -1.3432  0.1970 -1.5160
17828TIP3   OH274898   2.807   4.945   6.253  0.5500 -0.2320 -0.8207
17828TIP3    H174899   2.885   4.969   6.303  0.4315  0.0052 -0.7512
17828TIP3    H274900   2.736   4.947   6.317 -0.1027  2.7609 -1.5199
17829TIP3   OH274901   5.372   4.018   4.556  0.0578 -0.2991 -0.3108
17829TIP3    H174902   5.340   3.928   4.565  0.8239 -0.4846  0.7005
17829TIP3    H274903   5.357   4.058   4.641  1.3019 -0.0030 -0.2037
17830TIP3   OH274904   0.272   2.944  13.861  0.0306 -0.1100  0.0242
17830TIP3    H174905   0.352   2.984  13.895  0.3327 -0.1486 -0.6159
17830TIP3    H274906   0.201   2.997  13.896  0.3726  0.3188  0.0672
17831TIP3   OH274907   0.115   1.645   1.867  1.0694 -0.6570  0.2393
17831TIP3    H174908   0.065   1.727   1.867  1.0482 -0.5900 -2.4844
17831TIP3    H274909   0.086   1.600   1.946 -1.2440  0.6009  0.1943
17832TIP3   OH274910   3.962   0.799  11.272  0.1594  0.3181  0.3278
17832TIP3    H174911   4.027   0.846  11.323  1.3165 -1.2645  0.4030
17832TIP3    H274912   4.012   0.730  11.228 -1.3449 -0.4599 -0.2309
17833TIP3   OH274913   2.043   2.106  13.259  0.0617 -0.0869  0.3858
17833TIP3    H174914   2.011   2.138  13.175  2.4650  1.8355  0.0678
17833TIP3    H274915   1.987   2.150  13.324  0.5022  1.3840 -0.1810
17834TIP3   OH274916   4.558   6.285  13.261  0.4118 -0.2633 -0.0492
17834TIP3    H174917   4.620   6.344  13.303  1.8575 -2.0726  0.4770
17834TIP3    H274918   4.607   6.247  13.188 -1.6508  1.8880 -2.7731
17835TIP3   OH274919   4.999   0.980  16.887  0.2042  0.4911 -0.7283
17835TIP3    H174920   4.937   1.049  16.864 -1.7007 -1.8348 -3.2739
17835TIP3    H274921   5.023   0.940  16.803  2.4489 -0.9758  0.4942
17836TIP3   OH274922   2.765   5.190   6.089 -0.5139  0.7403  0.1203
17836TIP3    H174923   2.850   5.227   6.114  0.9994 -0.8321 -2.2989
17836TIP3    H274924   2.754   5.113   6.145 -1.0672  1.6886  1.3765
17837TIP3   OH274925   4.859   3.057  11.376  0.4285 -0.3521  0.3509
17837TIP3    H174926   4.803   3.001  11.321  2.0571 -0.9421 -0.7793
17837TIP3    H274927   4.833   3.146  11.354 -0.0712 -0.6139 -0.1401
17838TIP3   OH274928   0.191   6.316   6.299  0.4607  0.1735 -0.5882
17838TIP3    H174929   0.249   6.390   6.312 -0.1774  0.5897 -0.0504
17838TIP3    H274930   0.104   6.348   6.324  0.2233 -0.8442 -0.0411
17839TIP3   OH274931   5.698   4.983   0.348 -0.0071  0.3380  0.3179
17839TIP3    H174932   5.684   5.041   0.273 -1.0814  1.1453  1.1114
17839TIP3    H274933   5.733   5.040   0.417 -0.3368 -0.1073  0.8617
17840TIP3   OH274934   4.664   6.607  12.560  0.0198  1.0583 -0.2407
17840TIP3    H174935   4.617   6.540  12.610  1.6483  0.4388  0.5631
17840TIP3    H274936   4.663   6.685  12.617 -2.7565  2.1364 -1.6059
17841TIP3   OH274937   1.117   4.494  14.830 -0.1371  0.6329 -0.7898
17841TIP3    H174938   1.197   4.545  14.838  0.5342 -0.2147 -1.8966
17841TIP3    H274939   1.068   4.536  14.760  0.2044  0.0537 -1.3858
17842TIP3   OH274940   4.417   1.525   1.027 -0.2148  0.1720 -0.1218
17842TIP3    H174941   4.444   1.612   1.056  0.2377  0.2303 -0.6997
17842TIP3    H274942   4.487   1.467   1.060 -0.3873  0.0587  0.0478
17843TIP3   OH274943   0.113   6.025  15.323  0.3136 -0.3924  0.4575
17843TIP3    H174944   0.192   6.013  15.270 -0.6980 -3.6516 -0.5417
17843TIP3    H274945   0.087   6.115  15.308  1.5259 -0.4425 -2.5619
17844TIP3   OH274946   0.973   2.156  11.843 -0.5332  0.0577 -0.0821
17844TIP3    H174947   1.000   2.243  11.811  0.5299  0.2128  1.1478
17844TIP3    H274948   0.931   2.174  11.927 -0.6287 -0.6020  0.0125
17845TIP3   OH274949   2.706   5.394   3.506  0.4132  0.2087  0.3446
17845TIP3    H174950   2.738   5.378   3.595  1.2798 -0.3970 -0.0584
17845TIP3    H274951   2.611   5.383   3.512  0.2677  1.7203  1.5118
17846TIP3   OH274952   3.556   3.715  14.836  0.2054  0.4257 -0.2381
17846TIP3    H174953   3.495   3.641  14.826  0.8217 -0.2828  1.0355
17846TIP3    H274954   3.506   3.791  14.807 -0.6098 -0.4148 -1.1221
17847TIP3   OH274955   1.953   3.497   6.396  0.0620 -0.4623 -0.4136
17847TIP3    H174956   2.005   3.546   6.332  0.9529  0.1580  0.7438
17847TIP3    H274957   1.963   3.546   6.478 -0.8277 -1.3811  0.2805
17848TIP3   OH274958   5.451   0.639  15.483 -0.1010 -0.9243  0.7362
17848TIP3    H174959   5.436   0.724  15.442 -0.8498 -0.5044  1.8066
17848TIP3    H274960   5.484   0.661  15.570 -1.0601 -1.6833  1.3202
17849TIP3   OH274961   0.916   4.964  13.721 -0.0805 -1.1181  0.2198
17849TIP3    H174962   0.872   5.048  13.734  0.0752 -1.2499  1.7887
17849TIP3    H274963   0.905   4.946  13.628 -1.4512 -0.0967  0.1394
17850TIP3   OH274964   3.916   5.269  16.521 -0.1055  0.6394  0.1808
17850TIP3    H174965   3.828   5.251  16.490  0.8584  1.2107 -3.2879
17850TIP3    H274966   3.918   5.364  16.533  0.2929  0.7547 -0.7387
17851TIP3   OH274967   0.597   2.261   4.717 -0.3095 -0.1992  0.0491
17851TIP3    H174968   0.523   2.207   4.690 -0.5415  0.9563 -1.7931
17851TIP3    H274969   0.556   2.340   4.754  0.0008  0.0789 -0.1968
17852TIP3   OH274970   3.541   2.668  12.133  0.4799  0.2997 -0.0834
17852TIP3    H174971   3.620   2.704  12.093 -0.3762  0.5915 -1.5493
17852TIP3    H274972   3.472   2.731  12.114 -0.3448 -0.4717  0.2408
17853TIP3   OH274973   4.438   2.588  13.337 -0.2441  0.2517 -0.2388
17853TIP3    H174974   4.468   2.525  13.271  0.0687  1.5726 -1.3967
17853TIP3    H274975   4.372   2.641  13.292 -0.9089  0.4103  0.8861
17854TIP3   OH274976   4.181   1.492  11.623 -0.7164 -0.2343 -0.1344
17854TIP3    H174977   4.262   1.473  11.576 -0.9378 -2.0872  0.1565
17854TIP3    H274978   4.113   1.492  11.555 -0.5269  1.1822 -0.3581
17855TIP3   OH274979   0.529   2.139   1.544 -0.2197  0.7150  0.6799
17855TIP3    H174980   0.595   2.086   1.588 -0.6600  1.6488  2.5648
17855TIP3    H274981   0.574   2.174   1.467  1.6823  1.6999  2.1434
17856TIP3   OH274982   6.414   2.919  15.689 -0.0655  0.0854  0.2523
17856TIP3    H174983   6.493   2.865  15.690  0.2230  0.4459 -1.0364
17856TIP3    H274984   6.430   2.983  15.620 -1.2655  0.5058  0.3428
17857TIP3   OH274985   3.038   2.621  11.383 -0.4586 -0.2043  0.3731
17857TIP3    H174986   2.987   2.694  11.347 -1.2745 -1.4796 -1.1521
17857TIP3    H274987   2.982   2.544  11.372  0.7406 -1.2326  1.1247
17858TIP3   OH274988   4.880   3.676  14.053 -0.3707 -0.6794 -0.2028
17858TIP3    H174989   4.868   3.594  14.100 -1.4570 -0.9614 -0.9345
17858TIP3    H274990   4.959   3.664  14.001 -0.1627 -1.0123  0.1889
17859TIP3   OH274991   1.760   6.464   0.246 -0.2387  0.2255 -0.1054
17859TIP3    H174992   1.782   6.449   0.338  0.1094  1.1841 -0.0170
17859TIP3    H274993   1.770   6.559   0.234 -1.1125  0.2369 -0.9174
17860TIP3   OH274994   4.978   0.161  12.887 -0.3294 -0.2350 -0.0391
17860TIP3    H174995   4.935   0.116  12.960 -0.6824  0.4900  0.2165
17860TIP3    H274996   5.057   0.198  12.926 -0.2287 -0.3273 -0.1572
17861TIP3   OH274997   3.701   6.297  12.417  0.3687 -0.3108 -0.2758
17861TIP3    H174998   3.638   6.226  12.407 -1.7427  1.0355  2.2923
17861TIP3    H274999   3.668   6.367  12.361 -0.1026  0.1526  0.5542
17862TIP3   OH275000   1.552   4.198  15.139  0.4848 -0.0633  0.1963
17862TIP3    H175001   1.546   4.269  15.075 -0.4148 -0.1102  0.2222
17862TIP3    H275002   1.541   4.240  15.224  0.0178 -0.2216  0.2158
17863TIP3   OH275003   0.454   0.684  10.683  0.5621  0.5988 -0.9795
17863TIP3    H175004   0.484   0.613  10.740 -1.0276  0.7184  0.0693
17863TIP3    H275005   0.466   0.763  10.736 -0.8148  0.7251 -0.8181
17864TIP3   OH275006   2.078   4.176  13.921  0.5136 -0.2210  0.1937
17864TIP3    H175007   2.074   4.084  13.948 -2.4322 -0.1337  0.3105
17864TIP3    H275008   2.012   4.219  13.974 -0.4411  1.3366 -2.1433
17865TIP3   OH275009   2.738   3.148   5.718 -0.8139  0.0845 -0.0037
17865TIP3    H175010   2.648   3.117   5.729 -0.8708  0.2391 -0.0291
17865TIP3    H275011   2.792   3.072   5.738 -0.9189  0.2533  0.9872
17866TIP3   OH275012   5.246   0.992   5.233  0.8113 -0.0551  0.4177
17866TIP3    H175013   5.302   1.067   5.210  0.6525  0.1976  0.8390
17866TIP3    H275014   5.159   1.018   5.204  0.7455 -0.0494  0.6184
17867TIP3   OH275015   4.683   0.446   5.201  0.1012  0.1712 -0.2333
17867TIP3    H175016   4.750   0.377   5.207 -1.1859 -1.0959  0.0973
17867TIP3    H275017   4.715   0.515   5.259  0.2766 -1.1747  1.3424
17868TIP3   OH275018   1.785   5.088   4.087 -0.5484 -0.9032 -0.0688
17868TIP3    H175019   1.860   5.029   4.085  0.3167  0.1712 -0.1013
17868TIP3    H275020   1.802   5.146   4.161 -0.0286  0.9959 -1.5940
17869TIP3   OH275021   3.239   3.932   2.456  0.3460  0.3169  0.1452
17869TIP3    H175022   3.243   3.893   2.544  1.3207 -1.2764 -0.5589
17869TIP3    H275023   3.257   3.859   2.397  0.4396  1.5078 -1.3522
17870TIP3   OH275024   3.213   3.313  12.849 -0.3394 -0.2879  0.2035
17870TIP3    H175025   3.220   3.393  12.901 -1.4650  0.8232 -1.2718
17870TIP3    H275026   3.230   3.243  12.911  0.1722  1.0668  1.6570
17871TIP3   OH275027   1.618   4.718   4.774 -0.3387  0.2898  0.0532
17871TIP3    H175028   1.623   4.788   4.839 -0.1185 -0.7440  1.1857
17871TIP3    H275029   1.699   4.668   4.786 -1.7010 -1.8028  1.2626
17872TIP3   OH275030   4.293   2.531  13.569  0.4223  0.3888 -0.0829
17872TIP3    H175031   4.324   2.441  13.576 -1.3260 -0.4761 -2.1471
17872TIP3    H275032   4.302   2.552  13.476 -3.3874  0.6330 -0.5518
17873TIP3   OH275033   4.159   4.562  12.857 -0.0555 -0.1885 -0.3218
17873TIP3    H175034   4.131   4.477  12.822  0.3907 -0.3734 -0.2382
17873TIP3    H275035   4.253   4.551  12.874  0.1134  0.4896 -0.7940
17874TIP3   OH275036   3.679   5.895  11.626 -0.3274 -0.0866  0.3234
17874TIP3    H175037   3.675   5.804  11.595 -1.1051 -1.0911  3.0688
17874TIP3    H275038   3.626   5.895  11.706 -0.6099  2.8944  0.2274
17875TIP3   OH275039   5.684   0.944  12.404  0.0549 -0.1921  0.1101
17875TIP3    H175040   5.634   1.017  12.368  0.4980 -0.3216 -0.7779
17875TIP3    H275041   5.725   0.981  12.483  0.0333  0.4331 -0.1614
17876TIP3   OH275042   3.061   0.160   0.299  0.0121 -0.6627 -0.2725
17876TIP3    H175043   3.066   0.195   0.387  0.1488 -1.6034  0.1047
17876TIP3    H275044   3.092   0.069   0.307  0.5847 -0.5884 -1.3787
17877TIP3   OH275045   3.091   3.466   4.852  0.5584  1.0466  0.7084
17877TIP3    H175046   3.047   3.551   4.852  1.0387  1.3003  0.7558
17877TIP3    H275047   3.179   3.485   4.884  1.1641  0.8069 -0.7173
17878TIP3   OH275048   2.907   0.430  11.753 -0.1164  0.3572 -0.1830
17878TIP3    H175049   2.987   0.471  11.785  0.3381  1.3842 -2.4114
17878TIP3    H275050   2.838   0.463  11.810  0.7324  1.5150  0.2090
17879TIP3   OH275051   6.770   6.622  13.551 -0.2021  0.8916  0.0759
17879TIP3    H175052   6.787   6.528  13.557  1.9640  1.3277  2.1551
17879TIP3    H275053   6.689   6.635  13.600  0.4165  0.3029  1.2840
17880TIP3   OH275054   3.030   4.975   1.858 -0.4084  0.4985  0.4021
17880TIP3    H175055   3.014   4.907   1.793 -0.4159  3.2042 -2.6352
17880TIP3    H275056   2.950   5.028   1.858  0.6823  2.2374  0.3636
17881TIP3   OH275057   0.349   1.270  15.993 -0.4769  0.0364 -0.2926
17881TIP3    H175058   0.343   1.296  15.901 -2.0033 -1.1590 -0.5718
17881TIP3    H275059   0.288   1.328  16.039 -2.0556 -1.3361 -0.5517
17882TIP3   OH275060   6.479   4.480   4.854  0.0099 -0.2402 -0.2021
17882TIP3    H175061   6.467   4.470   4.760  1.7910 -1.3112 -0.3627
17882TIP3    H275062   6.571   4.502   4.864 -0.3313  0.6792  1.2697
17883TIP3   OH275063   5.577   1.506  14.142 -0.1238  0.4441 -0.3488
17883TIP3    H175064   5.500   1.453  14.122  0.6964 -1.6674  1.6533
17883TIP3    H275065   5.642   1.481  14.076 -0.1595 -0.1225 -0.1740
17884TIP3   OH275066   1.160   3.769  16.955 -0.3208 -0.0962 -0.0128
17884TIP3    H175067   1.177   3.850  16.905 -0.8734  0.0607  0.0464
17884TIP3    H275068   1.196   3.787  17.042 -0.4051  0.0739 -0.0109
17885TIP3   OH275069   2.541   5.021   5.489  0.2699  0.4397 -0.5907
17885TIP3    H175070   2.505   4.946   5.536 -0.2473  1.0004 -0.0786
17885TIP3    H275071   2.616   5.048   5.541  0.9878 -0.2487 -1.2434
17886TIP3   OH275072   2.987   3.415   5.447 -0.6431 -0.0524  0.6506
17886TIP3    H175073   2.977   3.503   5.483  0.8215  0.3766  0.0581
17886TIP3    H275074   2.994   3.358   5.524 -0.9735  0.4189  1.0336
17887TIP3   OH275075   3.079   6.380  13.925 -0.9086  0.7329  0.0017
17887TIP3    H175076   3.091   6.439  13.999 -2.4056  1.7636 -0.5194
17887TIP3    H275077   3.110   6.295  13.956  2.7612  1.9998  0.3054
17888TIP3   OH275078   5.536   5.467   5.033 -0.0418  0.0078 -0.4414
17888TIP3    H175079   5.449   5.479   4.997 -0.2591  0.6886  0.3035
17888TIP3    H275080   5.572   5.392   4.984 -2.2743 -2.5451  1.4941
17889TIP3   OH275081   6.012   5.984   1.473 -0.0951  0.1478 -0.0554
17889TIP3    H175082   5.926   5.992   1.433 -0.2152 -1.1995 -0.1308
17889TIP3    H275083   6.047   6.073   1.476 -0.9297  0.5277 -1.2636
17890TIP3   OH275084   5.342   0.907  13.122  0.3824  0.4169  0.1163
17890TIP3    H175085   5.248   0.926  13.111 -0.2002 -2.7952 -1.9962
17890TIP3    H275086   5.383   0.947  13.046  0.2964 -0.2099 -0.2730
17891TIP3   OH275087   4.458   0.122   3.081 -0.6438 -0.4263  0.2447
17891TIP3    H175088   4.369   0.154   3.072 -0.4915  0.2806  1.0768
17891TIP3    H275089   4.473   0.070   3.003 -0.9211  1.4942 -1.1630
17892TIP3   OH275090   6.539   1.367  17.020 -0.2085  0.0164 -0.3183
17892TIP3    H175091   6.538   1.379  17.115 -0.1058 -2.2784  0.0304
17892TIP3    H275092   6.457   1.321  17.001  0.9848 -2.0188 -0.8932
17893TIP3   OH275093   2.717   2.821  14.716  0.0188  0.2011  0.2160
17893TIP3    H175094   2.776   2.893  14.738  0.1739 -0.2624  1.3810
17893TIP3    H275095   2.732   2.806  14.622  2.3361 -0.4146  0.6163
17894TIP3   OH275096   5.091   5.404   2.332  0.0510  0.0341 -0.6317
17894TIP3    H175097   5.184   5.399   2.355  0.0468  1.3897 -0.2287
17894TIP3    H275098   5.088   5.461   2.256 -0.5145  0.5687 -0.2118
17895TIP3   OH275099   3.215   4.167   4.323 -0.0541  0.4593  0.4330
17895TIP3    H175100   3.195   4.123   4.240  2.7862  1.9486 -1.2014
17895TIP3    H275101   3.248   4.097   4.379 -1.7062 -0.5164  0.2613
17896TIP3   OH275102   6.722   2.283   3.574 -0.3010 -0.1454 -0.3502
17896TIP3    H175103   6.659   2.221   3.538 -0.8246  0.9565 -1.3770
17896TIP3    H275104   6.676   2.366   3.577  0.0273  0.0455  2.0113
17897TIP3   OH275105   0.136   3.106   1.034 -0.1614 -0.5537 -0.3090
17897TIP3    H175106   0.066   3.046   1.061 -0.7685  0.0068 -0.5924
17897TIP3    H275107   0.166   3.072   0.950 -0.8916 -0.1625 -0.7428
17898TIP3   OH275108   3.738   5.928   0.020 -0.1287  0.0739 -0.3189
17898TIP3    H175109   3.671   5.879   0.068  0.3639 -0.1915  0.1120
17898TIP3    H275110   3.819   5.881   0.037  0.9560  2.6275  2.6403
17899TIP3   OH275111   5.732   1.080   1.450 -0.5006  0.0611  0.0091
17899TIP3    H175112   5.744   1.173   1.430 -1.2312 -0.0455 -0.9988
17899TIP3    H275113   5.748   1.035   1.367 -1.8271 -0.5697  0.0729
17900TIP3   OH275114   4.827   3.674   2.387 -0.3754  0.1911 -0.6997
17900TIP3    H175115   4.861   3.668   2.298 -0.9902 -0.1672 -0.9215
17900TIP3    H275116   4.886   3.621   2.440 -1.1851 -1.3439 -1.2696
17901TIP3   OH275117   2.950   6.691  15.416  0.0066  0.3456 -0.3732
17901TIP3    H175118   2.981   6.768  15.463 -2.2749  0.5600  0.9048
17901TIP3    H275119   3.030   6.649  15.384  1.6261  0.8882  2.5917
17902TIP3   OH275120   2.617   0.388  12.204  0.4091  0.5541 -0.0724
17902TIP3    H175121   2.630   0.404  12.298 -0.1530  0.4699  0.0260
17902TIP3    H275122   2.555   0.455  12.177 -1.2791 -0.8503  0.1454
17903TIP3   OH275123   4.796   1.612   3.872  0.2465 -0.0093  0.2457
17903TIP3    H175124   4.821   1.693   3.917  3.3869  0.2809 -1.7206
17903TIP3    H275125   4.718   1.636   3.823  0.2954  1.4128  0.8062
17904TIP3   OH275126   2.246   2.626   3.210  0.2705 -0.3661  0.4290
17904TIP3    H175127   2.267   2.548   3.262  0.1532 -0.0871  0.8998
17904TIP3    H275128   2.220   2.591   3.125 -1.5647 -0.9739  1.1722
17905TIP3   OH275129   0.753   0.834   0.097  0.0845 -0.3604  0.1798
17905TIP3    H175130   0.817   0.764   0.083  0.2524 -0.2985  0.6063
17905TIP3    H275131   0.763   0.891   0.021 -0.0994 -0.8315 -0.2052
17906TIP3   OH275132   5.580   5.759   5.823 -1.3272  0.4646 -0.0555
17906TIP3    H175133   5.667   5.765   5.784 -1.9353 -0.9242 -1.7644
17906TIP3    H275134   5.593   5.780   5.916  1.0848 -1.0427  0.0252
17907TIP3   OH275135   2.390   5.067  11.926 -0.4053 -0.2242  0.3278
17907TIP3    H175136   2.335   5.027  11.993 -0.2583  1.1657  1.3303
17907TIP3    H275137   2.445   5.129  11.974  1.3529 -0.8595 -0.7798
17908TIP3   OH275138   3.540   0.656   1.994 -0.3540  0.1601 -0.3793
17908TIP3    H175139   3.565   0.596   1.924  1.2244 -0.0915  0.3737
17908TIP3    H275140   3.452   0.685   1.970 -0.6291 -1.4346 -1.4396
17909TIP3   OH275141   3.814   0.640  14.533  0.0696 -0.4898 -0.5553
17909TIP3    H175142   3.895   0.686  14.552 -0.4960  0.3950 -0.2173
17909TIP3    H275143   3.761   0.650  14.612 -0.5659 -0.6152 -0.9531
17910TIP3   OH275144   6.176   0.533   5.561 -0.5034 -0.1115 -0.1309
17910TIP3    H175145   6.151   0.543   5.469 -0.3197  0.0262 -0.1663
17910TIP3    H275146   6.259   0.484   5.558 -0.3048  0.2176 -0.0564
17911TIP3   OH275147   0.490   2.064   2.931 -0.6577  0.4042  0.4011
17911TIP3    H175148   0.463   2.152   2.904 -3.5345 -0.4855  0.0412
17911TIP3    H275149   0.422   2.006   2.895  0.6875 -1.8860  1.3458
17912TIP3   OH275150   1.152   5.145  16.120  0.2543  0.5739 -0.7207
17912TIP3    H175151   1.061   5.152  16.150 -0.2436 -0.6586 -1.8478
17912TIP3    H275152   1.193   5.084  16.181  0.4610  1.5037  0.0753
17913TIP3   OH275153   3.934   6.484   5.360  0.3369 -0.3278  0.4550
17913TIP3    H175154   3.893   6.458   5.277  2.3495 -0.6244 -0.5049
17913TIP3    H275155   3.901   6.420   5.423 -0.1311 -0.9800 -0.4158
17914TIP3   OH275156   5.408   6.064   4.031 -0.2831 -0.6643  0.0042
17914TIP3    H175157   5.321   6.080   3.995  0.1707  1.6990 -0.1484
17914TIP3    H275158   5.465   6.057   3.955 -0.2963 -2.2657  0.1019
17915TIP3   OH275159   2.042   5.311   1.702 -0.1320  0.0468  0.2283
17915TIP3    H175160   2.082   5.310   1.614 -1.4461  0.8465 -0.4164
17915TIP3    H275161   2.011   5.401   1.712  0.6055  0.1420  1.8181
17916TIP3   OH275162   5.356   0.540  15.099  0.1587  0.2567  0.0984
17916TIP3    H175163   5.330   0.466  15.046  2.1454 -2.0262  2.0444
17916TIP3    H275164   5.274   0.575  15.135 -0.7833 -1.6201 -0.1237
17917TIP3   OH275165   4.088   3.049  15.278  0.0098 -0.8236 -0.0664
17917TIP3    H175166   4.142   3.079  15.205 -1.8580 -1.6718 -1.9028
17917TIP3    H275167   4.020   3.116  15.287 -2.7040 -3.0003 -2.5370
17918TIP3   OH275168   4.709   4.392  13.853  0.2446  0.3773  0.2573
17918TIP3    H175169   4.713   4.414  13.760  2.1792 -0.3746  0.1203
17918TIP3    H275170   4.678   4.472  13.896  0.9597  1.2803 -0.8623
17919TIP3   OH275171   2.460   1.692   0.267  0.1119 -0.0822  0.0660
17919TIP3    H175172   2.479   1.704   0.174  0.9969  0.2538  0.2799
17919TIP3    H275173   2.540   1.652   0.302 -0.9647 -2.1752  0.2992
17920TIP3   OH275174   0.451   3.048  11.584 -0.0729  0.4268  0.0259
17920TIP3    H175175   0.496   2.995  11.650  0.6723  0.1365 -0.6995
17920TIP3    H275176   0.371   3.078  11.628 -0.0828 -0.5789  0.7256
17921TIP3   OH275177   6.552   3.487  17.072  0.1656  0.0536 -0.3647
17921TIP3    H175178   6.516   3.553  17.132 -0.3176 -0.4285 -0.1148
17921TIP3    H275179   6.590   3.421  17.130  1.4349  0.5337 -0.6245
17922TIP3   OH275180   3.310   4.683   6.274  0.3055 -0.3595  0.3635
17922TIP3    H175181   3.236   4.735   6.303 -0.7871 -1.2737 -0.6653
17922TIP3    H275182   3.376   4.747   6.247 -1.0880  0.5329 -1.1164
17923TIP3   OH275183   0.864   6.226   5.515 -0.3560 -0.5472  0.1245
17923TIP3    H175184   0.810   6.216   5.593  1.3196 -2.6921  1.1083
17923TIP3    H275185   0.809   6.195   5.443 -1.4859  0.2889  0.6086
17924TIP3   OH275186   0.806   1.989   6.600 -0.4653  0.1365 -0.6165
17924TIP3    H175187   0.877   1.924   6.604  0.1290  0.7914 -0.3400
17924TIP3    H275188   0.832   2.047   6.528 -0.0758  1.1156  0.2976
17925TIP3   OH275189   0.872   3.553   2.294 -0.0953  0.6249  0.7074
17925TIP3    H175190   0.943   3.524   2.237 -0.1486  1.4772  0.1877
17925TIP3    H275191   0.809   3.480   2.293 -0.4555  0.9097 -0.9420
17926TIP3   OH275192   0.199   5.371  12.151  0.3722 -0.2037 -0.0161
17926TIP3    H175193   0.158   5.328  12.226  1.4856  0.2040  0.8577
17926TIP3    H275194   0.126   5.393  12.093 -0.5529 -0.2479  1.0889
17927TIP3   OH275195   1.903   5.057   6.227  0.6002  0.0512  0.6597
17927TIP3    H175196   1.945   4.977   6.259  0.0278 -0.4035  0.2899
17927TIP3    H275197   1.841   5.026   6.161  0.6583  0.8412  0.2329
17928TIP3   OH275198   0.405   1.511   0.803 -0.3781 -0.2635 -0.6227
17928TIP3    H175199   0.463   1.435   0.797 -0.7009 -0.6341  0.6661
17928TIP3    H275200   0.320   1.475   0.824 -0.1516  0.5306  1.9676
17929TIP3   OH275201   6.005   0.794   2.173 -0.5209  0.0664 -0.2980
17929TIP3    H175202   5.916   0.825   2.157 -0.8768 -1.2802 -1.0140
17929TIP3    H275203   6.043   0.781   2.087  0.0743 -0.2216 -0.0012
17930TIP3   OH275204   1.734   2.209  12.782  0.1462  0.7235  0.1520
17930TIP3    H175205   1.766   2.119  12.780  0.5231  0.8351  0.9803
17930TIP3    H275206   1.639   2.200  12.775  0.0092  0.1315  2.1042
17931TIP3   OH275207   6.179   1.353  14.360  0.4075 -0.7292  0.2500
17931TIP3    H175208   6.192   1.308  14.443 -0.0632 -0.3914  0.5129
17931TIP3    H275209   6.112   1.302  14.315 -1.6877  0.8300  1.4405
17932TIP3   OH275210   2.428   1.141   5.079 -0.3809 -0.4940  0.2995
17932TIP3    H175211   2.344   1.175   5.048 -1.3154 -3.4589 -0.7041
17932TIP3    H275212   2.486   1.147   5.004  0.3400  1.3332  0.9276
17933TIP3   OH275213   0.118   3.869  16.076 -0.3450  0.0325 -0.1186
17933TIP3    H175214   0.031   3.830  16.067  0.1963 -0.9519 -1.3131
17933TIP3    H275215   0.123   3.895  16.168 -1.4965 -0.8755  0.2231
17934TIP3   OH275216   2.826   1.413  14.474 -0.3077  0.4641 -0.3965
17934TIP3    H175217   2.841   1.339  14.414 -0.2920 -0.0669  0.2489
17934TIP3    H275218   2.754   1.461  14.434  0.0447  0.4156 -1.1150
17935TIP3   OH275219   3.231   2.839   4.808 -0.1424  0.4820 -0.3817
17935TIP3    H175220   3.269   2.779   4.744  2.0256  0.6502  0.6621
17935TIP3    H275221   3.296   2.909   4.816 -0.5619  0.6857  1.6605
17936TIP3   OH275222   1.024   5.882   4.900 -0.4153 -0.0839 -0.4650
17936TIP3    H175223   1.093   5.878   4.966 -1.2897 -0.2203  0.4652
17936TIP3    H275224   0.979   5.965   4.917 -0.7024 -0.1576 -0.8465
17937TIP3   OH275225   6.762   3.928  12.831  0.0387  0.1860 -0.4563
17937TIP3    H175226   6.834   3.981  12.865 -0.6606  2.3485 -2.1097
17937TIP3    H275227   6.685   3.984  12.839 -0.7562 -0.5472 -2.2920
17938TIP3   OH275228   3.957   1.103   4.700  0.1934 -0.6951 -0.0777
17938TIP3    H175229   3.959   1.136   4.790 -0.3859 -2.9328  0.8147
17938TIP3    H275230   4.035   1.142   4.659 -0.4684  1.7713  0.8095
17939TIP3   OH275231   5.520   5.195   5.721  0.1930  0.9469  0.6859
17939TIP3    H175232   5.545   5.119   5.668 -2.2865  0.6546 -0.2019
17939TIP3    H275233   5.502   5.158   5.808 -1.2734  0.3999  0.1872
17940TIP3   OH275234   2.589   0.632   2.527  0.0015 -0.9783 -0.2000
17940TIP3    H175235   2.523   0.563   2.528  1.2354 -2.2526  2.5858
17940TIP3    H275236   2.578   0.677   2.611  0.5490  0.9527 -1.1056
17941TIP3   OH275237   5.431   0.295   5.904  0.1061 -0.1085 -0.2662
17941TIP3    H175238   5.485   0.219   5.924 -0.7105 -0.3522  1.1091
17941TIP3    H275239   5.402   0.328   5.989 -0.9907  0.6916 -0.9121
17942TIP3   OH275240   1.662   3.278  11.392  0.2936  0.2913 -0.1213
17942TIP3    H175241   1.645   3.268  11.298  3.6995 -1.2739 -0.7374
17942TIP3    H275242   1.596   3.341  11.422 -0.3310  1.6005 -3.7349
17943TIP3   OH275243   5.619   4.167  14.693  0.3184 -0.1930  0.4050
17943TIP3    H175244   5.539   4.115  14.700 -0.6225  1.3144  1.1865
17943TIP3    H275245   5.598   4.237  14.632  0.8441  0.5524  1.0560
17944TIP3   OH275246   1.056   3.941  12.365  0.0588  0.6234 -0.0896
17944TIP3    H175247   1.075   4.018  12.312 -0.3068  0.0996 -1.0126
17944TIP3    H275248   1.078   3.867  12.309  1.4560  0.0312  1.1800
17945TIP3   OH275249   1.746   1.313  12.407  0.2264 -0.2167  0.1222
17945TIP3    H175250   1.781   1.226  12.426  0.0905 -0.1656  0.5968
17945TIP3    H275251   1.803   1.373  12.455 -0.3581 -0.1146  0.6953
17946TIP3   OH275252   3.329   0.834   3.140  0.4943 -0.2893  0.4076
17946TIP3    H175253   3.266   0.781   3.189 -1.3422  0.9640 -0.5071
17946TIP3    H275254   3.284   0.858   3.059  2.0769  0.8249 -0.2064
17947TIP3   OH275255   6.213   6.157  17.128 -0.0200  0.0571 -0.5503
17947TIP3    H175256   6.260   6.228  17.085 -0.2975 -0.1192 -1.1451
17947TIP3    H275257   6.209   6.183  17.220 -1.2804  1.4424 -0.9679
17948TIP3   OH275258   1.986   5.530  16.230 -0.1355  0.3366 -0.2749
17948TIP3    H175259   2.050   5.462  16.209  0.8294  0.6104  1.5948
17948TIP3    H275260   1.904   5.497  16.193  0.4539 -1.5287 -0.0430
17949TIP3   OH275261   4.310   5.260   4.064 -0.1279  0.7313  0.3024
17949TIP3    H175262   4.398   5.290   4.043 -0.1572  0.9553  0.4987
17949TIP3    H275263   4.251   5.324   4.023 -0.1791  1.5512  1.5890
17950TIP3   OH275264   5.016   1.217   4.717  0.5760  0.0488  0.8160
17950TIP3    H175265   4.947   1.152   4.720 -0.7374  1.2730 -0.9921
17950TIP3    H275266   5.080   1.182   4.655  0.1169  0.2392  0.2288
17951TIP3   OH275267   0.945   5.957   0.368 -0.4772  0.0314  0.0418
17951TIP3    H175268   1.035   5.991   0.366  0.7402 -2.8930 -1.2786
17951TIP3    H275269   0.929   5.929   0.278 -2.5460 -0.0135  0.3875
17952TIP3   OH275270   3.877   3.388   2.624 -0.8733 -0.2846  0.3297
17952TIP3    H175271   3.875   3.310   2.680 -0.3845 -2.0219 -1.9164
17952TIP3    H275272   3.968   3.393   2.593 -1.1256  0.6234 -0.3074
17953TIP3   OH275273   0.809   3.569  13.162 -0.1047 -0.3956  0.7587
17953TIP3    H175274   0.894   3.526  13.167  1.0521  1.5190 -0.7054
17953TIP3    H275275   0.791   3.596  13.252 -0.5955 -3.2270  1.6081
17954TIP3   OH275276   4.130   4.643  11.936 -0.8315 -0.1831 -0.3140
17954TIP3    H175277   4.064   4.695  11.983  0.2800  0.8667  0.1406
17954TIP3    H275278   4.172   4.591  12.005  2.3308  2.9793  0.4197
17955TIP3   OH275279   1.945   3.561  11.263  0.2074  0.1344  0.1126
17955TIP3    H175280   1.859   3.604  11.265  0.1222 -0.0224 -0.0791
17955TIP3    H275281   1.943   3.508  11.183 -0.1626 -1.1870  0.9540
17956TIP3   OH275282   3.987   6.643   6.254 -0.2043 -0.2893 -0.1901
17956TIP3    H175283   3.951   6.586   6.322  0.0858  0.6959  0.8064
17956TIP3    H275284   3.931   6.627   6.178 -1.2854 -0.5423  0.6260
17957TIP3   OH275285   2.100   3.433   5.080  0.1581  0.7389  0.2373
17957TIP3    H175286   2.157   3.466   5.150  0.0075 -0.4156  0.9368
17957TIP3    H275287   2.134   3.346   5.061 -1.2841  0.0565  0.6095
17958TIP3   OH275288   2.925   3.486  14.567  0.1773  0.4936  0.0756
17958TIP3    H175289   2.876   3.497  14.649 -1.1415  1.2033 -0.7856
17958TIP3    H275290   2.955   3.394  14.569 -1.2653  0.0119  0.5831
17959TIP3   OH275291   2.946   1.606  11.148 -0.5417  0.3493 -0.0663
17959TIP3    H175292   3.038   1.631  11.154 -0.7462  1.0406  0.2497
17959TIP3    H275293   2.935   1.578  11.057  0.6967 -2.6824  0.5978
17960TIP3   OH275294   3.732   4.447   1.388  0.5909  0.4418  0.0166
17960TIP3    H175295   3.737   4.542   1.381  0.1241  0.5666  1.0973
17960TIP3    H275296   3.813   4.416   1.348  1.2655  1.3631  0.6075
17961TIP3   OH275297   3.360   5.475  13.841 -0.5687 -0.2646 -0.3703
17961TIP3    H175298   3.371   5.480  13.746  0.5918 -0.5077 -0.2598
17961TIP3    H275299   3.282   5.528  13.859 -0.4103  0.3400 -1.3893
17962TIP3   OH275300   6.734   4.632  15.785 -0.0137 -0.5395 -0.0008
17962TIP3    H175301   6.775   4.713  15.815 -0.9466 -0.2191  0.4469
17962TIP3    H275302   6.676   4.606  15.856 -1.9329 -0.0041 -1.2645
17963TIP3   OH275303   0.670   4.470   2.688  0.5469  0.0523 -0.2311
17963TIP3    H175304   0.671   4.506   2.599  1.5279  0.9512  0.1304
17963TIP3    H275305   0.633   4.540   2.742  0.6141 -0.2276  0.1874
17964TIP3   OH275306   5.891   0.749  15.665  0.2174  0.3259  0.3335
17964TIP3    H175307   5.831   0.823  15.660  0.0936  0.1867 -0.4838
17964TIP3    H275308   5.838   0.674  15.636  0.8466  0.2509 -0.6877
17965TIP3   OH275309   6.322   4.138  15.547  0.6071  0.4071  0.4974
17965TIP3    H175310   6.401   4.152  15.495  1.2464 -0.9276  1.0688
17965TIP3    H275311   6.342   4.061  15.601  0.0631  1.8469  2.8906
17966TIP3   OH275312   5.161   6.618  16.717 -0.3828  0.4425  0.3485
17966TIP3    H175313   5.204   6.545  16.762 -0.2805  0.8857  0.9812
17966TIP3    H275314   5.074   6.623  16.757 -0.4883  0.5020  0.1157
17967TIP3   OH275315   6.141   1.370  13.211  0.3454 -0.1519 -0.1262
17967TIP3    H175316   6.050   1.390  13.233  0.0066 -0.8719 -0.8232
17967TIP3    H275317   6.183   1.456  13.204 -0.0002  0.1486  1.3072
17968TIP3   OH275318   6.160   2.696   4.716 -0.0556 -0.7586  0.3561
17968TIP3    H175319   6.131   2.780   4.751  1.2690  0.0415 -0.3499
17968TIP3    H275320   6.211   2.719   4.638  0.0502 -2.2444 -0.0457
17969TIP3   OH275321   3.613   0.087   4.347  0.2130 -0.1168  0.0004
17969TIP3    H175322   3.684   0.133   4.302  0.6107 -0.4482  0.2771
17969TIP3    H275323   3.655   0.011   4.386 -0.4779 -0.8529 -0.6540
17970TIP3   OH275324   6.355   2.823  13.944 -0.1480 -0.0882  0.2821
17970TIP3    H175325   6.419   2.895  13.940 -0.9568  0.6105 -0.4661
17970TIP3    H275326   6.381   2.773  14.021  0.5172  0.9260  0.7451
17971TIP3   OH275327   2.114   2.809   0.625  0.3519 -0.5629 -0.5626
17971TIP3    H175328   2.052   2.867   0.670 -0.1075 -0.3565 -1.4340
17971TIP3    H275329   2.062   2.766   0.558  1.2646  0.0743 -1.7302
17972TIP3   OH275330   3.955   0.515  16.776 -0.0810  0.2597  0.0314
17972TIP3    H175331   3.963   0.465  16.857  1.6940 -0.5090 -0.5568
17972TIP3    H275332   4.021   0.584  16.785  0.2485  0.0619 -0.8172
17973TIP3   OH275333   1.502   3.227   3.640 -0.0406 -0.0810  0.1345
17973TIP3    H175334   1.574   3.242   3.578 -0.7419  1.6186 -0.3264
17973TIP3    H275335   1.451   3.157   3.601  0.4680 -0.1985 -0.3414
17974TIP3   OH275336   6.734   1.397  16.335 -0.3606 -1.0030 -0.1473
17974TIP3    H175337   6.730   1.359  16.423  1.3822  0.4263  0.6147
17974TIP3    H275338   6.662   1.460  16.333  0.4225 -0.0453  0.7890
17975TIP3   OH275339   2.261   6.230   5.437 -0.0593 -0.1908  0.0631
17975TIP3    H175340   2.218   6.223   5.352 -0.7194 -1.0403  0.4474
17975TIP3    H275341   2.327   6.298   5.425 -0.9559  0.5628 -0.7780
17976TIP3   OH275342   4.353   3.248  14.509 -0.5234 -0.0245  0.1618
17976TIP3    H175343   4.374   3.222  14.419  1.9273  1.0251  0.3476
17976TIP3    H275344   4.274   3.301  14.500 -2.4309 -2.7858 -0.8596
17977TIP3   OH275345   1.442   5.715   2.389  0.7528  0.2432 -0.4128
17977TIP3    H175346   1.363   5.762   2.360  1.2927  1.1026 -0.5353
17977TIP3    H275347   1.417   5.623   2.387 -0.1599  0.4825 -0.7395
17978TIP3   OH275348   1.383   6.722  14.808  0.3307  0.5103 -0.3278
17978TIP3    H175349   1.304   6.720  14.754  0.8533  0.8037 -1.1168
17978TIP3    H275350   1.385   6.811  14.844  0.5154  0.6290 -0.6307
17979TIP3   OH275351   1.034   3.334  12.089 -0.3540 -0.6463 -0.0931
17979TIP3    H175352   0.999   3.361  12.174 -1.8616 -3.5632  0.3276
17979TIP3    H275353   1.069   3.415  12.051 -1.6519  1.1801  2.3129
17980TIP3   OH275354   5.351   4.941  16.176  0.2352 -0.5616  0.1033
17980TIP3    H175355   5.322   5.001  16.107 -1.0932  0.5642  1.5659
17980TIP3    H275356   5.435   4.978  16.205 -0.3334  0.3523  0.6522
17981TIP3   OH275357   1.331   3.914  14.989  0.6795  0.1396 -0.0319
17981TIP3    H175358   1.247   3.950  14.960  1.1384  0.2900 -1.2255
17981TIP3    H275359   1.354   3.849  14.922  1.6981  0.3736  0.0802
17982TIP3   OH275360   4.787   5.777  12.907 -0.2416  0.0433 -0.1933
17982TIP3    H175361   4.789   5.828  12.988 -1.3130  2.5990 -1.6870
17982TIP3    H275362   4.845   5.824  12.847 -0.4977 -1.0468 -1.3505
17983TIP3   OH275363   4.500   2.210  13.804 -0.0826 -0.3158  0.3189
17983TIP3    H175364   4.463   2.174  13.885  0.2802 -1.9130 -0.1882
17983TIP3    H275365   4.576   2.260  13.833  0.5270 -1.5434  0.9405
17984TIP3   OH275366   0.392   6.264  14.554 -0.1337  0.0536 -0.2508
17984TIP3    H175367   0.355   6.346  14.588  0.5905  0.0409  0.5824
17984TIP3    H275368   0.486   6.272  14.567  0.1134 -0.2401 -1.6615
17985TIP3   OH275369   5.115   1.110   0.331 -0.2054  0.3207  0.4067
17985TIP3    H175370   5.182   1.043   0.316 -0.6368  0.1287 -0.7746
17985TIP3    H275371   5.070   1.081   0.410 -0.3622 -0.7790 -0.0631
17986TIP3   OH275372   0.990   2.975   4.497 -0.5082 -0.1724  0.8216
17986TIP3    H175373   1.025   3.021   4.574  0.9192 -0.3614  0.3226
17986TIP3    H275374   1.066   2.930   4.460 -1.2453 -0.3695 -0.5044
17987TIP3   OH275375   0.167   3.696   5.970  0.3599  0.2032 -0.0188
17987TIP3    H175376   0.163   3.637   6.045 -0.0981 -2.2829 -1.8578
17987TIP3    H275377   0.076   3.710   5.945  0.5282 -1.0678 -1.5335
17988TIP3   OH275378   6.219   4.094   3.156 -0.1316 -0.6686 -0.8165
17988TIP3    H175379   6.257   4.013   3.122  0.2489 -0.7686 -0.1663
17988TIP3    H275380   6.217   4.082   3.251 -1.4139 -0.4939 -0.7961
17989TIP3   OH275381   5.670   0.264  11.126 -0.2119 -0.0075 -0.4407
17989TIP3    H175382   5.677   0.332  11.193  0.1746  0.7490 -1.2414
17989TIP3    H275383   5.722   0.296  11.053 -1.7741 -0.1394 -1.6619
17990TIP3   OH275384   1.220   2.079   3.745 -0.2693 -0.5329  0.3350
17990TIP3    H175385   1.166   2.097   3.668 -1.6029 -2.5483  0.7315
17990TIP3    H275386   1.241   1.985   3.738 -0.3486 -0.7501  2.3621
17991TIP3   OH275387   5.797   2.567   1.915 -0.3719  0.0639  1.0247
17991TIP3    H175388   5.845   2.647   1.896  1.1732 -0.5649  2.1042
17991TIP3    H275389   5.789   2.523   1.830  0.7013  0.3383  0.7623
17992TIP3   OH275390   3.238   3.326   2.844 -0.6174 -0.3540 -0.1770
17992TIP3    H175391   3.261   3.397   2.784 -1.5863  0.8599  0.8287
17992TIP3    H275392   3.279   3.248   2.806 -0.2476  0.5754 -1.7782
17993TIP3   OH275393   6.050   0.273   5.990 -0.1255 -0.5201  0.4573
17993TIP3    H175394   6.129   0.314   6.026 -1.2197  0.3066  2.1024
17993TIP3    H275395   6.039   0.313   5.904  1.7087 -1.3152 -0.1848
17994TIP3   OH275396   0.116   2.262  16.499 -0.3950  0.4082 -0.7064
17994TIP3    H175397   0.142   2.227  16.584  0.4678  0.2730 -1.0210
17994TIP3    H275398   0.065   2.192  16.459 -0.5037  0.3371 -0.4491
17995TIP3   OH275399   5.008   1.305   0.993 -0.0252 -0.3225 -0.8269
17995TIP3    H175400   4.913   1.306   0.984 -0.2024  0.4613  0.6955
17995TIP3    H275401   5.041   1.278   0.907 -1.5590  0.7294 -1.7907
17996TIP3   OH275402   2.888   2.761  11.989 -0.2587 -0.2320 -0.2889
17996TIP3    H175403   2.834   2.825  12.035 -1.4056 -0.4479 -1.2929
17996TIP3    H275404   2.893   2.794  11.899  1.0125 -0.4024 -0.3040
17997TIP3   OH275405   2.863   2.992   3.531 -0.0654  0.0153 -0.3573
17997TIP3    H175406   2.865   2.920   3.594  0.0464 -1.2107 -1.6934
17997TIP3    H275407   2.914   3.061   3.572 -1.0843 -0.2273  1.4520
17998TIP3   OH275408   3.745   2.908   3.000 -0.0579 -0.1822  0.2193
17998TIP3    H175409   3.786   2.992   3.024 -2.0632  0.8084  0.4051
17998TIP3    H275410   3.719   2.870   3.083 -0.8778 -0.0571  0.0217
17999TIP3   OH275411   3.088   2.539  12.516 -0.0981 -0.1001 -0.4173
17999TIP3    H175412   3.067   2.617  12.567 -1.2856 -0.3271 -0.5301
17999TIP3    H275413   3.014   2.480  12.531  0.3416 -0.8399 -1.0731
18000TIP3   OH275414   1.347   0.688  17.117  0.0160  0.9279 -0.3782
18000TIP3    H175415   1.299   0.605  17.118 -2.3432  2.0847 -3.3910
18000TIP3    H275416   1.282   0.753  17.143  1.0877  2.1676 -0.6966
18001TIP3   OH275417   5.419   5.939   5.563  0.6969  0.1643  0.1637
18001TIP3    H175418   5.480   5.977   5.627  0.9707  0.1097 -0.0609
18001TIP3    H275419   5.476   5.900   5.497  0.4247 -1.4146  0.8252
18002TIP3   OH275420   4.364   0.520   1.592 -0.1669 -0.4867 -0.6908
18002TIP3    H175421   4.269   0.510   1.602 -0.2525  0.9034  0.2115
18002TIP3    H275422   4.402   0.458   1.654 -0.5013 -0.5321 -0.5282
18003TIP3   OH275423   2.084   4.948  16.686  0.3587  0.8583 -0.3510
18003TIP3    H175424   2.100   4.922  16.595 -0.4249  1.1675 -0.5802
18003TIP3    H275425   2.169   4.936  16.729  0.4827 -0.3110 -0.8698
18004TIP3   OH275426   2.495   1.125   2.845 -0.0181  0.2895 -0.4149
18004TIP3    H175427   2.497   1.220   2.854  0.9828  0.2538 -0.0566
18004TIP3    H275428   2.410   1.105   2.806 -0.4946  1.2760  0.0896
18005TIP3   OH275429   6.620   5.107   0.141  0.5422  0.1587 -0.1495
18005TIP3    H175430   6.709   5.116   0.108  0.3585 -0.5384 -0.8708
18005TIP3    H275431   6.566   5.100   0.062  0.1535 -2.2783  0.2488
18006TIP3   OH275432   3.750   5.543  15.060 -0.2921  0.1158 -0.3257
18006TIP3    H175433   3.829   5.536  15.006 -1.1210  1.1584 -1.7464
18006TIP3    H275434   3.704   5.460  15.045  0.6589 -0.6228  0.7510
18007TIP3   OH275435   2.876   0.946  16.086  0.9372  0.5299 -0.2525
18007TIP3    H175436   2.805   0.901  16.041  0.4804  1.9012 -0.9584
18007TIP3    H275437   2.951   0.888  16.077  0.8618  0.7120 -2.7677
18008TIP3   OH275438   6.288   5.819   4.737  0.0456 -0.5499  0.3124
18008TIP3    H175439   6.220   5.852   4.795 -0.2107  0.5942 -0.5826
18008TIP3    H275440   6.352   5.778   4.795 -1.3250 -1.5183  1.1721
18009TIP3   OH275441   4.388   1.530  11.879  0.2398 -0.6513 -0.2099
18009TIP3    H175442   4.343   1.455  11.839 -0.6675 -0.3832  0.2832
18009TIP3    H275443   4.442   1.566  11.808 -0.3693 -0.9466 -0.8391
18010TIP3   OH275444   4.309   0.551  15.871  0.0895 -0.0969  0.1427
18010TIP3    H175445   4.363   0.523  15.946  0.1233 -0.8899 -0.1650
18010TIP3    H275446   4.233   0.493  15.873  0.3529 -0.4929 -0.7512
18011TIP3   OH275447   1.842   0.893   1.699  0.1131  0.2505 -0.3913
18011TIP3    H175448   1.808   0.816   1.744  0.8271 -1.1152 -2.0521
18011TIP3    H275449   1.832   0.964   1.762 -1.8258 -0.9063  0.7101
18012TIP3   OH275450   2.687   3.450  15.706  0.2568  0.2841  0.0752
18012TIP3    H175451   2.653   3.377  15.655 -0.0856  0.5818 -0.1247
18012TIP3    H275452   2.771   3.418  15.740  0.5908  0.1538 -0.8425
18013TIP3   OH275453   2.052   1.909  12.898  0.1629 -0.1866  0.2983
18013TIP3    H175454   1.997   1.974  12.943 -1.1805 -0.8095 -0.4020
18013TIP3    H275455   2.088   1.956  12.823  0.1094  0.0730  0.4337
18014TIP3   OH275456   4.116   4.890   4.751  0.2518  0.1577 -0.0875
18014TIP3    H175457   4.162   4.831   4.811  2.3174  0.0990 -1.6460
18014TIP3    H275458   4.082   4.832   4.682  0.1349  0.5158 -0.3315
18015TIP3   OH275459   0.887   5.737  12.699  0.3730  0.2097  1.2194
18015TIP3    H175460   0.970   5.701  12.665  0.1643 -0.5358  1.4752
18015TIP3    H275461   0.913   5.788  12.775  0.4707 -1.3133  2.2590
18016TIP3   OH275462   0.531   3.944   1.244  0.1949  0.1601  0.0386
18016TIP3    H175463   0.515   4.028   1.201 -1.4933 -0.5190 -0.7528
18016TIP3    H275464   0.611   3.958   1.295  1.9006  1.2579 -2.6715
18017TIP3   OH275465   5.366   5.394  15.414 -0.3677 -0.0780 -0.6242
18017TIP3    H175466   5.356   5.299  15.416  0.4167 -0.1611 -0.4770
18017TIP3    H275467   5.397   5.417  15.501 -0.5523  0.3158 -0.6603
18018TIP3   OH275468   5.219   3.374   1.055  0.6467  0.4714 -0.0630
18018TIP3    H175469   5.169   3.444   1.096  0.5356  0.5632 -0.3481
18018TIP3    H275470   5.310   3.397   1.072  0.7296  1.9200 -2.0434
18019TIP3   OH275471   1.857   6.172  15.846 -0.0211 -0.5044 -0.3928
18019TIP3    H175472   1.774   6.126  15.851  0.1603 -1.0106 -1.5845
18019TIP3    H275473   1.908   6.121  15.782  1.4886 -0.6621  0.8758
18020TIP3   OH275474   1.631   2.386  13.149  0.1711  0.4837  0.1033
18020TIP3    H175475   1.587   2.354  13.228 -0.4594  2.7378  0.7396
18020TIP3    H275476   1.562   2.429  13.099  1.0067  1.0879 -0.5614
18021TIP3   OH275477   1.284   6.477  12.903  0.3218  0.4132 -0.2465
18021TIP3    H175478   1.313   6.535  12.973 -1.2413  2.2692 -1.0612
18021TIP3    H275479   1.192   6.457  12.925  0.1046  0.2484 -1.2671
18022TIP3   OH275480   5.348   2.273   2.290 -0.2915 -0.0020 -0.1166
18022TIP3    H175481   5.332   2.317   2.206 -1.4040  0.8546  0.5204
18022TIP3    H275482   5.285   2.200   2.292  0.5499 -0.7591 -0.5282
18023TIP3   OH275483   4.006   3.852  13.090 -0.0872 -0.3088  0.0298
18023TIP3    H175484   3.987   3.904  13.168 -0.4486  1.6460 -1.2738
18023TIP3    H275485   3.935   3.787  13.086 -1.6321  1.3122 -0.0882
18024TIP3   OH275486   1.067   0.336   5.403 -0.3954 -0.3846 -0.0040
18024TIP3    H175487   1.137   0.374   5.456 -0.4596  0.7340 -0.6788
18024TIP3    H275488   1.002   0.305   5.466 -0.8459  1.6282  0.5845
18025TIP3   OH275489   3.940   2.612   4.697  0.6354  0.2973  0.8053
18025TIP3    H175490   4.024   2.655   4.680  0.2225  0.8935  0.2211
18025TIP3    H275491   3.925   2.558   4.620 -0.7004  2.1330 -0.2911
18026TIP3   OH275492   4.648   5.414  15.348 -0.2774  0.1039 -0.5231
18026TIP3    H175493   4.579   5.403  15.413  1.5382  0.4045  1.5977
18026TIP3    H275494   4.667   5.325  15.319 -0.4272 -0.1576  0.1541
18027TIP3   OH275495   2.870   2.723   5.245 -0.4544 -0.1936  0.0165
18027TIP3    H175496   2.882   2.702   5.152 -0.8880  0.9439 -0.3102
18027TIP3    H275497   2.952   2.765   5.271 -1.3784  2.1902 -0.6645
18028TIP3   OH275498   4.926   4.033   1.775  0.1333 -0.4026 -0.3875
18028TIP3    H175499   4.854   4.096   1.774  0.5280  0.0503 -1.6493
18028TIP3    H275500   4.988   4.066   1.710  0.4577 -1.9846 -0.9271
18029TIP3   OH275501   0.360   0.584  12.287 -0.3351  0.7162 -0.4338
18029TIP3    H175502   0.329   0.513  12.344 -1.0828  0.4643 -1.1333
18029TIP3    H275503   0.455   0.576  12.288 -0.4175 -0.4209 -0.6593
18030TIP3   OH275504   6.008   1.981   5.208  0.3058  0.0220  0.0753
18030TIP3    H175505   6.087   2.011   5.253  0.8690 -1.4097  0.0927
18030TIP3    H275506   5.998   1.890   5.234 -1.7255  0.3219  0.5646
18031TIP3   OH275507   5.362   0.505  14.789 -0.2668 -0.3581 -0.4607
18031TIP3    H175508   5.439   0.501  14.845  0.0735  2.4208 -0.6219
18031TIP3    H275509   5.392   0.474  14.704  0.9002  1.2819 -0.6907
18032TIP3   OH275510   5.991   4.008  14.118 -0.5246 -0.3008  0.2925
18032TIP3    H175511   5.915   4.066  14.132 -0.1447 -0.0703  1.4353
18032TIP3    H275512   5.952   3.921  14.108 -1.2629  0.2469 -3.0880
18033TIP3   OH275513   6.667   0.358  15.457 -0.1845  0.2916  0.0808
18033TIP3    H175514   6.587   0.340  15.407 -0.3777 -1.0956  0.8178
18033TIP3    H275515   6.735   0.309  15.412 -0.0328  0.3469  0.2502
18034TIP3   OH275516   0.156   2.837  16.817 -0.4341  0.3993 -0.4901
18034TIP3    H175517   0.082   2.776  16.824 -0.9171  0.9917 -0.2321
18034TIP3    H275518   0.119   2.921  16.844  0.7825  0.3672  1.4549
18035TIP3   OH275519   3.754   2.519   2.343 -0.0613 -0.1583  0.1020
18035TIP3    H175520   3.814   2.512   2.417  1.0803  0.0531 -0.7649
18035TIP3    H275521   3.767   2.437   2.295 -0.4242 -0.0842 -0.1203
18036TIP3   OH275522   1.765   4.405  13.549 -0.3017 -0.1437 -0.1168
18036TIP3    H175523   1.856   4.379  13.563  0.2548  1.2916 -0.8382
18036TIP3    H275524   1.745   4.465  13.620 -0.7530 -0.6010  0.1463
18037TIP3   OH275525   0.147   4.901  11.253  0.3947  0.9504  0.2748
18037TIP3    H175526   0.237   4.888  11.224  0.0849  0.1155 -0.3590
18037TIP3    H275527   0.142   4.857  11.338  0.3387  0.1913 -0.1230
18038TIP3   OH275528   5.064   5.246  16.177 -0.5145 -0.0539 -0.6376
18038TIP3    H175529   5.086   5.228  16.085 -1.5879 -0.6065 -0.7964
18038TIP3    H275530   5.004   5.176  16.201 -0.2551  0.1022  0.4919
18039TIP3   OH275531   4.740   4.223   4.871  0.0496 -0.0812  0.0665
18039TIP3    H175532   4.735   4.291   4.804 -0.3269  0.6378  0.8003
18039TIP3    H275533   4.815   4.169   4.846 -0.5281 -0.2931 -1.3416
18040TIP3   OH275534   5.881   0.327   2.375  0.5890 -0.2670  0.0680
18040TIP3    H175535   5.894   0.416   2.343  0.3172 -0.6611 -1.1925
18040TIP3    H275536   5.961   0.307   2.424  0.6092  0.6965  0.4435
18041TIP3   OH275537   6.735   4.514   3.389 -0.2767  0.0389  1.1612
18041TIP3    H175538   6.749   4.602   3.425 -1.0826 -0.3943  2.6087
18041TIP3    H275539   6.800   4.507   3.319 -0.7253  2.0752  0.4504
18042TIP3   OH275540   5.965   3.456  15.374  0.2662 -0.1572  0.0751
18042TIP3    H175541   5.969   3.543  15.414 -1.0563 -0.2866  0.5205
18042TIP3    H275542   5.935   3.473  15.285 -0.2820 -0.1793  0.2540
18043TIP3   OH275543   3.497   6.520   6.258  0.0219  0.0390  0.3069
18043TIP3    H175544   3.581   6.510   6.302 -0.5274  0.5929  1.5308
18043TIP3    H275545   3.511   6.481   6.172  1.3704 -0.3544  0.6674
18044TIP3   OH275546   5.784   0.312   4.510  0.1500 -0.3320  0.2216
18044TIP3    H175547   5.839   0.235   4.498  1.2686  0.5619 -0.5972
18044TIP3    H275548   5.695   0.281   4.492  0.5402 -1.5166  0.3061
18045TIP3   OH275549   5.020   6.556   3.107 -0.1166  0.0572  0.0324
18045TIP3    H175550   4.962   6.611   3.160  0.0931 -1.5420  2.0350
18045TIP3    H275551   5.097   6.542   3.162 -0.7959 -3.4452  0.3189
18046TIP3   OH275552   1.764   5.314  14.440  0.0584  0.2219 -0.2184
18046TIP3    H175553   1.689   5.373  14.430 -0.2369 -0.2873 -1.1475
18046TIP3    H275554   1.725   5.231  14.467  0.4575  0.3934  0.9260
18047TIP3   OH275555   2.645   4.095  16.703 -0.1169  0.6742  0.2632
18047TIP3    H175556   2.679   4.182  16.681 -0.2166  0.4921 -0.6282
18047TIP3    H275557   2.575   4.080  16.639  1.0161 -0.7715 -0.6794
18048TIP3   OH275558   5.471   0.144   4.506  0.4772  0.1649 -0.8994
18048TIP3    H175559   5.520   0.095   4.440  3.0590  0.0826  0.8985
18048TIP3    H275560   5.425   0.077   4.556  2.2828 -0.3194  0.2163
18049TIP3   OH275561   4.519   5.318   2.203 -0.1258  0.0962  0.1372
18049TIP3    H175562   4.446   5.341   2.146 -0.5212  1.1346  1.0441
18049TIP3    H275563   4.593   5.368   2.168 -0.1342 -0.0197 -0.0489
18050TIP3   OH275564   5.628   4.357   4.278 -0.2959  0.3173 -0.2349
18050TIP3    H175565   5.660   4.428   4.334  1.3471  0.0172 -0.7203
18050TIP3    H275566   5.567   4.399   4.219 -0.2959  1.0845  0.2921
18051TIP3   OH275567   4.831   6.435   2.027  0.5589  0.4173  0.5757
18051TIP3    H175568   4.821   6.349   1.986 -0.4574  1.1105 -0.7130
18051TIP3    H275569   4.886   6.419   2.104  0.4440 -1.3596  0.3267
18052TIP3   OH275570   1.473   4.221   2.231 -0.1879 -0.4795 -0.2326
18052TIP3    H175571   1.396   4.252   2.278 -0.2180 -0.5572 -0.2295
18052TIP3    H275572   1.542   4.285   2.251  0.1711 -1.2115  0.9898
18053TIP3   OH275573   2.670   1.064  10.321  0.3791 -0.1223 -0.2761
18053TIP3    H175574   2.605   1.126  10.352  0.8106  0.0582  0.2951
18053TIP3    H275575   2.619   0.996  10.277 -0.0510  0.9231 -1.4317
18054TIP3   OH275576   6.140   1.556   3.230  0.4646 -0.2116  0.3060
18054TIP3    H175577   6.160   1.504   3.308 -0.5485 -0.2431  0.5572
18054TIP3    H275578   6.050   1.586   3.244 -0.1895 -1.2474 -1.4104
18055TIP3   OH275579   4.689   4.074  11.366  0.0753 -0.1013  0.6799
18055TIP3    H175580   4.659   4.073  11.457 -0.9152  1.4813  0.4091
18055TIP3    H275581   4.609   4.075  11.315  0.6109  0.6440 -0.1641
18056TIP3   OH275582   2.166   4.938   1.980  0.2042 -0.0775  0.3888
18056TIP3    H175583   2.083   4.964   2.021  1.1904  1.1758  1.6779
18056TIP3    H275584   2.204   4.875   2.041  1.3548  1.2623  1.0927
18057TIP3   OH275585   4.392   3.851  16.313 -0.1059 -0.9754  0.1565
18057TIP3    H175586   4.447   3.877  16.386  0.3453  0.0792 -0.5253
18057TIP3    H275587   4.442   3.784  16.267  0.3856 -0.4040 -0.1545
18058TIP3   OH275588   0.739   2.364   6.617  0.0160 -0.4093  0.0290
18058TIP3    H175589   0.692   2.436   6.659  1.9960  0.3209  1.1545
18058TIP3    H275590   0.789   2.406   6.547  1.8928 -0.4355  1.2605
18059TIP3   OH275591   2.559   3.775  13.504 -0.0372 -0.1325  0.4198
18059TIP3    H175592   2.594   3.751  13.589  1.4414 -0.0299 -0.1347
18059TIP3    H275593   2.468   3.801  13.522  0.8301  1.9048  2.2708
18060TIP3   OH275594   0.650   2.480   5.540  0.1521 -0.2820  0.0241
18060TIP3    H175595   0.724   2.454   5.485  0.4928 -0.8692  0.7349
18060TIP3    H275596   0.608   2.551   5.492 -0.7717 -2.0860 -1.9729
18061TIP3   OH275597   5.986   4.856  16.193  0.0238  0.0459  0.5677
18061TIP3    H175598   5.967   4.858  16.099 -0.9053 -0.8176  0.7224
18061TIP3    H275599   6.082   4.855  16.197  0.0835 -0.8619 -0.4121
18062TIP3   OH275600   0.073   4.232   2.182  0.2110  0.0832  0.3590
18062TIP3    H175601   0.152   4.196   2.221 -0.8353 -0.7587  1.8006
18062TIP3    H275602   0.003   4.207   2.242 -1.1365  0.9409 -0.7869
18063TIP3   OH275603   0.817   1.615  11.680  0.6178  0.7118 -0.0513
18063TIP3    H175604   0.900   1.575  11.654 -0.8845 -1.8601 -1.2964
18063TIP3    H275605   0.789   1.563  11.756 -1.2097 -0.4786 -1.4677
18064TIP3   OH275606   0.523   3.077   5.845  0.1231  0.4219  0.2019
18064TIP3    H175607   0.509   2.990   5.882  1.5208  0.0316 -0.1175
18064TIP3    H275608   0.571   3.124   5.913 -0.9843  1.0984  0.5382
18065TIP3   OH275609   3.370   6.285   0.831  0.4836  0.3619 -0.2006
18065TIP3    H175610   3.403   6.294   0.921 -0.1112  1.1656 -0.0425
18065TIP3    H275611   3.346   6.193   0.823  4.0095 -0.6720 -0.7917
18066TIP3   OH275612   0.077   4.444   1.315  0.0160  0.0368 -0.7070
18066TIP3    H175613   0.149   4.480   1.367 -1.5641  0.8236  1.0696
18066TIP3    H275614   0.054   4.361   1.359 -0.2938 -0.1044 -1.1219
18067TIP3   OH275615   2.353   1.329  12.714 -0.1564 -0.4940  0.0132
18067TIP3    H175616   2.345   1.241  12.677 -2.0181 -0.0367 -0.7540
18067TIP3    H275617   2.363   1.386  12.637 -1.5666  0.2191  0.3433
18068TIP3   OH275618   4.034   1.511   4.998 -0.3511  0.4954 -0.2006
18068TIP3    H175619   4.089   1.502   5.076  2.4371 -0.2923 -2.1434
18068TIP3    H275620   4.000   1.423   4.982 -0.0467  0.4339 -0.4998
18069TIP3   OH275621   2.919   3.447   1.121  0.6771  0.0610 -0.4062
18069TIP3    H175622   3.013   3.460   1.134  0.6284  0.7691 -0.7363
18069TIP3    H275623   2.897   3.505   1.048 -0.2882  0.9581  0.5821
18070TIP3   OH275624   5.505   5.250   4.862  0.3098  0.3655  0.3583
18070TIP3    H175625   5.564   5.205   4.922  1.2523 -0.3197 -1.0190
18070TIP3    H275626   5.557   5.263   4.783 -0.3659  2.7338  0.2382
18071TIP3   OH275627   5.241   1.685  14.063 -0.2043 -0.5272 -0.4947
18071TIP3    H175628   5.208   1.627  13.994  1.0358 -0.7129 -0.9462
18071TIP3    H275629   5.251   1.628  14.140  0.1842 -0.7315 -0.6929
18072TIP3   OH275630   0.907   2.384  15.912  0.0404  0.0717 -0.3469
18072TIP3    H175631   0.852   2.333  15.853 -1.6501 -0.1958  1.3434
18072TIP3    H275632   0.932   2.461  15.862 -2.5786  0.5984 -1.0046
18073TIP3   OH275633   5.679   6.287  14.257  0.2461  0.2701  0.0172
18073TIP3    H175634   5.613   6.354  14.270 -0.2133  0.1845 -1.7060
18073TIP3    H275635   5.762   6.332  14.274 -0.1909  0.4674  1.8285
18074TIP3   OH275636   6.339   5.312  12.615  0.0820  0.1483 -0.5491
18074TIP3    H175637   6.406   5.246  12.632 -0.1726  0.0257  0.0216
18074TIP3    H275638   6.381   5.376  12.559  1.4480  1.3340  1.7100
18075TIP3   OH275639   2.861   5.612  12.154  0.1489  0.1496 -0.4086
18075TIP3    H175640   2.797   5.596  12.085  1.1885 -1.3828 -1.0721
18075TIP3    H275641   2.937   5.648  12.108  0.8855 -0.9580 -0.1020
18076TIP3   OH275642   6.201   0.864   0.374  0.1031  0.0327 -0.5335
18076TIP3    H175643   6.215   0.801   0.445 -0.1410  1.5252  0.8999
18076TIP3    H275644   6.113   0.845   0.342 -0.0114 -0.2888 -0.0407
18077TIP3   OH275645   1.919   0.896  15.325  0.0346 -0.3344 -0.6448
18077TIP3    H175646   1.867   0.816  15.333 -1.0287  0.3531 -0.3837
18077TIP3    H275647   2.008   0.866  15.308 -0.0704 -1.5906  0.8654
18078TIP3   OH275648   2.488   2.196  12.557  0.2469  0.5895 -0.5309
18078TIP3    H175649   2.399   2.193  12.591  0.0901  0.7968 -0.9184
18078TIP3    H275650   2.541   2.152  12.624 -0.3072 -0.5648 -0.8127
18079TIP3   OH275651   3.879   2.706   4.291 -0.1053 -0.3482  0.6098
18079TIP3    H175652   3.974   2.699   4.296 -0.2485 -4.0684  1.5069
18079TIP3    H275653   3.853   2.741   4.376  0.4317  0.2091  0.5502
18080TIP3   OH275654   6.404   1.163   3.815 -0.1750 -0.0722 -0.0951
18080TIP3    H175655   6.456   1.242   3.825 -2.8124  1.8701 -0.7080
18080TIP3    H275656   6.364   1.171   3.728 -2.2011 -0.9721  0.6916
18081TIP3   OH275657   0.473   1.788   2.579  0.5756 -0.2099  0.4232
18081TIP3    H175658   0.489   1.883   2.586  2.0268 -0.3887 -0.0957
18081TIP3    H275659   0.420   1.768   2.656  1.3301  0.8224  1.2515
18082TIP3   OH275660   4.048   6.684  12.726  0.2579  0.2523 -0.7734
18082TIP3    H175661   4.012   6.631  12.656 -0.8666 -0.8818  0.5879
18082TIP3    H275662   4.127   6.638  12.754 -0.4099 -0.4361  0.0322
18083TIP3   OH275663   6.395   3.879   0.269  0.6821  0.2578 -0.0829
18083TIP3    H175664   6.363   3.956   0.224 -0.4108 -0.8030 -1.1951
18083TIP3    H275665   6.373   3.894   0.361  0.8212  1.4141 -0.2304
18084TIP3   OH275666   1.855   4.682   3.807 -0.1004  0.5865 -0.7002
18084TIP3    H175667   1.864   4.768   3.848  1.9487  0.7700 -1.4445
18084TIP3    H275668   1.887   4.693   3.718  2.6037 -1.4463 -0.1129
18085TIP3   OH275669   0.216   0.210  16.378  0.3102 -0.2002  0.1269
18085TIP3    H175670   0.162   0.147  16.330  1.7279 -1.1425 -0.3043
18085TIP3    H275671   0.207   0.291  16.329  0.8493 -0.8656 -1.1290
18086TIP3   OH275672   1.191   6.351  11.480 -0.0365  0.7344 -0.0405
18086TIP3    H175673   1.281   6.324  11.462  0.7165  1.6050  2.0724
18086TIP3    H275674   1.158   6.286  11.542 -1.4429 -0.4248 -1.8960
18087TIP3   OH275675   5.545   5.993   0.270 -0.7166  0.2402 -0.0923
18087TIP3    H175676   5.598   6.017   0.194 -1.0256 -2.4917 -1.2925
18087TIP3    H275677   5.488   5.922   0.238  0.4328 -2.3878  3.0918
18088TIP3   OH275678   0.774   1.983   6.145  0.2521 -0.1581 -0.1185
18088TIP3    H175679   0.691   2.013   6.183 -0.5468 -1.1733 -1.0073
18088TIP3    H275680   0.809   2.060   6.100 -1.3684 -0.2864 -1.6926
18089TIP3   OH275681   4.374   0.426  14.823 -0.3229  0.1526 -0.0642
18089TIP3    H175682   4.461   0.385  14.821 -0.0369  0.4957  2.3444
18089TIP3    H275683   4.319   0.363  14.870 -0.8696  0.8269  0.2141
18090TIP3   OH275684   3.742   0.742   0.087 -0.1313  0.1992  0.2478
18090TIP3    H175685   3.822   0.709   0.129 -0.4364 -2.1895 -0.9285
18090TIP3    H275686   3.764   0.747  -0.006 -0.4774  2.4183  0.2128
18091TIP3   OH275687   0.956   6.779   2.782 -0.3613  0.9490  0.2437
18091TIP3    H175688   0.908   6.858   2.761 -1.0478  0.5211  0.1750
18091TIP3    H275689   0.922   6.751   2.868 -1.3433 -0.1701 -0.4690
18092TIP3   OH275690   1.926   3.812   0.595 -0.3118 -0.0354  0.2152
18092TIP3    H175691   1.975   3.869   0.535 -2.1439  1.9626  0.5052
18092TIP3    H275692   1.955   3.723   0.573  1.8206  0.8893 -1.0377
18093TIP3   OH275693   0.347   0.832  14.046  0.0048  0.2782  0.8363
18093TIP3    H175694   0.334   0.744  14.083  0.9132  0.6160  2.0318
18093TIP3    H275695   0.429   0.862  14.085  0.6534  0.9667 -0.9621
18094TIP3   OH275696   5.695   1.740  11.229 -0.3281 -0.0343  0.0450
18094TIP3    H175697   5.641   1.695  11.294 -0.4821 -0.7054 -0.5330
18094TIP3    H275698   5.634   1.793  11.179 -0.5314 -1.0971 -0.8644
18095TIP3   OH275699   5.577   1.053   3.736  0.1913 -0.4425  0.0373
18095TIP3    H175700   5.490   1.060   3.775  0.1657 -1.3790  0.1772
18095TIP3    H275701   5.572   1.106   3.656  0.4488  2.0877  1.5849
18096TIP3   OH275702   2.418   5.084  12.345  0.1080  0.4490  0.5233
18096TIP3    H175703   2.487   5.037  12.393 -0.6040 -1.5554 -0.3568
18096TIP3    H275704   2.462   5.116  12.266  0.2482  0.0558  0.4433
18097TIP3   OH275705   1.857   3.537   5.046 -0.4360  0.6807 -0.0061
18097TIP3    H175706   1.880   3.628   5.031  1.2367  0.2962  0.0541
18097TIP3    H275707   1.941   3.492   5.054 -1.2319 -0.8080  0.3181
18098TIP3   OH275708   5.108   3.293   1.894 -0.1734 -0.3659 -0.2513
18098TIP3    H175709   5.081   3.300   1.802 -1.3466 -1.1467  0.0055
18098TIP3    H275710   5.098   3.201   1.915  1.2810 -0.4206  0.3384
18099TIP3   OH275711   6.511   1.430   0.107  0.6945  0.2657  0.2123
18099TIP3    H175712   6.586   1.472   0.150  0.2724  0.4855  0.7442
18099TIP3    H275713   6.484   1.362   0.167 -0.7513  1.4506  0.9697
18100TIP3   OH275714   6.526   5.818  16.265 -0.3193 -0.0361  0.4164
18100TIP3    H175715   6.610   5.789  16.299 -0.0880 -1.6958 -1.4339
18100TIP3    H275716   6.531   5.914  16.269  1.6404 -0.0921  0.3819
18101TIP3   OH275717   4.157   0.045  14.049  0.1483 -0.0909 -0.1840
18101TIP3    H175718   4.071   0.066  14.085  1.1574 -1.1789  3.1390
18101TIP3    H275719   4.150  -0.047  14.022  0.6499 -0.6819  1.5808
18102TIP3   OH275720   1.393   4.407   4.191 -0.1539  0.1305  0.2258
18102TIP3    H175721   1.319   4.452   4.149 -0.4560 -1.2209 -0.7414
18102TIP3    H275722   1.470   4.441   4.147 -0.2323  1.0193  0.7477
18103TIP3   OH275723   0.459   0.712   5.271  0.0683  0.2706 -0.6704
18103TIP3    H175724   0.511   0.785   5.305  2.3661 -1.4231 -0.3201
18103TIP3    H275725   0.387   0.704   5.333  1.3517  0.4759  0.9096
18104TIP3   OH275726   6.491   4.229   2.855  0.4574 -0.1937  0.2663
18104TIP3    H175727   6.449   4.151   2.819 -2.3724  1.4077 -0.1809
18104TIP3    H275728   6.482   4.220   2.950 -0.7073  0.0062  0.1820
18105TIP3   OH275729   6.604   1.936  15.331 -0.1167  0.0614  0.1070
18105TIP3    H175730   6.554   1.933  15.250  0.6203 -1.7586 -0.3380
18105TIP3    H275731   6.615   1.844  15.356  1.6745  0.4672  0.9916
18106TIP3   OH275732   1.209   5.896   5.101 -0.1273  0.2949  0.1192
18106TIP3    H175733   1.213   5.980   5.145 -1.0059  0.0791  0.6384
18106TIP3    H275734   1.295   5.885   5.061  0.3541  0.9352  0.9624
18107TIP3   OH275735   4.015   3.265   4.669  0.2868  0.2552  0.4758
18107TIP3    H175736   3.926   3.249   4.638  0.0221  0.8986  0.8800
18107TIP3    H275737   4.045   3.180   4.700 -0.1892  0.0363  0.3462
18108TIP3   OH275738   2.177   2.201   2.507  0.1943  0.0682 -0.2314
18108TIP3    H175739   2.129   2.239   2.580 -0.2757 -0.7923 -0.0767
18108TIP3    H275740   2.146   2.250   2.430 -0.6891 -0.2431 -0.0858
18109TIP3   OH275741   1.598   3.269  14.992  0.1798  0.2099 -0.3412
18109TIP3    H175742   1.623   3.202  14.930  0.4664  1.6897 -1.8960
18109TIP3    H275743   1.678   3.287  15.042 -0.4456 -2.1524  1.7449
18110TIP3   OH275744   3.765   6.709  15.240  0.1517  0.5296 -0.4529
18110TIP3    H175745   3.718   6.789  15.265  1.6839  1.1608  0.5575
18110TIP3    H275746   3.795   6.672  15.323  0.5387 -0.4227 -1.0038
18111TIP3   OH275747   3.046   3.263  16.710  0.8082 -0.0026  0.3075
18111TIP3    H175748   2.988   3.191  16.686 -1.5988  0.6456  3.4182
18111TIP3    H275749   3.089   3.233  16.791  2.0900  0.9257  0.0054
18112TIP3   OH275750   3.955   4.722  12.365 -0.2686  0.1398 -0.6911
18112TIP3    H175751   3.904   4.696  12.441 -1.2927  1.8923 -0.7451
18112TIP3    H275752   4.001   4.801  12.392  2.0416 -1.0622 -0.8312
18113TIP3   OH275753   0.740   3.317   5.838  0.5663  0.2992  0.1134
18113TIP3    H175754   0.706   3.366   5.914 -0.2800 -0.0396 -0.0388
18113TIP3    H275755   0.713   3.369   5.763 -0.3769 -0.4016 -0.0532
18114TIP3   OH275756   3.806   4.977   1.327 -0.0525 -0.0583  0.5090
18114TIP3    H175757   3.722   5.010   1.295 -0.8988 -1.8584  0.7609
18114TIP3    H275758   3.869   5.007   1.262 -1.0079  0.6369 -0.1267
18115TIP3   OH275759   6.347   0.371  17.065  0.1073  0.4206 -0.3136
18115TIP3    H175760   6.395   0.328  16.994  1.0427  1.0542 -0.0838
18115TIP3    H275761   6.406   0.441  17.095 -1.0444  1.3420 -0.1431
18116TIP3   OH275762   5.217   2.731  15.260  0.1055 -0.5483  0.2623
18116TIP3    H175763   5.196   2.800  15.197 -1.1655  0.5373  1.8085
18116TIP3    H275764   5.234   2.654  15.206 -1.2175  0.2704 -1.4075
18117TIP3   OH275765   0.735   2.445  14.705  0.0029 -0.3376 -0.6170
18117TIP3    H175766   0.780   2.493  14.635 -0.8872  0.1080 -0.8921
18117TIP3    H275767   0.643   2.471  14.698  0.1470  1.3586  2.0004
18118TIP3   OH275768   3.572   2.606  13.037 -0.1519  0.1385  0.0285
18118TIP3    H175769   3.656   2.565  13.016 -0.6224  0.3801 -2.6337
18118TIP3    H275770   3.582   2.637  13.127  3.2832  1.7448 -0.7617
18119TIP3   OH275771   5.240   6.601   3.313 -0.4579 -0.4371  0.3405
18119TIP3    H175772   5.207   6.659   3.383 -1.1941  1.5123 -1.5175
18119TIP3    H275773   5.320   6.644   3.283 -0.6318 -0.7534 -0.5904
18120TIP3   OH275774   4.215   4.409  15.647 -0.4895 -0.1357  0.6747
18120TIP3    H175775   4.153   4.358  15.699 -0.6746 -0.6367 -0.0233
18120TIP3    H275776   4.206   4.374  15.558 -0.3095  0.8258  0.2699
18121TIP3   OH275777   5.704   6.250  13.985 -0.0615  0.0461 -0.1889
18121TIP3    H175778   5.679   6.160  13.963 -0.9489  0.0199  0.8234
18121TIP3    H275779   5.720   6.248  14.080 -1.1747  1.1699  0.0568
18122TIP3   OH275780   5.830   3.412   6.231  0.1056  0.0923 -0.2900
18122TIP3    H175781   5.857   3.451   6.315  0.2207  1.1678 -0.8097
18122TIP3    H275782   5.911   3.394   6.185  0.0316 -0.1863 -0.3156
18123TIP3   OH275783   5.903   0.782  11.690 -0.5981 -0.4811 -0.2695
18123TIP3    H175784   5.847   0.855  11.713  1.2268  0.3341  1.9274
18123TIP3    H275785   5.902   0.725  11.767  0.8804 -0.8636 -0.4981
18124TIP3   OH275786   2.130   1.460  12.779 -0.3282  0.3045 -0.0838
18124TIP3    H175787   2.203   1.398  12.773 -0.3134  0.4143 -1.2657
18124TIP3    H275788   2.074   1.424  12.847 -0.2786 -0.9832 -0.6816
18125TIP3   OH275789   4.379   3.489  14.940 -0.0338  0.2519 -0.2175
18125TIP3    H175790   4.433   3.410  14.948  0.2810  0.2464 -2.1153
18125TIP3    H275791   4.292   3.456  14.918 -0.4757  0.3537  1.2413
18126TIP3   OH275792   3.879   0.865  12.673 -0.6381  0.2575  0.1493
18126TIP3    H175793   3.912   0.864  12.763  0.4953 -0.1630 -0.2546
18126TIP3    H275794   3.834   0.780  12.663 -2.0547  0.8962  0.7480
18127TIP3   OH275795   5.897   4.674  13.890 -0.5016  0.3078 -0.0865
18127TIP3    H175796   5.876   4.699  13.801 -1.0366 -0.4986 -0.2017
18127TIP3    H275797   5.908   4.757  13.937 -1.2538  0.7399 -0.6593
18128TIP3   OH275798   1.848   1.829   4.165  0.0979 -0.0330 -0.2765
18128TIP3    H175799   1.803   1.745   4.176 -2.2247  1.3069  1.2378
18128TIP3    H275800   1.792   1.879   4.106  0.6526  1.0006  0.0456
18129TIP3   OH275801   2.449   1.919  15.932  0.1670 -0.3671  0.3845
18129TIP3    H175802   2.493   1.882  15.855 -2.2036 -0.9775 -0.7667
18129TIP3    H275803   2.454   1.850  15.997  1.0739 -0.3353  0.3667
18130TIP3   OH275804   6.173   3.937   1.295 -0.6420 -0.0192 -0.1397
18130TIP3    H175805   6.263   3.965   1.312 -1.2086  2.2065 -0.5232
18130TIP3    H275806   6.166   3.936   1.200 -0.3627 -2.6181 -0.1894
18131TIP3   OH275807   5.347   0.676  13.933  0.2216  0.0158  0.4343
18131TIP3    H175808   5.326   0.593  13.975  0.0973  0.3813  1.0963
18131TIP3    H275809   5.280   0.686  13.865 -0.6518  0.2751  1.3129
18132TIP3   OH275810   0.090   3.702  11.727  0.1716 -0.6297  0.0074
18132TIP3    H175811   0.010   3.717  11.677 -1.1307 -1.2689  1.7854
18132TIP3    H275812   0.092   3.607  11.741  1.2722 -0.6259 -0.0369
18133TIP3   OH275813   0.336   1.111   4.317  0.9354  0.2606 -0.0224
18133TIP3    H175814   0.365   1.019   4.317  3.7052  0.9628  1.9432
18133TIP3    H275815   0.245   1.107   4.347 -0.4910 -1.9942 -3.8946
18134TIP3   OH275816   1.207   2.003  12.604 -0.5035 -0.3311  0.5119
18134TIP3    H175817   1.250   2.047  12.531  0.3294  0.4673  1.4491
18134TIP3    H275818   1.193   2.072  12.669 -0.9133 -1.0876  1.2415
18135TIP3   OH275819   2.362   1.283   4.633  0.0258 -0.0831 -0.5385
18135TIP3    H175820   2.439   1.227   4.623  1.0317  1.4380 -1.8765
18135TIP3    H275821   2.304   1.258   4.560  1.1184  1.4933 -2.0358
18136TIP3   OH275822   3.227   0.798   5.678 -0.0722  0.3614 -0.0215
18136TIP3    H175823   3.285   0.807   5.754 -0.3308 -1.6450  0.4702
18136TIP3    H275824   3.284   0.772   5.606 -0.1432  0.0611  0.0335
18137TIP3   OH275825   4.144   5.828   2.356 -0.0987  0.2413 -0.2200
18137TIP3    H175826   4.133   5.783   2.272 -0.8728 -0.4405  0.2255
18137TIP3    H275827   4.199   5.903   2.336  0.9442 -0.7105 -1.0556
18138TIP3   OH275828   3.581   6.011   0.383  0.1408  0.1007  0.3044
18138TIP3    H175829   3.615   5.956   0.453  0.9718  0.4819  0.2113
18138TIP3    H275830   3.497   6.044   0.416 -0.8052 -1.8852  0.0276
18139TIP3   OH275831   3.605   6.573  11.170  0.8075  0.8793 -0.2120
18139TIP3    H175832   3.588   6.504  11.106 -2.1535  0.4633  0.9048
18139TIP3    H275833   3.579   6.654  11.125  0.2720  0.7791 -0.0805
18140TIP3   OH275834   4.211   1.227   2.069  0.3189  0.2135  0.5993
18140TIP3    H175835   4.249   1.188   1.990 -0.2307  1.0071 -0.0672
18140TIP3    H275836   4.286   1.254   2.122  0.6865 -0.2952  0.3486
18141TIP3   OH275837   6.232   1.554  11.137  0.3047 -0.8518 -0.1713
18141TIP3    H175838   6.256   1.556  11.230 -2.2444 -1.0673  0.5750
18141TIP3    H275839   6.220   1.462  11.117 -3.6170 -0.7296  0.7101
18142TIP3   OH275840   5.800   5.548   0.313 -0.1781  0.3594 -0.4245
18142TIP3    H175841   5.837   5.483   0.254 -0.7636  0.7750 -1.2782
18142TIP3    H275842   5.820   5.632   0.272  1.4375  0.7982  1.1678
18143TIP3   OH275843   5.687   5.403  11.759  0.0225  0.0182  0.0921
18143TIP3    H175844   5.676   5.347  11.836 -0.8072 -1.0714 -0.7935
18143TIP3    H275845   5.658   5.489  11.788 -1.9580 -0.7440  0.5464
18144TIP3   OH275846   0.942   5.364   0.732  0.9158 -0.4985 -0.5608
18144TIP3    H175847   0.968   5.392   0.820  1.6654  1.2518 -1.3041
18144TIP3    H275848   0.897   5.281   0.746 -0.3172  0.4578  1.6532
18145TIP3   OH275849   4.437   0.729   0.312 -0.1945  0.0925 -0.2235
18145TIP3    H175850   4.501   0.698   0.375 -2.2280 -0.6344  1.6327
18145TIP3    H275851   4.365   0.762   0.366 -0.9535  1.8291 -2.1966
18146TIP3   OH275852   2.942   6.560  17.064 -0.0221 -0.3719  0.5382
18146TIP3    H175853   3.014   6.605  17.108  0.9749  0.5100 -1.8204
18146TIP3    H275854   2.985   6.507  16.996 -1.5421 -0.1297 -0.6674
18147TIP3   OH275855   1.164   2.849   0.052  0.1883  0.4214 -0.0858
18147TIP3    H175856   1.130   2.833  -0.036 -0.7953 -0.4021  0.4258
18147TIP3    H275857   1.259   2.856   0.040  0.0864  0.1062 -1.1788
18148TIP3   OH275858   6.320   5.943   0.247 -0.2352 -0.4958  0.4715
18148TIP3    H175859   6.319   5.917   0.339  0.9785  0.2670  0.7199
18148TIP3    H275860   6.270   6.025   0.245 -0.6947 -0.7749  0.3565
18149TIP3   OH275861   3.452   6.452  12.254 -0.2446 -0.0644 -0.1819
18149TIP3    H175862   3.385   6.421  12.193 -0.2540 -0.3433 -0.0277
18149TIP3    H275863   3.413   6.528  12.297 -0.5350 -0.3539  0.0590
18150TIP3   OH275864   4.372   1.258   0.847 -0.0859  0.4129 -0.0336
18150TIP3    H175865   4.295   1.247   0.903 -0.3918  2.1197 -0.0797
18150TIP3    H275866   4.441   1.288   0.906  0.6281 -1.2637  0.0363
18151TIP3   OH275867   4.363   6.746  15.028  0.2108  0.1361  0.3911
18151TIP3    H175868   4.311   6.745  15.109 -0.7450 -1.8074 -0.1801
18151TIP3    H275869   4.402   6.833  15.026 -0.3391  0.5021  2.5634
18152TIP3   OH275870   2.140   1.399   1.756  0.2783 -0.2231  0.2792
18152TIP3    H175871   2.113   1.330   1.816 -1.8201 -1.1713 -1.5871
18152TIP3    H275872   2.234   1.409   1.770  0.2618 -1.9915  2.0481
18153TIP3   OH275873   2.238   2.842   2.337  0.1218 -0.6024  0.0066
18153TIP3    H175874   2.167   2.831   2.274 -0.2349  0.3485  0.2346
18153TIP3    H275875   2.292   2.912   2.301 -0.4419  0.4048  1.0610
18154TIP3   OH275876   3.775   4.702   1.316  0.3327  0.1490 -0.5353
18154TIP3    H175877   3.748   4.794   1.312  0.2886  0.1170 -0.9943
18154TIP3    H275878   3.843   4.694   1.250  0.0576 -0.2383 -0.7791
18155TIP3   OH275879   3.944   4.068  14.853  0.7283 -0.1876  0.0189
18155TIP3    H175880   3.989   4.085  14.770 -0.2325 -1.6584 -0.8518
18155TIP3    H275881   3.918   3.976  14.847 -0.7210  0.1053  1.2886
18156TIP3   OH275882   1.074   4.025  13.724  0.4441 -0.2054 -0.5371
18156TIP3    H175883   1.128   3.965  13.776 -1.2402  0.1468  1.7764
18156TIP3    H275884   1.119   4.109  13.730  0.2132 -0.1479  0.4687
18157TIP3   OH275885   6.520   1.007  13.070 -0.0016 -0.0757  0.2946
18157TIP3    H175886   6.522   1.098  13.100  0.9522 -0.2694  0.8845
18157TIP3    H275887   6.431   0.977  13.088 -0.7648  1.1439 -1.2164
18158TIP3   OH275888   3.785   0.126  16.989 -0.1140  0.6599  0.4041
18158TIP3    H175889   3.878   0.109  16.975 -0.5167  0.3823 -2.7093
18158TIP3    H275890   3.781   0.216  17.021  1.1933  1.2687 -1.0257
18159TIP3   OH275891   6.262   6.752   2.773 -0.0319  0.0067 -0.1766
18159TIP3    H175892   6.326   6.780   2.838 -0.7321 -0.3348  0.6863
18159TIP3    H275893   6.202   6.826   2.765  0.3542  0.2584 -0.8531
18160TIP3   OH275894   0.179   1.064  13.337 -0.4392  0.3716 -0.0311
18160TIP3    H175895   0.123   0.986  13.339  0.7812 -0.5560 -0.7709
18160TIP3    H275896   0.244   1.049  13.405 -0.5256  1.0219  0.2042
18161TIP3   OH275897   6.048   5.567   5.522 -0.0369 -0.5090 -0.3679
18161TIP3    H175898   6.049   5.640   5.584 -1.0141  0.3602 -1.3483
18161TIP3    H275899   6.134   5.569   5.481  0.4542 -0.8062  0.5974
18162TIP3   OH275900   0.390   4.895  12.590 -0.3790  0.3516 -0.3876
18162TIP3    H175901   0.373   4.801  12.599 -1.9348  0.7289  1.1742
18162TIP3    H275902   0.384   4.929  12.679  1.0003  1.8331 -0.8142
18163TIP3   OH275903   5.325   5.836   5.150  0.2198  0.2826 -0.2045
18163TIP3    H175904   5.385   5.824   5.077 -1.4706 -0.8128 -1.4899
18163TIP3    H275905   5.339   5.759   5.205  1.3286  0.9943  0.5492
18164TIP3   OH275906   0.609   0.753  15.148  0.3103  0.1487 -0.2681
18164TIP3    H175907   0.528   0.709  15.172  0.3732  0.5323  0.6948
18164TIP3    H275908   0.592   0.790  15.062 -0.4687  0.0567 -0.1608
18165TIP3   OH275909   3.485   2.583   1.039 -0.6864  0.2147 -0.7731
18165TIP3    H175910   3.479   2.623   1.126 -1.3191 -2.0896  0.3230
18165TIP3    H275911   3.578   2.563   1.028 -0.7293 -0.2835 -0.2398
18166TIP3   OH275912   5.435   3.077  14.806  0.4826 -0.7231  0.2150
18166TIP3    H175913   5.445   3.035  14.891 -0.5522 -0.6917  0.3704
18166TIP3    H275914   5.523   3.103  14.781  0.9000 -1.4126  0.9258
18167TIP3   OH275915   2.820   4.950  15.144 -0.3679  0.5359 -0.5403
18167TIP3    H175916   2.783   4.911  15.065 -1.8360  0.1020  0.3226
18167TIP3    H275917   2.907   4.981  15.117 -0.6472 -0.0073 -2.1875
18168TIP3   OH275918   2.596   0.437   0.199 -0.0421  0.3972  0.3679
18168TIP3    H175919   2.690   0.417   0.190 -0.0735 -0.5997  1.9601
18168TIP3    H275920   2.556   0.355   0.226 -1.2772  0.9928  0.4275
18169TIP3   OH275921   6.117   5.818   1.702  0.2229  0.1723  0.5827
18169TIP3    H175922   6.075   5.832   1.617  0.6225  0.0753  0.3614
18169TIP3    H275923   6.174   5.894   1.714  0.8304 -0.2333  0.3455
18170TIP3   OH275924   5.094   3.938  14.010  0.6132  0.4043 -0.1738
18170TIP3    H175925   5.142   3.947  14.092  0.3562  0.2828 -0.0089
18170TIP3    H275926   5.102   4.024  13.968  1.8248  0.1000 -0.6247
18171TIP3   OH275927   0.539   4.924  13.907 -0.0405  0.2661  0.2739
18171TIP3    H175928   0.609   4.889  13.962  0.1962  1.7221  0.9365
18171TIP3    H275929   0.573   4.917  13.818 -0.4972 -2.2805  0.2147
18172TIP3   OH275930   1.568   2.570  12.679 -0.1637  0.0901 -0.2975
18172TIP3    H175931   1.476   2.544  12.689  0.0422 -0.1590  1.0341
18172TIP3    H275932   1.564   2.665  12.665 -0.5343  0.4635  1.9843
18173TIP3   OH275933   3.387   4.814   4.120 -0.0162 -0.0624 -0.3024
18173TIP3    H175934   3.373   4.881   4.187  0.6015 -0.4885  0.2570
18173TIP3    H275935   3.417   4.738   4.168 -0.1998 -0.5811 -1.0000
18174TIP3   OH275936   6.495   2.431   0.969 -1.0510 -0.4126 -0.3728
18174TIP3    H175937   6.460   2.497   0.909 -2.2939 -1.5663 -0.9696
18174TIP3    H275938   6.487   2.348   0.921  0.0690 -1.0638  0.5180
18175TIP3   OH275939   6.073   0.691   1.869  0.6142 -0.1920  0.2294
18175TIP3    H175940   6.123   0.773   1.860 -0.4913  0.7170  1.7889
18175TIP3    H275941   6.000   0.701   1.808  0.0964  0.3320  0.9095
18176TIP3   OH275942   0.221   2.508  16.595 -0.0542 -0.1124  0.0506
18176TIP3    H175943   0.276   2.548  16.527  1.5229 -1.2108  0.6220
18176TIP3    H275944   0.178   2.435  16.550 -1.5319  1.0631 -0.5336
18177TIP3   OH275945   6.573   5.542   1.509  0.0124 -0.3508 -0.0707
18177TIP3    H175946   6.618   5.576   1.586  1.2316 -0.6581 -0.6210
18177TIP3    H275947   6.550   5.452   1.532  0.6059 -0.5267 -0.1463
18178TIP3   OH275948   1.813   4.962  12.034  0.4033  0.2001  0.3226
18178TIP3    H175949   1.771   5.041  12.002 -0.6705 -0.7881 -0.8270
18178TIP3    H275950   1.839   4.983  12.124 -1.1847  1.3660  0.5540
18179TIP3   OH275951   5.000   0.491   4.542  0.0652  0.7485 -0.3268
18179TIP3    H175952   5.028   0.574   4.580  0.5867  0.2999  0.2923
18179TIP3    H275953   5.030   0.425   4.604 -0.3619  0.0965 -0.8030
18180TIP3   OH275954   0.926   0.477  14.961  0.2075  0.5529  0.6261
18180TIP3    H175955   0.855   0.497  14.900  0.1218 -1.2844  0.0695
18180TIP3    H275956   1.005   0.502  14.914  0.1689 -1.1989 -0.4590
18181TIP3   OH275957   3.696   1.918   3.842 -0.3215 -0.0593  0.3434
18181TIP3    H175958   3.679   1.866   3.921  0.4466 -0.0681  0.5085
18181TIP3    H275959   3.611   1.924   3.799 -0.5122 -1.0923  0.5438
18182TIP3   OH275960   1.647   1.105  13.068  0.3734  0.1256  0.1870
18182TIP3    H175961   1.635   1.199  13.052 -1.0936 -0.1825 -0.7359
18182TIP3    H275962   1.713   1.078  13.005  0.5440  0.4694  0.2169
18183TIP3   OH275963   3.045   5.609   5.755  0.2063  0.2154 -0.1340
18183TIP3    H175964   2.999   5.582   5.834  1.1402  0.5331  0.5414
18183TIP3    H275965   3.081   5.695   5.776 -0.2586  0.6943 -1.2134
18184TIP3   OH275966   5.121   5.089   1.222  0.2482  0.1387  0.0605
18184TIP3    H175967   5.093   5.132   1.142  0.3442  1.2684  0.6062
18184TIP3    H275968   5.089   5.000   1.215  0.2869  0.2174 -1.2423
18185TIP3   OH275969   0.684   0.928   1.519 -0.4412  0.2459  0.0045
18185TIP3    H175970   0.648   1.015   1.504 -0.9984 -0.0652 -0.4911
18185TIP3    H275971   0.608   0.874   1.541 -0.2519 -0.3601 -0.7887
18186TIP3   OH275972   2.640   3.822  13.119  0.0062  0.2919  0.9859
18186TIP3    H175973   2.581   3.785  13.052  0.0127  0.8424  0.6733
18186TIP3    H275974   2.641   3.756  13.188  1.3374 -1.1230 -0.2768
18187TIP3   OH275975   6.412   6.358   5.472 -0.3333 -0.1838 -0.4303
18187TIP3    H175976   6.363   6.279   5.494 -0.5107 -0.3447 -1.3817
18187TIP3    H275977   6.348   6.429   5.477 -0.7268 -0.4084 -1.7924
18188TIP3   OH275978   1.710   2.018   2.614 -0.3093  0.5740  0.3516
18188TIP3    H175979   1.699   2.080   2.542 -0.2239  0.3254  0.1227
18188TIP3    H275980   1.718   1.932   2.571  2.2021  0.6706  0.5018
18189TIP3   OH275981   4.465   4.004   3.215 -0.1403 -0.4432 -0.5193
18189TIP3    H175982   4.465   4.088   3.169  0.7947  0.2849  0.7516
18189TIP3    H275983   4.556   3.973   3.207 -0.3961 -1.1666 -0.6792
18190TIP3   OH275984   4.389   3.018  14.662 -0.3488 -0.1887 -0.4637
18190TIP3    H175985   4.354   3.104  14.638 -1.2325 -0.5486 -0.5073
18190TIP3    H275986   4.436   2.989  14.584 -0.4492  0.0561 -0.6177
18191TIP3   OH275987   6.129   0.750  15.533 -0.2709  0.0592 -0.5238
18191TIP3    H175988   6.064   0.756  15.462 -2.0160 -4.8457  0.2951
18191TIP3    H275989   6.077   0.738  15.612  1.7097  1.6820  1.1573
18192TIP3   OH275990   2.601   4.657   3.609 -0.1734  0.0197  0.1417
18192TIP3    H175991   2.524   4.615   3.570 -0.8946  0.9598  0.5164
18192TIP3    H275992   2.648   4.694   3.534 -1.0643  1.0140  0.0465
18193TIP3   OH275993   2.246   5.917  15.920 -0.2330  0.6339  0.2154
18193TIP3    H175994   2.206   5.970  15.989 -0.8731  0.1757  0.2049
18193TIP3    H275995   2.272   5.836  15.964 -0.0942  0.5833  0.0422
18194TIP3   OH275996   3.370   3.111  13.006  0.7081 -0.2224 -0.6716
18194TIP3    H175997   3.375   3.107  13.101  0.5815 -0.4247 -0.6714
18194TIP3    H275998   3.460   3.123  12.977  0.5921  1.3269 -0.4689
18195TIP3   OH275999   1.808   6.218   0.123 -0.8472  0.1152  0.0313
18195TIP3    H176000   1.792   6.294   0.179  0.6747  0.4688  0.0357
18195TIP3    H276001   1.785   6.249   0.035 -0.2696  0.5930  0.0379
18196TIP3   OH276002   5.952   3.794   6.043 -0.7515 -0.3408  0.2110
18196TIP3    H176003   5.866   3.835   6.036 -0.6039 -0.1757 -0.7870
18196TIP3    H276004   5.996   3.842   6.113 -1.0631  0.3279 -0.0438
18197TIP3   OH276005   0.114   0.959   2.738 -0.2358 -0.3189 -0.9761
18197TIP3    H176006   0.172   1.009   2.681 -1.2316  1.6583 -0.3518
18197TIP3    H276007   0.035   1.012   2.745 -1.2264 -1.8308  0.0345
18198TIP3   OH276008   0.655   2.402  12.365  0.5175  0.0917 -0.5423
18198TIP3    H176009   0.646   2.461  12.290  0.6220 -1.6946 -2.0104
18198TIP3    H276010   0.649   2.460  12.441  1.3507  2.0965 -1.9114
18199TIP3   OH276011   3.611   0.470  16.476 -0.6084  0.0104  0.4552
18199TIP3    H176012   3.665   0.455  16.398  0.9088  0.1818  1.4422
18199TIP3    H276013   3.550   0.539  16.450  0.7878  1.0465 -0.1532
18200TIP3   OH276014   1.864   4.075   0.000  0.0112 -0.3818 -0.2025
18200TIP3    H176015   1.852   3.991  -0.044 -0.4803 -1.6840  2.2178
18200TIP3    H276016   1.923   4.055   0.073  1.4105  1.8338 -0.6454
18201TIP3   OH276017   0.092   2.310  14.824 -0.2426  0.2998  0.5078
18201TIP3    H176018   0.116   2.286  14.735 -3.0068  0.8766 -0.5089
18201TIP3    H276019   0.134   2.244  14.880  2.8670  0.8348 -0.9896
18202TIP3   OH276020   6.472   0.729  13.237 -0.2264 -0.0932 -0.4559
18202TIP3    H176021   6.559   0.757  13.266 -0.7728  0.5859  0.5927
18202TIP3    H276022   6.489   0.675  13.160  0.9922  1.4903 -1.3448
18203TIP3   OH276023   3.404   1.479   1.649 -0.4979 -0.3768  0.5586
18203TIP3    H176024   3.372   1.432   1.572 -0.5050  1.6960 -0.8005
18203TIP3    H276025   3.326   1.518   1.688 -0.5744 -1.9099  2.0235
18204TIP3   OH276026   3.519   0.150   1.783  0.2827  0.0625 -0.0252
18204TIP3    H176027   3.497   0.155   1.691 -2.7249 -2.1987  0.4273
18204TIP3    H276028   3.607   0.111   1.785  0.7316  0.9066 -1.8842
18205TIP3   OH276029   5.399   4.150   5.438 -0.4465 -0.3894  0.3925
18205TIP3    H176030   5.336   4.206   5.485 -1.2227 -1.3518  0.5256
18205TIP3    H276031   5.470   4.137   5.500  0.1590  1.1304  0.0598
18206TIP3   OH276032   6.256   3.597  12.479  0.0166 -0.2213 -0.0053
18206TIP3    H176033   6.224   3.655  12.409 -0.3506  0.2940  0.5776
18206TIP3    H276034   6.299   3.656  12.541 -0.1695 -0.6023  0.4926
18207TIP3   OH276035   1.465   6.047  14.587  0.1460  0.3842  0.2278
18207TIP3    H176036   1.475   6.015  14.677 -0.4811  2.9121  1.2848
18207TIP3    H276037   1.371   6.061  14.577  0.2777  0.7361 -0.6109
18208TIP3   OH276038   1.947   0.584  15.770  0.2363 -0.6894  0.5083
18208TIP3    H176039   1.937   0.663  15.824  0.2676  0.2166 -0.7484
18208TIP3    H276040   2.040   0.562  15.777  0.7439  0.7677 -0.8961
18209TIP3   OH276041   3.354   1.340   1.393 -0.0374 -0.5449  0.1594
18209TIP3    H176042   3.430   1.370   1.342  0.2479  1.2254  1.5261
18209TIP3    H276043   3.280   1.349   1.333  0.5426 -0.1985 -0.5209
18210TIP3   OH276044   5.539   4.067  13.119 -0.1877 -0.5386  0.1387
18210TIP3    H176045   5.529   3.976  13.090 -0.7039 -0.5816  0.4269
18210TIP3    H276046   5.468   4.114  13.076 -0.8469 -0.5660  1.1445
18211TIP3   OH276047   2.066   6.247  10.737  0.3084 -0.5022 -0.0296
18211TIP3    H176048   1.985   6.299  10.736  1.0164  0.6313  0.1199
18211TIP3    H276049   2.088   6.237  10.644  0.1468 -0.5843 -0.0605
18212TIP3   OH276050   3.355   3.696   0.022  0.2923 -0.5732  0.0176
18212TIP3    H176051   3.394   3.613   0.050  1.6709 -0.2370 -0.7968
18212TIP3    H276052   3.261   3.685   0.038  0.6724 -1.4929  1.8913
18213TIP3   OH276053   5.102   0.637  15.682  0.1631 -0.1222  0.1778
18213TIP3    H176054   5.163   0.646  15.609 -0.3351  0.6077 -0.1636
18213TIP3    H276055   5.030   0.695  15.660  0.5009  0.9851  1.7641
18214TIP3   OH276056   5.922   1.878   2.130  0.5965  0.2388 -0.7608
18214TIP3    H176057   6.011   1.869   2.096  1.0852  2.6893 -0.3438
18214TIP3    H276058   5.886   1.954   2.083 -1.5742 -1.1033 -1.4239
18215TIP3   OH276059   5.244   0.752  12.302 -0.1721 -0.0455 -0.4522
18215TIP3    H176060   5.255   0.666  12.262 -1.0038 -0.8304  0.9473
18215TIP3    H276061   5.177   0.740  12.369 -2.1784  2.2506 -1.8684
18216TIP3   OH276062   1.236   5.135   6.220  0.1792  0.5666 -0.6401
18216TIP3    H176063   1.319   5.087   6.215 -0.1012  0.0772 -0.5547
18216TIP3    H276064   1.169   5.071   6.200 -0.0302  1.6401 -4.0668
18217TIP3   OH276065   2.069   6.479  11.831  0.5082  0.1663 -1.3950
18217TIP3    H176066   2.141   6.538  11.809  1.9816 -0.3224  1.6340
18217TIP3    H276067   2.057   6.490  11.925 -1.7007 -1.6756 -1.3735
18218TIP3   OH276068   0.211   0.432   6.606 -0.5015 -0.1297 -0.2478
18218TIP3    H176069   0.234   0.359   6.548 -2.5760 -0.4964 -0.7038
18218TIP3    H276070   0.276   0.429   6.676  0.1072 -1.7346 -0.8327
18219TIP3   OH276071   2.009   3.221   0.990 -0.0066 -0.1379 -0.3811
18219TIP3    H176072   1.996   3.315   0.987 -0.1563 -0.1731 -0.9531
18219TIP3    H276073   2.035   3.197   0.901 -0.2277 -0.6717 -0.3066
18220TIP3   OH276074   1.410   4.468  14.054  0.4671  0.0851  0.8052
18220TIP3    H176075   1.388   4.413  14.129  0.7959  0.8629  1.4887
18220TIP3    H276076   1.388   4.557  14.082  0.8516  0.4199  0.0810
18221TIP3   OH276077   6.604   4.947  16.353 -0.3925 -0.2361 -0.4188
18221TIP3    H176078   6.665   5.005  16.308 -0.4401 -0.3301 -0.6057
18221TIP3    H276079   6.599   4.982  16.442 -0.3683  0.0066 -0.5106
18222TIP3   OH276080   0.358   2.706  11.863 -0.3490  0.3993  0.4401
18222TIP3    H176081   0.268   2.684  11.887 -1.2449  1.4056 -1.6889
18222TIP3    H276082   0.357   2.707  11.767  2.2292 -0.6420  0.3357
18223TIP3   OH276083   4.775   2.116  11.342  0.3140 -0.6842  0.1566
18223TIP3    H176084   4.803   2.202  11.312  0.3556 -1.0377 -0.8574
18223TIP3    H276085   4.799   2.057  11.271 -0.6964 -1.3775  0.3696
18224TIP3   OH276086   0.920   2.400   4.401 -0.0865  0.0935 -0.0509
18224TIP3    H176087   0.895   2.488   4.429  0.8211  0.0478  0.9444
18224TIP3    H276088   0.920   2.348   4.482  3.4858  0.1652  0.1474
18225TIP3   OH276089   4.893   5.977   1.752 -1.2947  0.3097  0.0307
18225TIP3    H176090   4.967   5.954   1.696  0.5763 -0.1804  2.5651
18225TIP3    H276091   4.841   6.037   1.699 -0.0378 -0.6767 -2.4706
18226TIP3   OH276092   6.236   1.193   4.405  0.6180  0.4082  0.1717
18226TIP3    H176093   6.215   1.165   4.494  1.1368 -2.7657 -0.5809
18226TIP3    H276094   6.251   1.287   4.412 -1.0669  0.5711  3.0808
18227TIP3   OH276095   3.137   4.309  15.878  0.0718  0.8816  0.4420
18227TIP3    H176096   3.169   4.221  15.858  2.6481  1.0810  2.9482
18227TIP3    H276097   3.095   4.301  15.964  0.5227  2.0887  0.8006
18228TIP3   OH276098   4.350   5.095  13.291 -0.0490  0.4109  0.0458
18228TIP3    H176099   4.339   5.103  13.386  1.7073  0.9237  0.2465
18228TIP3    H276100   4.317   5.178  13.255  1.7664  1.3676  0.4884
18229TIP3   OH276101   4.441   2.682   3.048  0.1686  0.2239 -0.0731
18229TIP3    H176102   4.510   2.735   3.007 -0.7113 -0.0438 -2.0245
18229TIP3    H276103   4.474   2.593   3.045  1.4091  0.5131  2.7006
18230TIP3   OH276104   1.309   3.186  16.776  0.3227 -0.9523 -0.0680
18230TIP3    H176105   1.331   3.139  16.696 -1.5815  1.0157 -1.9285
18230TIP3    H276106   1.235   3.137  16.814 -0.1857 -0.7347 -0.7545
18231TIP3   OH276107   1.922   3.566  14.188 -0.2179 -0.4036 -0.4662
18231TIP3    H176108   1.900   3.643  14.137  1.6060  1.0048  0.7319
18231TIP3    H276109   1.993   3.524  14.139  0.6383  0.2195  0.2129
18232TIP3   OH276110   6.062   6.296   0.776  0.6721  0.0260  0.1662
18232TIP3    H176111   6.119   6.222   0.794  1.3083  0.5617  0.4048
18232TIP3    H276112   5.986   6.283   0.832  1.2578  0.0986  0.9943
18233TIP3   OH276113   1.431   2.402   4.807 -1.0923  0.2358  0.1107
18233TIP3    H176114   1.350   2.410   4.756 -1.3441  0.7525  0.5806
18233TIP3    H276115   1.487   2.472   4.774 -0.7348 -0.2820 -0.3905
18234TIP3   OH276116   1.619   2.582   5.614 -0.9968  0.0998  0.0845
18234TIP3    H176117   1.649   2.542   5.696 -0.2556  1.0450  0.2972
18234TIP3    H276118   1.562   2.653   5.642 -0.1709  0.8841 -0.1827
18235TIP3   OH276119   6.271   4.033  14.013  0.4220  0.3256 -0.5691
18235TIP3    H176120   6.180   4.008  14.030  0.2382  2.0743  1.5060
18235TIP3    H276121   6.268   4.073  13.926 -1.2327  1.9812  0.1673
18236TIP3   OH276122   3.244   0.111  11.095  0.3604 -0.0872 -0.3692
18236TIP3    H176123   3.172   0.112  11.158  1.4550 -0.6922  0.9412
18236TIP3    H276124   3.244   0.200  11.058 -0.0904  0.3947  0.7396
18237TIP3   OH276125   2.903   4.696   2.047  0.6939  0.4368  0.3661
18237TIP3    H176126   2.920   4.630   2.114  1.2137  0.9852  0.7849
18237TIP3    H276127   2.989   4.734   2.028  0.5097  0.4564 -0.4325
18238TIP3   OH276128   3.366   1.887  11.803  0.1922  0.1069 -0.2641
18238TIP3    H176129   3.374   1.797  11.834  0.1468  0.0099 -0.5349
18238TIP3    H276130   3.404   1.940  11.873  1.0826 -0.1861 -0.5250
18239TIP3   OH276131   2.641   4.868   5.939  0.1922 -0.5971 -0.1175
18239TIP3    H176132   2.620   4.954   5.976  0.5740 -0.3555 -0.4560
18239TIP3    H276133   2.597   4.868   5.853  2.1163  0.2034 -1.1623
18240TIP3   OH276134   3.928   4.784   1.095 -0.1168  0.0568  0.0586
18240TIP3    H176135   3.951   4.876   1.109 -1.2945  0.3536  0.1572
18240TIP3    H276136   3.852   4.787   1.037 -0.3784 -0.8422  0.3379
18241TIP3   OH276137   3.796   0.569  16.028  0.2719  0.0178 -0.2963
18241TIP3    H176138   3.717   0.591  15.978  0.2560  1.1752  0.2165
18241TIP3    H276139   3.765   0.514  16.099 -0.6236  2.8497  1.6900
18242TIP3   OH276140   3.888   6.487   4.871  0.0832  0.2844 -0.2560
18242TIP3    H176141   3.962   6.429   4.856  0.8270  0.9506  0.7223
18242TIP3    H276142   3.925   6.575   4.869 -0.6635  0.6296  0.3267
18243TIP3   OH276143   0.465   4.853  11.219  0.4125  0.4064  0.0414
18243TIP3    H176144   0.462   4.928  11.159  1.7262  0.2783 -0.2140
18243TIP3    H276145   0.514   4.886  11.295 -1.4057  0.6342  1.1834
18244TIP3   OH276146   3.352   0.795  16.832 -0.2732 -0.1775  0.4807
18244TIP3    H176147   3.358   0.778  16.926  1.3934 -1.5447  0.1685
18244TIP3    H276148   3.441   0.814  16.805 -0.4762 -1.2648 -1.0604
18245TIP3   OH276149   3.422   0.129   1.019 -0.0667 -0.7054  0.2359
18245TIP3    H176150   3.452   0.079   1.095 -2.3311 -0.4598  1.3760
18245TIP3    H276151   3.436   0.221   1.044 -1.1278 -0.6125  0.5399
18246TIP3   OH276152   4.491   0.145   6.107  0.9907 -0.1129 -0.0394
18246TIP3    H176153   4.505   0.101   6.023  1.7055  0.3959 -0.1995
18246TIP3    H276154   4.408   0.191   6.096  0.4632 -1.0447 -0.0276
18247TIP3   OH276155   5.618   6.168   0.792 -0.4144 -0.4404  0.4869
18247TIP3    H176156   5.571   6.100   0.841 -2.6405 -0.2196 -1.2064
18247TIP3    H276157   5.649   6.124   0.713  2.3192 -0.5557  1.5193
18248TIP3   OH276158   0.573   0.437  15.040 -0.0402  0.2454  0.3299
18248TIP3    H176159   0.608   0.495  15.107  0.3294 -1.0614  1.3014
18248TIP3    H276160   0.622   0.459  14.961  1.7736 -0.3292  1.2390
18249TIP3   OH276161   1.194   3.448   5.391 -0.4736 -0.1352 -0.6004
18249TIP3    H176162   1.109   3.429   5.352 -0.0721 -0.5939 -1.2800
18249TIP3    H276163   1.213   3.372   5.447 -0.2602 -0.3097 -0.9024
18250TIP3   OH276164   1.170   3.569   4.276 -0.3732 -0.5112  0.6412
18250TIP3    H176165   1.238   3.608   4.331  0.1157 -0.3336 -0.0633
18250TIP3    H276166   1.129   3.502   4.331 -1.4792  1.2174  2.0076
18251TIP3   OH276167   0.335   4.747   5.320 -0.0326  0.5150 -0.5544
18251TIP3    H176168   0.338   4.770   5.228  1.6424 -1.4547 -1.0673
18251TIP3    H276169   0.292   4.662   5.323 -2.5004  1.7073  0.8321
18252TIP3   OH276170   0.874   4.653  12.307  0.4344 -0.2664  0.5273
18252TIP3    H176171   0.943   4.590  12.331  1.0107  0.6608  1.3531
18252TIP3    H276172   0.917   4.738  12.312 -0.2733  0.1924 -0.8235
18253TIP3   OH276173   4.493   2.605   3.344 -0.5095  0.5547 -0.2764
18253TIP3    H176174   4.457   2.623   3.257 -1.4229  1.0114  0.1772
18253TIP3    H276175   4.417   2.608   3.402 -0.0354 -0.5733  0.4262
18254TIP3   OH276176   6.211   2.840  14.634  0.3337  0.1170  0.0056
18254TIP3    H176177   6.158   2.827  14.712 -0.6560  0.2577 -0.6218
18254TIP3    H276178   6.205   2.757  14.586  1.9879 -0.4227  0.6729
18255TIP3   OH276179   2.187   1.689  12.655  0.0524 -0.6480 -0.2357
18255TIP3    H176180   2.178   1.616  12.716  0.2586  0.2047  0.8518
18255TIP3    H276181   2.104   1.737  12.663  0.3634 -0.1299 -0.0763
18256TIP3   OH276182   2.501   3.367  14.833  0.2298  0.3584 -0.2335
18256TIP3    H176183   2.524   3.446  14.882 -0.9120  0.9450 -0.6008
18256TIP3    H276184   2.581   3.344  14.785  0.6651  1.1240  0.1076
18257TIP3   OH276185   6.430   1.249   0.323  0.0594  0.5385 -0.3479
18257TIP3    H176186   6.335   1.251   0.318 -0.1341 -3.3109 -1.1266
18257TIP3    H276187   6.449   1.196   0.401  1.2994 -2.3214 -2.3907
18258TIP3   OH276188   1.519   2.097   4.558  0.2747  0.0727  0.4716
18258TIP3    H176189   1.603   2.137   4.537  0.0135  0.4481  0.1152
18258TIP3    H276190   1.496   2.133   4.644  1.1262 -1.1063  1.2229
18259TIP3   OH276191   1.381   4.925   5.795 -0.2724 -0.1396  0.7578
18259TIP3    H176192   1.373   5.020   5.794  0.1474 -0.0789 -1.7979
18259TIP3    H276193   1.329   4.898   5.871 -1.6274  2.0158  0.6917
18260TIP3   OH276194   6.666   1.668  16.196  0.1998  0.0290  0.1974
18260TIP3    H176195   6.734   1.734  16.180 -0.2271  0.7497  1.2065
18260TIP3    H276196   6.677   1.604  16.126  0.9100  0.9524 -0.5583
18261TIP3   OH276197   2.357   2.992  13.187 -0.1086  1.0715  0.0113
18261TIP3    H176198   2.328   3.038  13.108  1.9539  0.5182 -1.1570
18261TIP3    H276199   2.350   2.899  13.163  0.2539  0.8950  0.5752
18262TIP3   OH276200   5.937   1.611   5.020 -0.1746 -0.3799  0.3280
18262TIP3    H176201   5.845   1.588   5.021 -0.2272 -0.2398  2.2412
18262TIP3    H276202   5.946   1.672   4.947 -2.1586  1.6925  1.6952
18263TIP3   OH276203   3.789   5.355  13.220  0.4776  0.0870  0.3533
18263TIP3    H176204   3.721   5.322  13.277 -2.1899  0.0929 -2.5496
18263TIP3    H276205   3.834   5.276  13.188 -1.6780 -0.4651 -1.6259
18264TIP3   OH276206   4.251   6.392   0.219 -0.2335 -0.4702 -0.1830
18264TIP3    H176207   4.234   6.329   0.289  2.2545  0.1953  1.1397
18264TIP3    H276208   4.181   6.457   0.228 -0.2192 -0.6320  1.4141
18265TIP3   OH276209   4.446   6.644   3.719  0.4535  0.4151 -0.3033
18265TIP3    H176210   4.434   6.696   3.640 -0.6585  1.9109  0.7956
18265TIP3    H276211   4.536   6.613   3.715  1.0054  2.0782 -1.2152
18266TIP3   OH276212   4.293   6.405  15.166  0.2018 -0.1557 -0.1205
18266TIP3    H176213   4.294   6.427  15.259  0.1139 -1.3484  0.1846
18266TIP3    H276214   4.349   6.471  15.125 -0.6000  1.0007  0.6202
18267TIP3   OH276215   3.105   0.839  10.805  0.3226 -0.4800 -0.1856
18267TIP3    H176216   3.071   0.835  10.715  3.0157 -0.4826 -1.3175
18267TIP3    H276217   3.173   0.907  10.801  0.1989 -0.1753  1.9847
18268TIP3   OH276218   2.167   4.700  12.064  0.3409  0.6653  0.1276
18268TIP3    H176219   2.213   4.707  11.981  1.6489 -0.0458  0.7601
18268TIP3    H276220   2.196   4.617  12.101 -0.3640  0.8761  1.2121
18269TIP3   OH276221   5.657   2.933  16.874 -0.7586 -0.0253  0.5232
18269TIP3    H176222   5.649   2.838  16.878  0.3434 -0.1575 -0.0503
18269TIP3    H276223   5.572   2.966  16.905 -1.5848 -1.2053 -0.4025
18270TIP3   OH276224   5.445   0.352  13.347  0.4842  0.8433 -0.5389
18270TIP3    H176225   5.466   0.274  13.399 -2.6595 -0.5436 -1.1162
18270TIP3    H276226   5.455   0.324  13.256 -0.3756  1.1909 -0.7510
18271TIP3   OH276227   1.890   5.522  12.847 -0.1455 -0.0770 -0.0013
18271TIP3    H176228   1.834   5.444  12.847 -0.2294 -0.0173 -0.1601
18271TIP3    H276229   1.918   5.531  12.938  0.2393 -0.5620 -0.0673
18272TIP3   OH276230   3.832   2.695  15.154  0.1237  0.5916  0.2570
18272TIP3    H176231   3.902   2.668  15.095  0.7371  0.2501  1.1269
18272TIP3    H276232   3.787   2.614  15.178 -1.5952  0.9258 -1.4828
18273TIP3   OH276233   6.068   1.372  12.239 -0.5263  0.6563  0.1052
18273TIP3    H176234   5.988   1.344  12.282 -0.0900  0.5737  0.8754
18273TIP3    H276235   6.137   1.322  12.281 -0.1624 -0.0143 -1.2288
18274TIP3   OH276236   6.328   5.086  10.718  0.2405  0.0110  0.4741
18274TIP3    H176237   6.314   5.172  10.677 -1.5653 -1.0177 -1.2636
18274TIP3    H276238   6.260   5.030  10.679  1.3934 -2.2209  1.5072
18275TIP3   OH276239   1.401   0.236  14.205  0.3300  0.7537  0.0916
18275TIP3    H176240   1.447   0.288  14.139 -0.4244  2.8266  1.1311
18275TIP3    H276241   1.347   0.176  14.154  1.9265  0.2925 -1.1476
18276TIP3   OH276242   0.556   1.745   3.858  0.3833  0.6100 -0.1025
18276TIP3    H176243   0.537   1.687   3.931  3.9897 -0.2659  0.3106
18276TIP3    H276244   0.477   1.741   3.803 -1.0627 -1.4289  1.9453
18277TIP3   OH276245   2.230   0.423  12.786 -0.2806 -0.8156 -0.0403
18277TIP3    H176246   2.209   0.504  12.739  0.9200 -0.2200  0.3925
18277TIP3    H276247   2.277   0.453  12.864  1.1119 -1.9810 -0.4004
18278TIP3   OH276248   3.965   6.437   0.160  0.0901 -0.0789  0.0546
18278TIP3    H176249   3.994   6.526   0.179  0.8321 -0.3504  0.2443
18278TIP3    H276250   3.874   6.446   0.131 -0.5767  0.5292  2.1795
18279TIP3   OH276251   3.778   3.756   4.255 -0.1522  0.1489  0.0595
18279TIP3    H176252   3.715   3.828   4.261  1.3365  1.5767 -0.8825
18279TIP3    H276253   3.853   3.792   4.208  0.3506 -2.2433 -1.1345
18280TIP3   OH276254   6.619   6.463   1.344  0.2325  0.7509  0.2998
18280TIP3    H176255   6.706   6.461   1.305  0.1292 -1.9358  0.0310
18280TIP3    H276256   6.629   6.415   1.426 -0.9513  0.5516  0.3397
18281TIP3   OH276257   3.536   2.715  16.309  0.3853  0.1384  0.0051
18281TIP3    H176258   3.444   2.738  16.297  0.0788 -1.0079  0.0044
18281TIP3    H276259   3.568   2.700  16.220  0.9079  1.6496 -0.0935
18282TIP3   OH276260   2.264   2.092   5.026  0.1288  0.0889 -0.5175
18282TIP3    H176261   2.247   2.184   5.006 -2.4023 -0.3904 -0.9769
18282TIP3    H276262   2.265   2.088   5.122  0.9652  0.6738 -0.4926
18283TIP3   OH276263   3.247   2.245  15.640 -0.5469 -0.6663  0.0469
18283TIP3    H176264   3.260   2.327  15.689 -0.7335 -0.9209  0.5238
18283TIP3    H276265   3.268   2.269  15.549 -0.1271 -0.2098  0.2554
18284TIP3   OH276266   1.006   6.640  17.030 -0.1392  0.2487  0.4489
18284TIP3    H176267   1.015   6.705  17.100 -1.0090 -0.8020  1.5807
18284TIP3    H276268   1.095   6.628  16.997  0.6918 -0.7288  2.8094
18285TIP3   OH276269   4.387   5.564  16.580 -0.4333 -0.5027  0.8863
18285TIP3    H176270   4.416   5.510  16.506 -0.9419 -0.1521  0.4211
18285TIP3    H276271   4.462   5.566  16.639  0.6500  0.6552 -0.4411
18286TIP3   OH276272   5.328   6.509   6.105  0.1058 -0.1942  0.0928
18286TIP3    H176273   5.420   6.499   6.128 -0.7912 -1.3639  3.8610
18286TIP3    H276274   5.316   6.604   6.096  1.5137  0.0127  0.1653
18287TIP3   OH276275   1.609   1.995   0.725 -0.0420 -0.0730 -0.5475
18287TIP3    H176276   1.704   2.005   0.736 -0.2229  0.2162  0.9839
18287TIP3    H276277   1.596   1.996   0.630  1.4080  0.5780 -0.7744
18288TIP3   OH276278   3.582   5.708   3.227 -0.1941 -0.3856  0.4161
18288TIP3    H176279   3.509   5.659   3.189 -0.6945  1.5302 -1.2616
18288TIP3    H276280   3.548   5.741   3.310 -0.4493 -1.3561  0.7114
18289TIP3   OH276281   4.829   0.126   4.198 -0.2840  0.0625  0.1557
18289TIP3    H176282   4.757   0.143   4.259  1.2165  0.4865  1.8929
18289TIP3    H276283   4.904   0.173   4.235  0.6152  0.7599 -2.3000
18290TIP3   OH276284   1.353   4.222   1.984  0.0068  0.5579  0.3517
18290TIP3    H176285   1.417   4.222   2.055  0.6654 -0.6281 -0.2083
18290TIP3    H276286   1.351   4.312   1.953  3.4186  0.2067 -1.3422
18291TIP3   OH276287   0.451   2.558  14.759  0.3892  0.1160  0.3875
18291TIP3    H176288   0.515   2.625  14.781  1.0940 -0.3905 -0.0848
18291TIP3    H276289   0.451   2.499  14.835 -0.6964  0.9705  1.0846
18292TIP3   OH276290   4.455   4.049   2.088  0.0493  0.2981  0.6527
18292TIP3    H176291   4.542   4.044   2.126 -0.1062 -2.3560  0.8199
18292TIP3    H276292   4.408   4.111   2.144  0.9052 -0.6778  2.5134
18293TIP3   OH276293   0.661   5.696   5.180  0.1858  1.0378  0.2799
18293TIP3    H176294   0.706   5.621   5.218  1.5117  0.3092 -2.4755
18293TIP3    H276295   0.634   5.749   5.255  1.0039 -1.1600  2.2254
18294TIP3   OH276296   2.613   4.517   6.737 -0.2333 -0.3173 -0.5021
18294TIP3    H176297   2.602   4.582   6.667  0.0177 -0.1662 -0.4017
18294TIP3    H276298   2.694   4.472   6.714 -0.7503 -1.0552 -0.9412
18295TIP3   OH276299   1.847   1.915   2.063 -0.5242 -0.2877  0.0027
18295TIP3    H176300   1.935   1.885   2.087  0.1581  0.6479 -1.2341
18295TIP3    H276301   1.835   1.996   2.113 -0.3456  0.0258 -0.4610
18296TIP3   OH276302   1.787   1.486   0.870  0.1826  0.2422 -0.0344
18296TIP3    H176303   1.868   1.451   0.833 -0.5704  0.0046 -1.5535
18296TIP3    H276304   1.808   1.577   0.892  0.8172  0.2295 -0.5628
18297TIP3   OH276305   5.892   5.180   2.547 -0.2106  0.0054  0.2409
18297TIP3    H176306   5.884   5.169   2.453 -4.0650 -4.3584  0.7191
18297TIP3    H276307   5.955   5.113   2.574 -0.4529  0.0258  0.8954
18298TIP3   OH276308   5.251   0.251   4.088 -0.4070  0.6164  0.2975
18298TIP3    H176309   5.340   0.281   4.106 -0.3748 -0.3591  2.0752
18298TIP3    H276310   5.251   0.159   4.114 -1.1386 -0.3329 -2.6772
18299TIP3   OH276311   0.936   1.117   3.954  0.1645  0.2681  1.0045
18299TIP3    H176312   0.891   1.200   3.966 -1.5520 -0.3595 -0.5802
18299TIP3    H276313   1.002   1.134   3.887 -0.4313  0.2965  0.4143
18300TIP3   OH276314   1.790   5.102  16.497 -0.3075  0.1491 -0.6906
18300TIP3    H176315   1.874   5.140  16.471 -0.5039  0.9350 -0.2292
18300TIP3    H276316   1.774   5.032  16.433 -0.8627  2.1262 -2.8772
18301TIP3   OH276317   0.221   0.844  13.533 -0.0202  0.3688  0.3764
18301TIP3    H176318   0.170   0.787  13.590 -0.0609 -1.7613 -1.6453
18301TIP3    H276319   0.303   0.796  13.518  0.1384  1.0086 -1.0109
18302TIP3   OH276320   6.477   2.237   1.681 -0.2688 -0.7440 -0.3570
18302TIP3    H176321   6.467   2.306   1.746 -1.9406 -2.0145  0.8065
18302TIP3    H276322   6.553   2.265   1.629  0.4061  0.8979  1.3659
18303TIP3   OH276323   4.367   6.789  14.233 -0.0956  0.0840 -0.6247
18303TIP3    H176324   4.340   6.722  14.296  0.5678 -0.4133 -0.8555
18303TIP3    H276325   4.298   6.789  14.166 -0.3292 -0.0428 -0.3849
18304TIP3   OH276326   6.610   0.716  15.856 -0.1339 -0.2921 -0.1728
18304TIP3    H176327   6.608   0.627  15.891  0.6733  0.1791  1.1390
18304TIP3    H276328   6.696   0.749  15.879 -0.4040  0.8220 -0.6946
18305TIP3   OH276329   5.216   3.621  16.742  0.1942  0.2931 -0.3247
18305TIP3    H176330   5.243   3.556  16.806 -0.4707  1.1679  0.8922
18305TIP3    H276331   5.252   3.590  16.659  1.1257 -0.8400  0.4741
18306TIP3   OH276332   6.110   3.427   0.874  0.5267 -0.2852  0.5345
18306TIP3    H176333   6.064   3.511   0.878 -0.6764 -0.9044  0.2060
18306TIP3    H276334   6.057   3.374   0.815 -0.0062 -2.0370  2.4915
18307TIP3   OH276335   0.471   0.798   0.135 -0.1045  0.9642  0.3489
18307TIP3    H176336   0.565   0.803   0.154 -0.1379  1.2967  0.4366
18307TIP3    H276337   0.443   0.717   0.178  0.2287  0.6250 -0.0687
18308TIP3   OH276338   0.064   2.001   4.206 -0.0479  0.7769 -0.4881
18308TIP3    H176339   0.126   1.928   4.197  0.0348  0.7219  0.4568
18308TIP3    H276340   0.089   2.062   4.137  0.6629  0.4684 -0.5152
18309TIP3   OH276341   1.147   6.015   5.454  0.0314 -0.0650  0.3068
18309TIP3    H176342   1.153   6.069   5.376 -0.0887 -1.0306 -0.3812
18309TIP3    H276343   1.071   5.960   5.440  0.8506 -1.2676  0.4326
18310TIP3   OH276344   5.105   5.447  10.528 -0.0349 -0.4085  0.2173
18310TIP3    H176345   5.172   5.514  10.519  0.1126 -0.3584  1.6161
18310TIP3    H276346   5.143   5.370  10.486 -0.0305  0.2317 -1.0037
18311TIP3   OH276347   1.995   1.543   5.501 -0.2700  0.3327  0.0221
18311TIP3    H176348   1.938   1.526   5.426  0.7562  0.6017 -0.8320
18311TIP3    H276349   2.078   1.571   5.463  0.2706  0.4797  1.2602
18312TIP3   OH276350   3.616   1.988   6.086 -0.0806 -0.3027 -0.2646
18312TIP3    H176351   3.647   1.923   6.149  3.1067  1.6377  0.3826
18312TIP3    H276352   3.665   1.970   6.007 -0.6075  0.1505 -0.7053
18313TIP3   OH276353   5.211   4.664   0.038 -0.3449 -0.0651  0.0023
18313TIP3    H176354   5.305   4.653   0.022 -0.2682  0.1322  0.3143
18313TIP3    H276355   5.170   4.645  -0.047 -0.1408 -1.6519  0.2352
18314TIP3   OH276356   5.031   0.668   3.921 -0.4991 -0.0559 -0.5382
18314TIP3    H176357   4.967   0.639   3.856  0.4939  0.9270 -2.0290
18314TIP3    H276358   4.979   0.704   3.992 -1.6332  0.9406 -1.8190
18315TIP3   OH276359   2.680   2.462  16.325  0.1705 -0.1908  0.1721
18315TIP3    H176360   2.592   2.500  16.330  0.2152 -0.0504 -0.1079
18315TIP3    H276361   2.673   2.395  16.257 -0.6817 -2.7581  2.5558
18316TIP3   OH276362   4.752   3.273  16.329 -0.4450 -0.1747 -0.3701
18316TIP3    H176363   4.776   3.361  16.302 -2.9848  0.6062 -0.4263
18316TIP3    H276364   4.828   3.240  16.377  1.0588  1.5086 -1.4858
18317TIP3   OH276365   6.417   1.338  14.807  0.1027 -0.0727  0.2049
18317TIP3    H176366   6.420   1.433  14.820  2.2652 -0.2511  1.5090
18317TIP3    H276367   6.348   1.308  14.866  0.7584  0.5210  1.3073
18318TIP3   OH276368   0.658   2.029  12.619  0.2830  0.6508 -0.1636
18318TIP3    H176369   0.582   2.002  12.568 -0.1310 -0.0960  0.8289
18318TIP3    H276370   0.621   2.067  12.699  0.9261 -1.5693  1.2774
18319TIP3   OH276371   3.145   2.803   5.648  0.2710  0.2238 -0.0023
18319TIP3    H176372   3.184   2.890   5.637 -0.9024  0.8216  0.3440
18319TIP3    H276373   3.165   2.757   5.566  0.2493  1.0904 -0.5095
18320TIP3   OH276374   0.955   4.870   3.632 -0.4251  0.1582  0.2706
18320TIP3    H176375   0.940   4.805   3.700 -0.7678 -1.7761 -1.5471
18320TIP3    H276376   1.045   4.855   3.603 -1.3775 -1.6608 -2.1576
18321TIP3   OH276377   2.059   0.759  11.736  0.3891 -0.1358  0.9810
18321TIP3    H176378   1.991   0.709  11.692  0.9842 -0.5825  0.5431
18321TIP3    H276379   2.136   0.702  11.735  0.7020  0.2467  1.7054
18322TIP3   OH276380   0.105   2.820  12.422  0.0994  0.2474 -0.1634
18322TIP3    H176381   0.013   2.807  12.445  0.4061 -0.4272  0.7442
18322TIP3    H276382   0.102   2.859  12.335 -1.0185 -1.0165 -0.7405
18323TIP3   OH276383   1.744   5.390   2.466  0.6272 -0.5192  0.5107
18323TIP3    H176384   1.818   5.369   2.409 -0.8824 -2.7283 -0.8280
18323TIP3    H276385   1.781   5.393   2.554  2.9462  2.4760 -0.4184
18324TIP3   OH276386   0.593   6.560   5.360  0.4166  0.4626  0.3266
18324TIP3    H176387   0.560   6.650   5.356 -0.7187  0.0745  0.6848
18324TIP3    H276388   0.550   6.522   5.436  1.5627 -0.1335  0.7048
18325TIP3   OH276389   3.525   5.497  15.620 -0.0079 -0.1684  0.1711
18325TIP3    H176390   3.446   5.517  15.571 -0.9705 -1.1519  1.2617
18325TIP3    H276391   3.522   5.556  15.695  0.6425  0.2529 -0.1318
18326TIP3   OH276392   3.474   0.106  15.721 -0.0095 -1.1177 -0.2058
18326TIP3    H176393   3.501   0.167  15.789 -0.2782 -1.3942  0.1502
18326TIP3    H276394   3.508   0.022  15.749  1.6869 -0.9033 -1.4477
18327TIP3   OH276395   4.048   6.762  14.977  0.3227 -0.2097 -0.5213
18327TIP3    H176396   4.116   6.774  14.911  0.0937  0.6907 -0.6058
18327TIP3    H276397   4.089   6.788  15.059  0.3371 -0.4817 -0.4409
18328TIP3   OH276398   2.809   6.405  11.649  0.5074 -0.6408 -0.1411
18328TIP3    H176399   2.866   6.351  11.595  1.0471  2.6708 -3.2023
18328TIP3    H276400   2.836   6.495  11.631 -1.4603  0.8489  3.3225
18329TIP3   OH276401   1.142   0.337   6.079 -0.2715  0.4537 -0.1424
18329TIP3    H176402   1.079   0.407   6.062  0.1708  0.6091 -1.2325
18329TIP3    H276403   1.154   0.338   6.174  0.2905  2.3822 -0.1937
18330TIP3   OH276404   6.103   0.132   1.937 -0.6738  0.0120  0.1582
18330TIP3    H176405   6.087   0.226   1.939  1.7194  0.4785  0.5235
18330TIP3    H276406   6.062   0.102   1.856  1.2934  1.9987 -1.7120
18331TIP3   OH276407   1.318   1.807  16.849 -0.4070  1.0495  0.2457
18331TIP3    H176408   1.387   1.847  16.903 -0.4524 -0.7801  1.7749
18331TIP3    H276409   1.365   1.763  16.778  0.3696 -1.9585  2.3988
18332TIP3   OH276410   0.549   5.601  12.169 -0.0734 -0.6515  0.0657
18332TIP3    H176411   0.476   5.624  12.226  0.6276  1.9026  0.0373
18332TIP3    H276412   0.508   5.579  12.085 -0.8703 -0.3649  0.3693
18333TIP3   OH276413   0.139   5.481   6.067 -0.2412 -0.2613  0.2961
18333TIP3    H176414   0.141   5.508   5.975 -2.8829 -1.3841 -0.1663
18333TIP3    H276415   0.081   5.543   6.110 -0.6672 -0.9589  0.7515
18334TIP3   OH276416   1.264   5.818   0.339  0.3378 -0.4551 -0.2740
18334TIP3    H176417   1.195   5.752   0.351 -0.5484  0.6891  1.4818
18334TIP3    H276418   1.324   5.779   0.276 -1.0734 -2.1848 -0.6387
18335TIP3   OH276419   1.120   3.584   1.854  0.3424 -0.2263  0.4913
18335TIP3    H176420   1.106   3.675   1.880 -1.9297 -0.6877  1.1251
18335TIP3    H276421   1.034   3.555   1.821  0.7740 -2.3630  1.0833
18336TIP3   OH276422   2.948   6.046  13.550  0.0525  0.3796 -0.1090
18336TIP3    H176423   2.978   5.964  13.510  1.1449  0.4578  0.5180
18336TIP3    H276424   2.910   6.019  13.634  0.8379  0.5482  0.3092
18337TIP3   OH276425   0.700   5.208   5.549 -0.0054  0.4214  0.3676
18337TIP3    H176426   0.703   5.113   5.563 -1.5062  0.0372 -1.5253
18337TIP3    H276427   0.646   5.241   5.620 -1.1185 -0.4151 -0.0660
18338TIP3   OH276428   2.812   1.772  12.738 -0.1518 -0.0423  0.3699
18338TIP3    H176429   2.898   1.812  12.750 -0.1689  0.3132 -0.6207
18338TIP3    H276430   2.786   1.745  12.826  0.7989  0.1979  0.7383
18339TIP3   OH276431   5.395   3.441  10.887 -0.0534  0.5890  0.0806
18339TIP3    H176432   5.385   3.526  10.845 -1.5469  0.3616 -0.0592
18339TIP3    H276433   5.307   3.402  10.886  0.2878 -0.3083  1.5260
18340TIP3   OH276434   0.664   1.823   3.522 -0.1951  0.2240 -0.1720
18340TIP3    H176435   0.574   1.849   3.502 -0.4295  0.9070  1.6508
18340TIP3    H276436   0.655   1.737   3.564 -0.0919  0.6669  0.7796
18341TIP3   OH276437   3.737   1.442   3.287 -0.3385 -0.4944  0.0057
18341TIP3    H176438   3.710   1.399   3.205 -0.0173  0.7058 -0.7483
18341TIP3    H276439   3.679   1.517   3.295  1.2094  0.7987 -0.4325
18342TIP3   OH276440   2.427   5.729   0.691  0.2128  0.8208 -0.1803
18342TIP3    H176441   2.450   5.699   0.603  0.6121  0.0645  0.1770
18342TIP3    H276442   2.460   5.819   0.695  0.7852  0.6318 -0.5746
18343TIP3   OH276443   6.547   6.432   0.919 -0.4688  0.0543  0.4227
18343TIP3    H176444   6.555   6.350   0.966 -0.0559  0.4886  1.1207
18343TIP3    H276445   6.456   6.434   0.889 -0.5379 -0.5530  0.5858
18344TIP3   OH276446   1.928   1.852  12.474 -0.1390  0.0420  0.2370
18344TIP3    H176447   1.881   1.818  12.398 -1.1416 -0.4950  1.0662
18344TIP3    H276448   1.885   1.934  12.495  1.1191  0.9651 -0.6702
18345TIP3   OH276449   3.126   6.200   4.408 -0.4644  0.2354 -0.2547
18345TIP3    H176450   3.031   6.194   4.417 -0.5411 -0.3116 -1.2966
18345TIP3    H276451   3.158   6.113   4.430 -0.3136  0.1010 -0.9602
18346TIP3   OH276452   0.497   1.553  16.504  0.0832  0.1746  0.1978
18346TIP3    H176453   0.552   1.624  16.538  1.8639 -1.1180  0.1003
18346TIP3    H276454   0.506   1.483  16.568 -0.4098 -0.5450 -0.5061
18347TIP3   OH276455   0.087   6.076   2.397 -0.0854 -0.6896  0.2755
18347TIP3    H176456   0.061   6.096   2.307  1.6795  1.7268  0.1895
18347TIP3    H276457   0.066   5.984   2.409 -1.4807 -0.7699 -2.1933
18348TIP3   OH276458   0.905   5.451   3.395 -0.0379 -0.3926  0.2575
18348TIP3    H176459   0.998   5.461   3.374  0.0196 -0.9263  0.2310
18348TIP3    H276460   0.888   5.358   3.381 -1.2959  0.1643 -2.6717
18349TIP3   OH276461   5.379   2.257  10.802  0.0861  0.2992 -0.2411
18349TIP3    H176462   5.345   2.325  10.746  1.4468  2.0087  0.8929
18349TIP3    H276463   5.450   2.216  10.752  0.5589  1.0674 -0.2114
18350TIP3   OH276464   2.310   0.831  14.664  0.1554  0.1259 -0.2438
18350TIP3    H176465   2.304   0.894  14.736  3.1933  1.8624 -1.3124
18350TIP3    H276466   2.283   0.880  14.586 -1.1960 -1.1433 -0.6279
18351TIP3   OH276467   0.211   6.341   0.526 -0.1093 -0.6295 -0.4242
18351TIP3    H176468   0.179   6.365   0.439  1.9934 -0.0778 -1.1014
18351TIP3    H276469   0.142   6.286   0.562 -2.4541  1.5589 -1.1989
18352TIP3   OH276470   4.869   4.183  12.452 -0.2008  0.0819  0.4116
18352TIP3    H176471   4.829   4.257  12.406 -0.4971 -1.2556 -1.5974
18352TIP3    H276472   4.815   4.172  12.530 -2.7395 -0.4991 -1.2740
18353TIP3   OH276473   1.034   4.779  16.190 -0.2540 -0.2487 -0.9128
18353TIP3    H176474   1.000   4.708  16.244  0.0579  0.1098 -0.2370
18353TIP3    H276475   1.038   4.855  16.249 -1.0628  0.4739 -1.7460
18354TIP3   OH276476   3.591   5.372  11.734 -0.0898 -0.1554  0.4558
18354TIP3    H176477   3.649   5.446  11.723 -0.0098 -0.3595 -0.6157
18354TIP3    H276478   3.644   5.295  11.713 -0.4349 -0.4383  0.5831
18355TIP3   OH276479   5.787   5.782   0.605 -0.4702  0.5696  0.0598
18355TIP3    H176480   5.734   5.862   0.605 -2.8426 -0.9176  0.6528
18355TIP3    H276481   5.732   5.716   0.564  0.8270 -1.1374  0.9370
18356TIP3   OH276482   5.472   0.696   0.878  0.6556  0.2155 -0.5260
18356TIP3    H176483   5.381   0.675   0.897  0.7877 -0.5539 -0.7015
18356TIP3    H276484   5.521   0.656   0.950  0.7745  1.7247  0.2732
18357TIP3   OH276485   2.477   2.277   5.149 -0.3787 -0.4243  0.4873
18357TIP3    H176486   2.553   2.331   5.128 -1.9807  1.2795 -1.3154
18357TIP3    H276487   2.510   2.187   5.144  1.2581  0.2000 -1.5128
18358TIP3   OH276488   3.413   3.208  15.808  0.2465 -0.2003  0.1124
18358TIP3    H176489   3.496   3.174  15.773 -0.2920 -1.8902  0.3959
18358TIP3    H276490   3.346   3.160  15.760 -0.5364 -0.2066  1.1782
18359TIP3   OH276491   1.744   6.724  14.054  0.4407  0.5498 -0.5953
18359TIP3    H176492   1.726   6.818  14.055  1.9355  0.9039 -1.7753
18359TIP3    H276493   1.816   6.713  14.116  0.3217  0.1886 -0.5174
18360TIP3   OH276494   2.648   0.496   1.220 -0.2905  0.3604  0.2391
18360TIP3    H176495   2.718   0.560   1.233 -1.4088  1.4718  0.9955
18360TIP3    H276496   2.621   0.471   1.308  0.3050 -1.4229 -0.0296
18361TIP3   OH276497   3.815   2.747   5.875 -0.2272  0.0114  0.0883
18361TIP3    H176498   3.908   2.738   5.896 -0.3017  0.7818  0.8041
18361TIP3    H276499   3.780   2.802   5.944 -0.8163  1.3651 -1.2283
18362TIP3   OH276500   1.895   2.023   3.615 -0.3300  0.0329  0.0036
18362TIP3    H176501   1.822   2.071   3.575 -1.4227 -1.0414  0.6484
18362TIP3    H276502   1.939   2.088   3.670 -0.0593  0.9970 -1.3098
18363TIP3   OH276503   0.727   1.724  16.025 -0.3446 -0.1647 -0.3244
18363TIP3    H176504   0.654   1.663  16.027  0.3287 -1.0057 -0.6477
18363TIP3    H276505   0.750   1.731  15.933 -0.8720  1.1582 -0.3733
18364TIP3   OH276506   3.231   5.903   3.199 -0.1863  0.5199  0.5719
18364TIP3    H176507   3.177   5.959   3.144  1.4238  0.9140 -0.6816
18364TIP3    H276508   3.286   5.854   3.138 -0.0906 -0.8938  1.7310
18365TIP3   OH276509   1.619   0.050  14.716  0.4694 -0.0307 -0.2111
18365TIP3    H176510   1.655   0.106  14.785 -0.4235  4.0211 -2.6669
18365TIP3    H276511   1.525   0.047  14.734  0.5979 -1.7350  0.4098
18366TIP3   OH276512   0.142   4.103  16.566  0.2930  0.3502  0.4405
18366TIP3    H176513   0.186   4.025  16.600 -0.8476 -0.6479 -0.3096
18366TIP3    H276514   0.050   4.078  16.560  0.0036  1.5456 -0.4022
18367TIP3   OH276515   1.428   3.395   2.505 -0.8765  0.0252 -0.1696
18367TIP3    H176516   1.385   3.331   2.449  1.0975 -0.2765 -1.4066
18367TIP3    H276517   1.514   3.409   2.466  0.1985  0.6082  2.1863
18368TIP3   OH276518   4.356   4.301   1.669  0.0316  0.0157  0.2799
18368TIP3    H176519   4.363   4.294   1.574 -0.2634  0.8727  0.1875
18368TIP3    H276520   4.409   4.377   1.691 -0.4926  0.2581  0.7264
18369TIP3   OH276521   4.709   6.036   2.280  0.4628  0.4812  0.0246
18369TIP3    H176522   4.650   6.047   2.354 -0.5196  1.7153 -0.8827
18369TIP3    H276523   4.783   6.094   2.299  0.2178  0.7839  0.0735
18370TIP3   OH276524   6.490   0.282  15.849 -0.2639 -0.2813 -0.2372
18370TIP3    H176525   6.577   0.306  15.819 -0.0040 -1.1643 -0.2187
18370TIP3    H276526   6.432   0.302  15.775 -0.1935  1.1640  0.0747
18371TIP3   OH276527   6.193   5.215  14.851 -0.4970  0.1134  0.1407
18371TIP3    H176528   6.196   5.297  14.800 -1.8409 -0.0985 -0.3193
18371TIP3    H276529   6.193   5.146  14.785  0.7456 -0.2964  0.5305
18372TIP3   OH276530   2.978   0.950  16.720  0.3950 -0.0703  0.3982
18372TIP3    H176531   2.915   0.878  16.725  0.1916  0.0889  0.1261
18372TIP3    H276532   2.925   1.029  16.719  0.5612  0.0472 -0.5474
18373TIP3   OH276533   5.661   3.144   0.100  1.0147  0.0898  0.6741
18373TIP3    H176534   5.741   3.137   0.151  0.7373 -2.5015  0.8830
18373TIP3    H276535   5.685   3.112   0.013  0.2300 -0.7702  0.7575
18374TIP3   OH276536   0.214   0.129   2.192 -0.1851  0.2829  0.2206
18374TIP3    H176537   0.168   0.185   2.255 -1.3843 -1.3157  0.8361
18374TIP3    H276538   0.144   0.084   2.145  0.6085  2.0223 -2.9382
18375TIP3   OH276539   6.539   0.554   2.447  0.6304 -0.0810  0.3894
18375TIP3    H176540   6.494   0.573   2.365 -0.2789 -2.1343  0.3622
18375TIP3    H276541   6.536   0.637   2.496 -0.0439  0.7804 -1.0636
18376TIP3   OH276542   4.385   2.271   2.249 -0.1017 -0.2023 -0.2085
18376TIP3    H176543   4.433   2.344   2.210 -1.4393  0.5947 -0.4526
18376TIP3    H276544   4.443   2.238   2.318 -0.3235  2.5926  1.5196
18377TIP3   OH276545   1.228   2.216   2.182 -0.5163 -0.1872  0.0890
18377TIP3    H176546   1.272   2.147   2.230 -0.9434 -0.5708 -0.0651
18377TIP3    H276547   1.247   2.199   2.090 -1.1851 -0.5025  0.0034
18378TIP3   OH276548   4.607   4.789  14.947 -0.3379 -0.4260  0.2597
18378TIP3    H176549   4.625   4.866  15.000  0.3496 -0.2977 -0.1577
18378TIP3    H276550   4.529   4.750  14.987 -0.8226  0.5965  0.3453
18379TIP3   OH276551   1.075   6.107  13.855  0.0671  0.5980  0.1055
18379TIP3    H176552   1.000   6.163  13.873 -1.2668 -1.1024  0.0267
18379TIP3    H276553   1.136   6.163  13.807 -1.3858  1.8515 -0.3327
18380TIP3   OH276554   4.081   3.519  11.411 -0.2085  0.7785  0.2591
18380TIP3    H176555   4.101   3.428  11.389 -1.6131  0.4419  0.3022
18380TIP3    H276556   4.121   3.531  11.497  2.6457  1.1777 -1.0027
18381TIP3   OH276557   0.082   6.130  14.145  0.1008  0.0892 -0.4158
18381TIP3    H176558   0.020   6.182  14.197  1.2381  1.1664 -0.0663
18381TIP3    H276559   0.053   6.040  14.155  0.7205  0.1140  2.8584
18382TIP3   OH276560   1.641   0.297   1.316  0.1827 -0.2744 -0.3099
18382TIP3    H176561   1.602   0.239   1.249 -0.8442  0.1308 -0.0885
18382TIP3    H276562   1.735   0.295   1.298 -0.0584 -0.2818 -1.6824
18383TIP3   OH276563   2.161   4.990  12.387 -0.2637 -0.0098 -0.7293
18383TIP3    H176564   2.251   4.998  12.357  0.3275  0.4370  1.0866
18383TIP3    H276565   2.164   4.929  12.460 -0.9174  2.1817  1.2505
18384TIP3   OH276566   1.486   4.333  11.063  1.0350 -0.1712 -0.9652
18384TIP3    H176567   1.530   4.306  10.983  0.2244  2.1827 -2.3222
18384TIP3    H276568   1.502   4.427  11.068  0.1326 -0.0804  1.0659
18385TIP3   OH276569   2.485   4.678   5.241  0.2463  0.6251 -0.0704
18385TIP3    H176570   2.431   4.616   5.290  0.5017  1.3495  1.1452
18385TIP3    H276571   2.567   4.683   5.291  0.5499  1.3072 -0.6258
18386TIP3   OH276572   1.137   0.354   2.662  0.2471 -0.8582  0.0445
18386TIP3    H176573   1.138   0.359   2.758 -0.8720 -1.5413  0.1029
18386TIP3    H276574   1.059   0.403   2.636  1.4500  0.7810 -0.6449
18387TIP3   OH276575   0.549   0.984   5.284  0.0727  0.0663  0.4027
18387TIP3    H176576   0.602   1.021   5.213  0.3845  0.2485  0.7289
18387TIP3    H276577   0.484   1.052   5.303 -0.4479 -0.2526 -0.1613
18388TIP3   OH276578   4.961   2.088  14.869 -0.2685 -0.4675 -0.9254
18388TIP3    H176579   4.944   2.049  14.955 -1.4606 -1.3523 -1.5362
18388TIP3    H276580   5.051   2.119  14.874 -1.4438  3.3269  2.0868
18389TIP3   OH276581   6.523   2.266   3.008  0.3143  0.1071 -0.3665
18389TIP3    H176582   6.462   2.322   2.960  1.4531  2.5332  0.8440
18389TIP3    H276583   6.603   2.267   2.955  0.4031 -0.2193 -0.2413
18390TIP3   OH276584   1.864   2.526  12.402 -0.0538 -0.6491 -0.1539
18390TIP3    H176585   1.840   2.492  12.488 -0.3687 -0.3884 -0.1362
18390TIP3    H276586   1.851   2.451  12.343  0.0435 -0.7929  0.0053
18391TIP3   OH276587   4.491   0.902  13.179 -0.1336 -0.8822 -0.2130
18391TIP3    H176588   4.434   0.873  13.108 -1.0668 -0.4445  0.3528
18391TIP3    H276589   4.538   0.822  13.205 -1.3782 -1.5155  0.1344
18392TIP3   OH276590   6.676   2.652   4.263  0.9087  0.1514 -0.6367
18392TIP3    H176591   6.615   2.705   4.313 -1.7645 -1.2226 -2.1598
18392TIP3    H276592   6.687   2.572   4.315 -0.8273 -0.7208 -1.5048
18393TIP3   OH276593   0.281   1.848   2.839  0.0553 -0.3239  0.0989
18393TIP3    H176594   0.241   1.840   2.752  0.7305  0.2848 -0.2779
18393TIP3    H276595   0.210   1.875   2.896 -0.5421 -1.3307 -0.1296
18394TIP3   OH276596   2.717   6.645  13.664 -0.3278 -0.1465 -0.2958
18394TIP3    H176597   2.706   6.663  13.758 -2.0342  0.1380 -0.5125
18394TIP3    H276598   2.795   6.589  13.659 -0.8539 -1.1021  1.4117
18395TIP3   OH276599   3.019   6.735  13.932 -0.4213  0.1798 -0.1742
18395TIP3    H176600   3.101   6.770  13.966  0.2309 -0.7172 -0.7555
18395TIP3    H276601   2.967   6.714  14.010  0.7051 -1.0591  0.2737
18396TIP3   OH276602   0.114   6.463   4.323  0.5969 -0.0545 -0.1637
18396TIP3    H176603   0.096   6.557   4.317  0.8479 -0.0579 -1.0374
18396TIP3    H276604   0.109   6.444   4.417  0.1234  0.7451 -0.0156
18397TIP3   OH276605   5.057   2.861  14.329  0.4851 -0.0584 -0.1678
18397TIP3    H176606   5.086   2.855  14.238  1.0892 -2.2749  0.1076
18397TIP3    H276607   4.979   2.805  14.334 -0.6421  1.4792  0.3238
18398TIP3   OH276608   3.734   6.407   6.360  0.2700 -0.1279  0.3021
18398TIP3    H176609   3.759   6.380   6.272 -0.8932 -0.7216  0.1427
18398TIP3    H276610   3.815   6.442   6.398  1.6536 -2.9382  0.1743
18399TIP3   OH276611   1.915   1.653  14.484  0.5121 -0.1546  0.2608
18399TIP3    H176612   1.964   1.733  14.465  1.9269 -1.2631 -1.0585
18399TIP3    H276613   1.957   1.617  14.562 -0.7295  0.8118  1.4223
18400TIP3   OH276614   0.542   0.915   6.033  0.4591  0.6308  0.0177
18400TIP3    H176615   0.619   0.862   6.013  0.6793  0.1691  1.9206
18400TIP3    H276616   0.575   0.987   6.087 -0.4395  0.3367  0.9911
18401TIP3   OH276617   0.227   1.531   3.139  0.5921 -0.1280  0.1867
18401TIP3    H176618   0.274   1.585   3.203  1.8266  0.1062 -0.8597
18401TIP3    H276619   0.273   1.548   3.056 -1.4640  0.2407 -0.9413
18402TIP3   OH276620   2.275   0.517   2.175 -0.0087 -0.2905 -0.3852
18402TIP3    H176621   2.229   0.449   2.126  1.1241  0.3586 -2.4835
18402TIP3    H276622   2.276   0.592   2.116  1.1360  0.6587  0.7863
18403TIP3   OH276623   2.582   0.751   2.776 -0.2030 -0.0534  0.3204
18403TIP3    H176624   2.599   0.799   2.857 -0.4936  0.4929  0.0586
18403TIP3    H276625   2.491   0.771   2.755  0.1420  0.5607 -0.6404
18404TIP3   OH276626   0.369   4.707   0.734  0.3830 -0.0967  0.2267
18404TIP3    H176627   0.336   4.687   0.646 -0.4540  0.2211  0.4569
18404TIP3    H276628   0.367   4.624   0.780 -1.0996  0.0889  0.5461
18405TIP3   OH276629   2.806   1.301  13.793  1.0018  0.0196 -0.2298
18405TIP3    H176630   2.848   1.215  13.791  1.9749  0.4561  0.6682
18405TIP3    H276631   2.774   1.314  13.703 -0.5527 -1.9231  0.0037
18406TIP3   OH276632   3.991   5.057   3.413 -0.5913 -0.4056 -0.1855
18406TIP3    H176633   4.049   4.987   3.382 -0.1494 -0.1417  0.0283
18406TIP3    H276634   4.045   5.108   3.473 -1.2375 -0.5142  0.4985
18407TIP3   OH276635   4.727   0.578  12.431 -0.3747 -0.1476 -0.4523
18407TIP3    H176636   4.759   0.608  12.516  2.1484  2.2956 -2.1046
18407TIP3    H276637   4.633   0.594  12.434 -0.2046  0.8580  1.5109
18408TIP3   OH276638   0.008   6.052  12.520  0.3991 -0.1122  0.4882
18408TIP3    H176639  -0.008   6.133  12.473  2.2591 -1.2360 -2.4171
18408TIP3    H276640   0.093   6.065  12.563 -0.0499  0.0050  1.3525
18409TIP3   OH276641   4.165   3.539  17.112  0.4554 -0.0822 -0.3402
18409TIP3    H176642   4.097   3.496  17.060  0.3483  1.7471 -1.8333
18409TIP3    H276643   4.241   3.543  17.054  1.0560  0.0684  0.4401
18410TIP3   OH276644   2.840   1.001   1.043  0.1794  0.3803 -0.0744
18410TIP3    H176645   2.832   1.076   0.984 -0.3403 -0.7873 -1.5747
18410TIP3    H276646   2.934   0.989   1.054  0.2823  2.0445  1.3167
18411TIP3   OH276647   3.871   0.577  11.467  0.0732 -0.3970  0.2392
18411TIP3    H176648   3.908   0.645  11.411  2.2542  0.8943  3.0280
18411TIP3    H276649   3.903   0.495  11.428  2.4378  0.4955  0.1206
18412TIP3   OH276650   6.777   5.287  11.087 -0.6952  0.4653 -0.4191
18412TIP3    H176651   6.682   5.293  11.094 -0.6716 -0.1348  0.6214
18412TIP3    H276652   6.808   5.376  11.107 -0.9527  0.1901  1.3633
18413TIP3   OH276653   4.968   4.988  16.219 -0.5577 -0.1572 -0.7604
18413TIP3    H176654   4.900   4.956  16.278 -0.5899 -0.6617 -1.0679
18413TIP3    H276655   5.040   4.926  16.229 -0.5762 -0.2632 -1.2740
18414TIP3   OH276656   5.395   3.302  13.774 -0.2238 -0.0355  0.0542
18414TIP3    H176657   5.366   3.392  13.758  0.4831  0.1640 -0.1608
18414TIP3    H276658   5.437   3.276  13.692  0.5863 -0.1464  0.4876
18415TIP3   OH276659   2.061   4.918   3.128 -0.9521  0.3654 -0.4086
18415TIP3    H176660   2.003   4.952   3.060 -0.4939  2.0316 -0.0292
18415TIP3    H276661   2.038   4.970   3.206 -0.1200 -0.1320  0.1774
18416TIP3   OH276662   5.377   1.863   5.999 -0.0308  0.0741  0.1168
18416TIP3    H176663   5.284   1.864   6.018 -0.2045 -0.2277 -0.6719
18416TIP3    H276664   5.414   1.798   6.060 -0.5515 -0.8140 -0.4990
18417TIP3   OH276665   6.805   6.781  13.797 -0.2667  0.0338  0.3379
18417TIP3    H176666   6.787   6.875  13.806 -0.0139  0.2355 -1.1097
18417TIP3    H276667   6.720   6.743  13.774 -0.0815  0.1355 -0.5540
18418TIP3   OH276668   4.527   5.565   4.889  0.3360 -0.2174 -0.1207
18418TIP3    H176669   4.569   5.616   4.959 -0.4902  3.0096 -1.7698
18418TIP3    H276670   4.598   5.544   4.829  0.4323  0.7690 -0.3767
18419TIP3   OH276671   5.235   4.002  12.105 -0.0426  0.0505 -0.0489
18419TIP3    H176672   5.304   4.030  12.166 -1.5091 -0.4928  1.9399
18419TIP3    H276673   5.191   3.930  12.149 -1.4627 -0.0868 -1.5910
18420TIP3   OH276674   4.451   4.432  15.187 -0.0104 -1.0161 -0.0392
18420TIP3    H176675   4.472   4.339  15.197 -0.4885 -1.2482 -1.0856
18420TIP3    H276676   4.365   4.433  15.145  0.2089 -0.1104 -0.4881
18421TIP3   OH276677   5.551   3.157  15.991 -0.0586  0.7934  0.9250
18421TIP3    H176678   5.456   3.165  15.999 -0.6968 -0.5717 -3.0331
18421TIP3    H276679   5.574   3.217  15.920  2.2829  1.8273  2.4245
18422TIP3   OH276680   4.860   2.337   3.080 -0.5295 -0.1851  0.1922
18422TIP3    H176681   4.943   2.370   3.046 -0.5898 -0.1659  0.0639
18422TIP3    H276682   4.849   2.252   3.038  0.1240 -0.8399  1.2918
18423TIP3   OH276683   1.025   1.833  12.711 -0.2659  0.2374  0.8827
18423TIP3    H176684   0.955   1.829  12.645 -1.2489 -0.2287  1.9254
18423TIP3    H276685   1.095   1.882  12.668 -1.6962  1.8266  0.2278
18424TIP3   OH276686   0.053   3.789   6.514 -0.2043 -0.5420 -0.6281
18424TIP3    H176687   0.091   3.869   6.477  0.4739 -0.6456 -0.1808
18424TIP3    H276688   0.128   3.742   6.550 -0.5170 -1.6931 -1.4556
18425TIP3   OH276689   4.007   3.352  13.043 -0.2976 -0.1017 -0.0409
18425TIP3    H176690   4.005   3.268  12.997 -0.9095 -0.5978  0.8792
18425TIP3    H276691   3.941   3.345  13.111 -0.5343  1.2274 -0.0978
18426TIP3   OH276692   4.639   6.777  16.037  0.1330 -0.1301  0.0972
18426TIP3    H176693   4.587   6.804  15.962  2.0196  0.8516 -0.9045
18426TIP3    H276694   4.621   6.683  16.046 -1.4892  0.1060 -0.4336
18427TIP3   OH276695   4.392   5.655   0.188 -0.3552 -1.1403  0.1512
18427TIP3    H176696   4.420   5.564   0.192 -1.5331 -1.5271  0.2263
18427TIP3    H276697   4.301   5.650   0.156 -0.2500  0.0452 -0.3688
18428TIP3   OH276698   5.882   2.273   6.386  0.6220 -0.6680  0.0624
18428TIP3    H176699   5.941   2.203   6.411  2.4772  0.8730  0.2182
18428TIP3    H276700   5.939   2.340   6.347 -1.2230  0.2220 -1.2712
18429TIP3   OH276701   4.677   3.015   4.184 -0.6208 -0.0485  0.2357
18429TIP3    H176702   4.763   3.032   4.223 -1.0468 -0.3024  1.3243
18429TIP3    H276703   4.622   3.085   4.217 -1.3448 -1.0898  1.2964
18430TIP3   OH276704   6.161   0.681  14.172  0.6395 -0.0003  0.2445
18430TIP3    H176705   6.161   0.710  14.081  0.4671  0.7741  0.4808
18430TIP3    H276706   6.118   0.752  14.219 -0.0557 -0.7803  0.8098
18431TIP3   OH276707   5.269   0.984   4.059  0.2267  0.5578 -0.1031
18431TIP3    H176708   5.274   1.033   3.976  1.0266  1.9840  0.7448
18431TIP3    H276709   5.197   1.025   4.106  0.7197  0.7380  0.5002
18432TIP3   OH276710   0.210   1.725  13.660  0.1263 -0.0391 -0.6434
18432TIP3    H176711   0.266   1.705  13.735 -2.5369 -0.0938  1.5057
18432TIP3    H276712   0.199   1.641  13.615  0.0590 -0.4974  0.1953
18433TIP3   OH276713   2.692   2.896   2.643 -0.9191 -0.1198 -0.0079
18433TIP3    H176714   2.776   2.937   2.622 -0.7631 -0.0297  0.7586
18433TIP3    H276715   2.627   2.950   2.598 -0.7852  1.4504  1.5601
18434TIP3   OH276716   0.435   4.761   3.060  0.0210 -0.3750 -0.0283
18434TIP3    H176717   0.525   4.783   3.037 -0.6741  1.3874 -1.2783
18434TIP3    H276718   0.434   4.757   3.156  0.8710  2.4009  0.1833
18435TIP3   OH276719   4.187   6.218   4.515  0.1786 -0.4209  0.3972
18435TIP3    H176720   4.168   6.239   4.423  1.1909  0.4497  0.3643
18435TIP3    H276721   4.127   6.147   4.536 -1.9735  1.1135 -0.1312
18436TIP3   OH276722   5.203   6.082   0.946 -0.1385  0.1248  0.2631
18436TIP3    H176723   5.259   6.080   0.868 -0.7022  0.2071 -0.1441
18436TIP3    H276724   5.243   6.150   1.001  1.4065 -1.2513  0.9279
18437TIP3   OH276725   2.974   5.039  10.989  0.2803 -0.2380  0.0024
18437TIP3    H176726   2.944   5.103  10.925  0.4616 -0.2905 -0.1354
18437TIP3    H276727   3.069   5.039  10.981  0.3261  0.0158  0.5236
18438TIP3   OH276728   2.254   1.782   5.798  0.1681 -0.3819  0.1822
18438TIP3    H176729   2.226   1.845   5.731 -1.4493  0.7740  1.8365
18438TIP3    H276730   2.230   1.824   5.881  0.2737 -2.6139  1.4098
18439TIP3   OH276731   6.754   4.568  11.508 -0.4098  0.2035  0.1225
18439TIP3    H176732   6.733   4.482  11.544 -1.7226 -0.1093 -1.2811
18439TIP3    H276733   6.749   4.555  11.413 -0.2747  1.7499 -0.1107
18440TIP3   OH276734   4.253   5.195   0.614  0.6002 -0.1542  0.6330
18440TIP3    H176735   4.345   5.182   0.591  0.6429 -1.4775  1.4464
18440TIP3    H276736   4.252   5.201   0.709 -0.1325  0.0818  0.6180
18441TIP3   OH276737   5.469   4.458   4.063  0.1617  0.0445  0.5781
18441TIP3    H176738   5.408   4.528   4.040  0.6967  0.3031 -0.0862
18441TIP3    H276739   5.458   4.392   3.995  0.2089 -0.1717  0.7768
18442TIP3   OH276740   4.675   5.668  13.285  0.4572 -0.0434 -0.5557
18442TIP3    H176741   4.683   5.629  13.199  1.5167 -2.9534  0.7327
18442TIP3    H276742   4.633   5.601  13.339  0.6157  1.3221  1.4066
18443TIP3   OH276743   4.484   3.074   0.777  0.4490  0.1265  0.2037
18443TIP3    H176744   4.520   3.054   0.690  0.0264 -0.1880  0.0982
18443TIP3    H276745   4.407   3.128   0.759  1.3288  1.5313  0.4679
18444TIP3   OH276746   1.275   1.156   4.633 -0.0752  0.3626 -0.3218
18444TIP3    H176747   1.334   1.202   4.693  0.2097 -0.3515 -0.0524
18444TIP3    H276748   1.238   1.226   4.579  1.3056  0.7918 -0.7548
18445TIP3   OH276749   5.673   4.300  13.827 -0.0500 -0.2290 -0.5283
18445TIP3    H176750   5.639   4.375  13.779  0.1901  0.0058 -0.3351
18445TIP3    H276751   5.605   4.279  13.890  1.1580  1.8522  1.6259
18446TIP3   OH276752   2.888   1.226   5.554  0.3488 -0.5712 -0.3441
18446TIP3    H176753   2.905   1.176   5.475  0.3049 -0.9184 -0.1383
18446TIP3    H276754   2.937   1.180   5.623  0.9279  0.1051 -0.2842
18447TIP3   OH276755   3.941   4.621  16.000 -0.3279  0.4279 -0.2428
18447TIP3    H176756   3.901   4.704  16.025 -0.7112  0.0547  0.4124
18447TIP3    H276757   3.995   4.642  15.924 -2.1397  0.8704 -1.4853
18448TIP3   OH276758   5.259   4.306   3.533  0.9092 -0.1426  0.4858
18448TIP3    H176759   5.202   4.375   3.497 -0.0590 -1.4332 -0.5842
18448TIP3    H276760   5.248   4.312   3.627 -0.7076 -0.0517  0.3328
18449TIP3   OH276761   6.003   2.539  11.585  0.3126 -0.3707 -0.0515
18449TIP3    H176762   5.978   2.499  11.501 -0.2255 -0.0010 -0.0740
18449TIP3    H276763   5.994   2.633  11.570 -0.6801 -0.3342  0.6962
18450TIP3   OH276764   5.282   4.646   6.072 -0.9776  0.4826 -0.1415
18450TIP3    H176765   5.337   4.718   6.101 -1.0700  0.1883  0.7970
18450TIP3    H276766   5.331   4.606   5.999 -0.3687  0.7632  0.1089
18451TIP3   OH276767   0.509   2.795   5.924 -0.1781 -0.1522  0.2535
18451TIP3    H176768   0.417   2.775   5.904  0.0802 -0.5111 -0.6482
18451TIP3    H276769   0.557   2.718   5.892  0.4624  0.1599  0.4527
18452TIP3   OH276770   2.845   5.245   1.759 -0.2008  0.2735 -0.5044
18452TIP3    H176771   2.905   5.273   1.691  0.3419 -2.7821 -1.4272
18452TIP3    H276772   2.758   5.267   1.725  0.1086 -0.5499 -1.8508
18453TIP3   OH276773   2.540   1.136   2.339 -0.0411 -0.2958  0.3621
18453TIP3    H176774   2.447   1.158   2.326  0.0927 -0.6688 -1.4150
18453TIP3    H276775   2.542   1.040   2.339  0.3393 -0.2905  0.5823
18454TIP3   OH276776   4.364   0.947  12.544  0.2616  0.2856 -0.1603
18454TIP3    H176777   4.270   0.931  12.535  0.0629  1.0582  0.4145
18454TIP3    H276778   4.371   1.009  12.617  1.1060  1.3373 -1.0947
18455TIP3   OH276779   6.370   5.349  12.322  0.6342 -0.0243  0.0206
18455TIP3    H176780   6.402   5.305  12.243  0.4311  2.4145 -1.5413
18455TIP3    H276781   6.448   5.375  12.369  0.7569 -2.3215  1.1983
18456TIP3   OH276782   6.718   4.355   1.961  0.0309  0.8291 -0.0186
18456TIP3    H176783   6.682   4.396   2.040 -0.6765 -0.3105  0.2633
18456TIP3    H276784   6.757   4.274   1.993  0.8827  0.9686 -0.6669
18457TIP3   OH276785   2.405   6.264   0.411  0.3087  0.4031 -0.5158
18457TIP3    H176786   2.493   6.300   0.422  0.8282 -0.5923 -1.2299
18457TIP3    H276787   2.420   6.174   0.381 -0.9629  0.4558 -1.3762
18458TIP3   OH276788   6.517   1.919  14.191 -0.2085  0.0482 -0.8363
18458TIP3    H176789   6.538   1.991  14.132 -0.3848  0.8082  0.0245
18458TIP3    H276790   6.593   1.912  14.249 -0.8069  0.5154  0.0250
18459TIP3   OH276791   5.779   3.645   2.276 -0.1779  0.7228  0.3613
18459TIP3    H176792   5.693   3.617   2.307 -0.1756  1.0170  0.6440
18459TIP3    H276793   5.821   3.681   2.353  0.1182  0.7763  0.1746
18460TIP3   OH276794   3.194   5.906   3.883  0.0185  0.6372 -0.1140
18460TIP3    H176795   3.193   5.844   3.955 -1.1271  2.7625  1.8283
18460TIP3    H276796   3.102   5.927   3.868  0.3666  1.7948 -0.7644
18461TIP3   OH276797   3.996   3.038   1.003 -0.0381  0.4781  0.0894
18461TIP3    H176798   3.966   2.957   0.963  0.2580 -0.4629  1.7016
18461TIP3    H276799   3.990   3.023   1.097  0.2273  2.2545  0.4323
18462TIP3   OH276800   2.631   4.043  14.259 -0.7802 -0.4153  0.0544
18462TIP3    H176801   2.557   3.996  14.296  0.9318 -2.2009  1.4672
18462TIP3    H276802   2.689   4.058  14.334 -0.4924  2.5594 -0.6699
18463TIP3   OH276803   5.445   1.039   4.517 -0.2975  0.2770 -0.3748
18463TIP3    H176804   5.517   1.101   4.504 -0.5605  0.6227 -0.2062
18463TIP3    H276805   5.433   0.997   4.432  0.0526  0.2714 -0.4220
18464TIP3   OH276806   5.563   2.406  16.035 -0.0764  0.5674  0.6630
18464TIP3    H176807   5.548   2.414  15.941  0.4733 -1.1891  0.3916
18464TIP3    H276808   5.527   2.320  16.058  0.5258  0.6205  1.8811
18465TIP3   OH276809   3.364   4.835   4.548 -0.4921 -0.0787  0.2770
18465TIP3    H176810   3.391   4.908   4.493 -2.4152 -0.3738 -1.1737
18465TIP3    H276811   3.294   4.870   4.602 -0.4370 -0.4773  0.6090
18466TIP3   OH276812   2.865   1.969   2.400  0.1903 -0.5154  0.1768
18466TIP3    H176813   2.864   1.873   2.401 -2.6217 -0.6338 -1.6315
18466TIP3    H276814   2.816   1.993   2.479  0.4793 -0.5899  0.3787
18467TIP3   OH276815   2.281   3.959  13.051  0.2268 -0.3069 -0.0106
18467TIP3    H176816   2.201   3.987  13.008  0.3502 -1.1965 -0.8589
18467TIP3    H276817   2.308   4.034  13.103 -1.3271 -0.1114  0.5615
18468TIP3   OH276818   5.918   0.991  14.096 -0.2844 -0.3750  0.9690
18468TIP3    H176819   5.882   0.902  14.096 -0.4419 -0.3817 -1.4052
18468TIP3    H276820   5.987   0.989  14.029  0.8356  0.8991  2.0161
18469TIP3   OH276821   1.180   2.238  16.352 -0.1980  0.4377 -0.0866
18469TIP3    H176822   1.163   2.242  16.447  3.2000  0.1938  0.6630
18469TIP3    H276823   1.231   2.317  16.333  0.4382 -0.2518 -1.3837
18470TIP3   OH276824   1.892   5.342   0.980 -0.7991  0.2475 -0.2986
18470TIP3    H176825   1.870   5.280   1.050 -0.1427  0.2775 -0.0515
18470TIP3    H276826   1.857   5.426   1.010 -1.9572 -0.0492 -0.7736
18471TIP3   OH276827   4.392   2.260  13.349  0.2348 -0.1561  0.5971
18471TIP3    H176828   4.402   2.166  13.335 -3.3301 -0.5013 -0.4974
18471TIP3    H276829   4.324   2.267  13.415 -0.4272  1.6549 -0.2270
18472TIP3   OH276830   0.097   5.545  12.459  0.4278  0.0970  0.2493
18472TIP3    H176831   0.073   5.462  12.418  0.9079 -0.6271  1.3883
18472TIP3    H276832   0.184   5.530  12.495 -0.0463  0.6206  1.6961
18473TIP3   OH276833   2.331   6.325   4.304 -0.3414  0.4693 -0.4915
18473TIP3    H176834   2.364   6.235   4.305  1.4956  1.0889  0.4371
18473TIP3    H276835   2.241   6.318   4.334  0.2151 -0.9410  1.0318
18474TIP3   OH276836   0.955   5.513   5.228  0.0258  0.1413  0.1582
18474TIP3    H176837   1.031   5.535   5.283  0.3526 -0.9241  0.1540
18474TIP3    H276838   0.918   5.434   5.269 -1.2680  0.8153  0.3343
18475TIP3   OH276839   6.466   1.492   3.124  0.3436 -0.0354 -0.1250
18475TIP3    H176840   6.411   1.471   3.049  0.8375 -0.4937 -0.3619
18475TIP3    H276841   6.485   1.586   3.114  1.2948 -0.3152 -1.1802
18476TIP3   OH276842   4.887   2.856   3.168 -0.5039  0.4635  0.0303
18476TIP3    H176843   4.852   2.786   3.223 -0.3478 -0.0616 -0.5241
18476TIP3    H276844   4.828   2.930   3.182  0.1713  0.7116  1.7615
18477TIP3   OH276845   3.079   1.370   0.892 -0.1700 -0.2363  0.0840
18477TIP3    H176846   3.006   1.403   0.945  0.7509  0.9260  0.6936
18477TIP3    H276847   3.084   1.431   0.819  1.6528  1.1943  1.3059
18478TIP3   OH276848   1.363   1.384   4.216  0.5025  0.3391 -0.1210
18478TIP3    H176849   1.441   1.429   4.246 -1.1025  3.3066  0.0091
18478TIP3    H276850   1.387   1.347   4.131  2.0491  1.1918 -0.0854
18479TIP3   OH276851   5.696   1.005  16.730  0.7018 -0.2028 -0.5329
18479TIP3    H176852   5.703   0.960  16.646 -1.5112  0.0971 -0.9334
18479TIP3    H276853   5.644   1.083  16.711 -0.7672 -0.6751  1.2872
18480TIP3   OH276854   3.080   1.100   2.572  0.6783  0.0655 -0.2866
18480TIP3    H176855   3.011   1.149   2.529 -0.6971  0.1316  1.8549
18480TIP3    H276856   3.042   1.071   2.655  2.9190 -0.6905  0.5742
18481TIP3   OH276857   5.463   0.179   1.306 -0.1749 -0.5889  0.0965
18481TIP3    H176858   5.438   0.094   1.270 -0.0865 -0.3523 -0.5361
18481TIP3    H276859   5.399   0.196   1.375 -0.3131 -1.0746  0.0914
18482TIP3   OH276860   2.023   4.181  15.160 -0.1391 -0.5417  0.3494
18482TIP3    H176861   2.030   4.152  15.251  3.1143  3.6212  1.7553
18482TIP3    H276862   2.107   4.157  15.121 -0.3469  0.2433 -0.6170
18483TIP3   OH276863   0.579   3.501  13.879  0.0379 -0.1497  0.2689
18483TIP3    H176864   0.528   3.444  13.937  0.0005 -0.3588  0.0305
18483TIP3    H276865   0.537   3.587  13.887 -0.6142 -0.4163 -0.2494
18484TIP3   OH276866   2.992   3.783   3.674  0.4407  0.4858  0.2406
18484TIP3    H176867   2.911   3.827   3.648 -0.6840 -1.3266  0.4961
18484TIP3    H276868   3.018   3.733   3.597  0.0598 -0.6821  0.8468
18485TIP3   OH276869   0.166   3.965   5.098 -0.2519 -0.6681 -0.1655
18485TIP3    H176870   0.193   3.887   5.049 -0.0119 -0.5246 -0.2616
18485TIP3    H276871   0.096   4.003   5.045 -0.0035 -0.5222 -0.3877
18486TIP3   OH276872   5.496   1.207   5.740  0.8424  0.3882 -0.4597
18486TIP3    H176873   5.548   1.287   5.741  3.0601 -0.9865 -0.9348
18486TIP3    H276874   5.486   1.184   5.833 -0.6297  1.6600 -0.2592
18487TIP3   OH276875   5.444   5.868   2.195  0.0300  0.2008 -0.0939
18487TIP3    H176876   5.468   5.913   2.277 -0.0018  0.7836 -0.3957
18487TIP3    H276877   5.374   5.922   2.158 -0.5130 -0.5064 -0.1102
18488TIP3   OH276878   6.583   5.963  14.234 -0.1381 -0.8634 -0.4745
18488TIP3    H176879   6.668   5.920  14.224  0.4517 -0.4682  2.0318
18488TIP3    H276880   6.585   5.998  14.323 -0.5020  4.5340 -2.2649
18489TIP3   OH276881   1.811   4.161  11.786  0.0755 -0.1737  0.1083
18489TIP3    H176882   1.743   4.121  11.840  0.2167 -0.8087 -0.1754
18489TIP3    H276883   1.806   4.254  11.806  0.3746 -0.4271  1.5205
18490TIP3   OH276884   1.023   4.792  13.920  0.0454 -0.3358  0.4598
18490TIP3    H176885   0.961   4.760  13.854 -1.0383  1.3253  0.6013
18490TIP3    H276886   1.089   4.839  13.869  0.6239 -1.2142  0.3865
18491TIP3   OH276887   5.822   5.121   3.256  0.3981  0.3020  0.0451
18491TIP3    H176888   5.747   5.061   3.253  0.3372  0.3511  0.4817
18491TIP3    H276889   5.880   5.091   3.186  1.0396 -1.1792  1.1633
18492TIP3   OH276890   5.250   2.146   2.847  0.3414 -0.2411  0.0474
18492TIP3    H176891   5.250   2.123   2.754  0.0597 -0.1072  0.0158
18492TIP3    H276892   5.318   2.090   2.885 -0.5429 -1.3617  0.0219
18493TIP3   OH276893   2.125   4.217  14.456 -0.1545 -0.0638  0.5023
18493TIP3    H176894   2.113   4.308  14.484  0.9461  0.2211  0.1069
18493TIP3    H276895   2.218   4.200  14.471 -0.4476 -1.2800  0.9930
18494TIP3   OH276896   1.664   2.121   2.378 -0.4861  0.5024 -0.3629
18494TIP3    H176897   1.655   2.175   2.299 -1.1766 -0.2893 -0.8409
18494TIP3    H276898   1.629   2.036   2.353  1.5309 -0.5048  0.0772
18495TIP3   OH276899   4.626   5.094   5.728  0.3537  0.0349 -0.0364
18495TIP3    H176900   4.665   5.137   5.804 -2.2576  1.2606  0.6878
18495TIP3    H276901   4.652   5.002   5.738  4.0673  0.8615 -0.3644
18496TIP3   OH276902   3.054   2.451  15.888  0.4313 -0.2725 -0.3594
18496TIP3    H176903   3.118   2.455  15.817  0.4534  0.0091 -0.3259
18496TIP3    H276904   2.977   2.497  15.855  0.8067  0.7754  0.1637
18497TIP3   OH276905   3.985   3.357  16.497 -0.4166 -0.4416  0.2026
18497TIP3    H176906   4.025   3.347  16.410 -0.9302 -1.7470  0.0947
18497TIP3    H276907   3.950   3.271  16.517 -1.0308  0.0583  1.3621
18498TIP3   OH276908   1.146   2.980   0.997  0.1799 -0.6388 -0.5879
18498TIP3    H176909   1.207   2.970   1.069  0.7546 -0.4861 -1.0473
18498TIP3    H276910   1.069   2.929   1.023 -1.0446  2.1199  1.6985
18499TIP3   OH276911   2.952   0.832  10.584 -0.0612  0.3221 -0.0183
18499TIP3    H176912   2.857   0.833  10.588 -0.1104 -1.4942  0.0426
18499TIP3    H276913   2.973   0.853  10.493 -0.7004 -2.7728 -0.9818
18500TIP3   OH276914   2.309   0.805  14.345 -0.0384 -0.3102 -0.1618
18500TIP3    H176915   2.354   0.791  14.428  1.9000  1.3289 -0.8449
18500TIP3    H276916   2.356   0.879  14.305 -2.2830  0.3660 -1.7374
18501TIP3   OH276917   5.947   0.420  14.412  0.3169  0.6486  1.0518
18501TIP3    H176918   5.909   0.483  14.351  1.6549  0.5499  0.0503
18501TIP3    H276919   6.042   0.432  14.403  0.5689 -0.2821  2.1558
18502TIP3   OH276920   1.797   4.107   1.502 -0.1780 -1.2427 -0.0408
18502TIP3    H176921   1.804   4.105   1.597  0.3618 -0.9350 -0.0682
18502TIP3    H276922   1.785   4.015   1.477 -1.6373 -1.1950  0.4013
18503TIP3   OH276923   2.903   1.201  14.184 -0.0962  0.0209  0.1699
18503TIP3    H176924   2.957   1.176  14.109  1.5237  0.6341  1.0705
18503TIP3    H276925   2.909   1.297  14.187 -0.5296  0.0366  0.8113
18504TIP3   OH276926   5.847   2.847  10.979  0.5060  0.3606  0.5750
18504TIP3    H176927   5.939   2.835  10.957  0.4347  0.8618 -0.0179
18504TIP3    H276928   5.844   2.841  11.075  1.0595 -0.2605  0.5557
18505TIP3   OH276929   2.402   1.835   1.034  0.0303  0.0380 -0.6095
18505TIP3    H176930   2.405   1.785   0.952  2.5318 -1.6717  0.4198
18505TIP3    H276931   2.327   1.799   1.081 -0.4437 -0.0970 -1.4356
18506TIP3   OH276932   6.523   2.268  10.867 -0.5999 -0.0734 -0.8388
18506TIP3    H176933   6.506   2.338  10.931 -2.0391 -1.2603  0.1433
18506TIP3    H276934   6.596   2.300  10.815  0.1316  1.2692  0.9364
18507TIP3   OH276935   2.179   1.202   5.356  0.2717 -0.1398 -0.1805
18507TIP3    H176936   2.164   1.186   5.263  1.5282  2.9285 -1.0467
18507TIP3    H276937   2.110   1.153   5.400 -2.5915  1.0710 -2.9285
18508TIP3   OH276938   6.100   3.102   3.966  0.1888 -0.1859  0.3246
18508TIP3    H176939   6.053   3.185   3.957 -0.8641 -0.9094 -1.1462
18508TIP3    H276940   6.129   3.080   3.877 -0.5617 -1.9610  0.4869
18509TIP3   OH276941   3.062   6.095  12.605  0.5746 -0.1702  0.1276
18509TIP3    H176942   3.112   6.170  12.638 -0.3193  0.0920  0.9313
18509TIP3    H276943   3.039   6.045  12.683 -0.9872  0.0820 -0.1310
18510TIP3   OH276944   3.593   4.347  11.732  0.1155  0.0036 -0.0659
18510TIP3    H176945   3.648   4.306  11.665 -0.1299 -1.0844  0.3798
18510TIP3    H276946   3.514   4.293  11.734 -0.4529  0.8288  0.1611
18511TIP3   OH276947   0.841   1.488  12.314  0.5064 -0.2522  0.3347
18511TIP3    H176948   0.911   1.442  12.268  2.1803  1.1304  1.3750
18511TIP3    H276949   0.828   1.437  12.394  0.2341 -0.5627  0.0970
18512TIP3   OH276950   6.133   5.048   2.653  0.5174  0.3575 -0.0026
18512TIP3    H176951   6.214   5.007   2.685  0.5231  1.5079  1.5306
18512TIP3    H276952   6.138   5.138   2.685 -1.8512  0.1858  0.9928
18513TIP3   OH276953   3.530   4.769  14.109  0.2115  0.9411 -0.3766
18513TIP3    H176954   3.581   4.760  14.028  2.0113  1.1787  0.6692
18513TIP3    H276955   3.524   4.680  14.143  0.4667  0.9995 -0.1816
18514TIP3   OH276956   2.769   0.779   0.741  0.3124 -0.1070 -0.1773
18514TIP3    H176957   2.778   0.837   0.817 -0.1944  2.9571 -2.2546
18514TIP3    H276958   2.675   0.762   0.735  0.3048 -0.0188 -0.3205
18515TIP3   OH276959   2.398   1.180   1.567  0.3191 -0.1982 -0.4686
18515TIP3    H176960   2.317   1.168   1.618  0.6402  0.2960  0.1675
18515TIP3    H276961   2.466   1.140   1.622  0.5237 -0.5419 -0.9687
18516TIP3   OH276962   0.004   6.008  15.865 -0.2575 -0.0977 -0.0696
18516TIP3    H176963   0.005   6.060  15.946  0.3662  0.4240 -0.4068
18516TIP3    H276964  -0.089   5.988  15.851 -0.3517 -0.4697  0.9482
18517TIP3   OH276965   0.676   3.715   1.829  0.0515  1.0151 -0.0431
18517TIP3    H176966   0.710   3.788   1.881 -1.8844  1.9622  0.0012
18517TIP3    H276967   0.669   3.643   1.891 -0.5311  1.5995  0.5923
18518TIP3   OH276968   2.405   4.122  14.499  0.1998 -0.2438 -0.2859
18518TIP3    H176969   2.443   4.194  14.549 -0.5821 -1.0316  1.5086
18518TIP3    H276970   2.365   4.065  14.564 -2.0284 -0.6619 -1.9058
18519TIP3   OH276971   2.993   3.658  12.266  0.3384  0.1487 -0.1061
18519TIP3    H176972   2.906   3.675  12.230 -0.2745 -1.2515  0.6235
18519TIP3    H276973   2.976   3.615  12.350  1.7218 -1.6130 -0.6710
18520TIP3   OH276974   2.842   2.461  15.545 -0.1904 -0.2663 -0.0782
18520TIP3    H176975   2.876   2.537  15.593 -2.3670 -0.4943  2.0256
18520TIP3    H276976   2.780   2.498  15.482  0.8173 -0.1359 -1.0093
18521TIP3   OH276977   5.523   2.784  11.135 -1.0617 -0.4349 -0.0787
18521TIP3    H176978   5.441   2.753  11.174 -2.0811 -1.8462 -3.0359
18521TIP3    H276979   5.564   2.706  11.098  0.9106  0.4749  0.0283
18522TIP3   OH276980   4.354   1.125  13.885 -0.0084  0.3921 -0.4235
18522TIP3    H176981   4.429   1.079  13.848 -0.4665 -0.6481 -0.0933
18522TIP3    H276982   4.278   1.081  13.847 -0.4625  1.3318 -0.6297
18523TIP3   OH276983   5.381   0.089  14.305  0.2026 -0.1357 -0.1204
18523TIP3    H176984   5.381   0.036  14.225  0.6716 -2.2041  1.1767
18523TIP3    H276985   5.442   0.043  14.363 -0.9199  0.7330  1.8038
18524TIP3   OH276986   5.121   5.316   2.862  0.4132 -0.1015  0.1423
18524TIP3    H176987   5.195   5.277   2.815  0.0182 -1.4280  0.5802
18524TIP3    H276988   5.143   5.305   2.954 -1.0902 -2.1535  0.3278
18525TIP3   OH276989   1.918   3.428  14.622  1.0298 -0.0099  0.1397
18525TIP3    H176990   1.955   3.424  14.711  1.2589  0.6005  0.0776
18525TIP3    H276991   1.862   3.351  14.616  0.7708  0.1039  0.9291
18526TIP3   OH276992   1.437   0.692   2.747  0.7382  0.4277 -0.4717
18526TIP3    H176993   1.412   0.650   2.665 -2.2427 -1.0852  1.0467
18526TIP3    H276994   1.411   0.783   2.736  0.7044  0.3252 -1.3078
18527TIP3   OH276995   3.114   2.226  12.245 -0.0925  0.5435  0.7338
18527TIP3    H176996   3.093   2.293  12.181 -0.6713 -1.8423 -1.7238
18527TIP3    H276997   3.208   2.211  12.234 -0.1140  0.4156  0.7211
18528TIP3   OH276998   4.154   1.545   0.992  0.2923  1.1971 -0.1261
18528TIP3    H176999   4.249   1.538   0.981  0.3818  0.4095  0.9525
18528TIP3    H277000   4.140   1.534   1.086 -1.0292 -1.2077 -0.5235
18529TIP3   OH277001   6.583   4.056  16.046 -0.1217 -0.1964  0.1149
18529TIP3    H177002   6.607   3.963  16.045 -0.3266 -0.2438 -0.8652
18529TIP3    H277003   6.498   4.060  16.003 -0.1308  0.4479  0.1848
18530TIP3   OH277004   6.464   0.921   5.241  0.1353 -0.2742 -0.1784
18530TIP3    H177005   6.516   1.000   5.228  0.7480 -0.9196 -1.9206
18530TIP3    H277006   6.528   0.854   5.266 -0.1003 -0.6403 -0.5414
18531TIP3   OH277007   5.906   5.233   2.272  0.1215  0.6161  0.1547
18531TIP3    H177008   5.989   5.271   2.243  0.7673 -1.5411 -1.1111
18531TIP3    H277009   5.870   5.191   2.193 -0.5881 -1.1653  1.3546
18532TIP3   OH277010   5.657   6.390  16.537 -0.2325 -0.1635 -0.0627
18532TIP3    H177011   5.716   6.344  16.596  0.8983  0.5144 -0.6289
18532TIP3    H277012   5.604   6.320  16.497  1.2507 -0.9703 -0.7005
18533TIP3   OH277013   1.846   6.129  12.868  0.4113  0.3892  0.5196
18533TIP3    H177014   1.844   6.083  12.784  2.0888  1.0279  0.0916
18533TIP3    H277015   1.754   6.131  12.896 -0.3009  0.7642 -1.6361
18534TIP3   OH277016   3.518   3.936  16.337  0.0797 -0.1750  0.4679
18534TIP3    H177017   3.488   4.027  16.347 -1.9118 -0.6475 -0.5772
18534TIP3    H277018   3.541   3.908  16.425 -0.1812  1.0444  0.9457
18535TIP3   OH277019   6.210   1.452  16.970  0.4757 -0.0127  0.3247
18535TIP3    H177020   6.208   1.357  16.973 -0.3786 -0.0011  0.6489
18535TIP3    H277021   6.126   1.476  16.929  0.6330  0.5946  0.3464
18536TIP3   OH277022   5.498   1.887  11.095  0.1716  0.5960 -0.1786
18536TIP3    H177023   5.448   1.808  11.073 -3.2023  1.7311  2.5660
18536TIP3    H277024   5.485   1.946  11.022  0.0455 -0.2259 -0.8290
18537TIP3   OH277025   6.204   2.017   2.973  0.4187  0.5164 -0.1989
18537TIP3    H177026   6.291   1.983   2.993 -0.0024 -0.6840 -0.3529
18537TIP3    H277027   6.150   1.939   2.960 -0.4598  1.2478 -1.0670
18538TIP3   OH277028   4.385   2.114   6.437  0.3433  0.4351 -0.2797
18538TIP3    H177029   4.298   2.146   6.412  0.5414  0.3403 -1.1005
18538TIP3    H277030   4.376   2.019   6.439  0.5070  0.4085 -0.6843
18539TIP3   OH277031   0.639   0.965  11.009  0.3993  0.1153 -0.3356
18539TIP3    H177032   0.579   0.973  10.935  0.4713 -0.6480 -0.4821
18539TIP3    H277033   0.720   1.007  10.979  0.1102  0.6832 -0.3272
18540TIP3   OH277034   5.133   6.267  11.891  0.3759  0.0703 -0.3341
18540TIP3    H177035   5.054   6.301  11.849 -1.9066 -2.2546  1.7366
18540TIP3    H277036   5.167   6.340  11.943 -1.3257  0.6980 -0.0480
18541TIP3   OH277037   0.533   4.380   3.015 -0.1386 -0.1884 -0.4149
18541TIP3    H177038   0.464   4.424   2.965 -0.3009 -0.6792 -0.6313
18541TIP3    H277039   0.496   4.371   3.103 -0.1586 -0.0056 -0.4061
18542TIP3   OH277040   5.236   4.160  15.645 -0.2180 -0.4298 -0.0294
18542TIP3    H177041   5.145   4.154  15.672 -0.5549  3.0112  0.1129
18542TIP3    H277042   5.284   4.109  15.711 -2.0086 -3.1911 -0.7182
18543TIP3   OH277043   3.609   3.531  15.879  0.0159  0.5264 -0.1082
18543TIP3    H177044   3.651   3.539  15.794  0.6122  1.0523  0.2263
18543TIP3    H277045   3.515   3.533  15.860  0.1446  0.2423 -0.7855
18544TIP3   OH277046   3.125   5.331   3.716 -0.0905 -0.0850 -0.3777
18544TIP3    H177047   3.150   5.266   3.782  0.7136  1.1569  0.5935
18544TIP3    H277048   3.208   5.362   3.680 -0.4569  0.4062 -0.8215
18545TIP3   OH277049   3.554   3.299  11.831 -0.4091 -0.1933  0.7222
18545TIP3    H177050   3.649   3.307  11.838 -0.5351  1.0591  1.3104
18545TIP3    H277051   3.538   3.284  11.738  0.2915  0.8630  0.4136
18546TIP3   OH277052   6.432   3.986   1.309 -0.0062 -0.5124  0.3065
18546TIP3    H177053   6.472   3.972   1.223 -0.5178 -0.6807  0.0901
18546TIP3    H277054   6.456   4.076   1.333  1.4978 -1.0113  0.7263
18547TIP3   OH277055   3.876   5.604  14.433  0.0979 -0.1809 -0.3048
18547TIP3    H177056   3.903   5.684  14.479 -0.3796  2.0894 -3.6414
18547TIP3    H277057   3.788   5.585  14.466  0.6872 -0.1059  1.4034
18548TIP3   OH277058   1.288   3.047  15.762  0.2351  0.4948 -0.3545
18548TIP3    H177059   1.363   3.010  15.714  1.4595  1.2906  0.8782
18548TIP3    H277060   1.321   3.129  15.798 -1.3307  0.9934  0.0016
18549TIP3   OH277061   0.404   2.720  12.350 -0.0961  0.7365 -0.1040
18549TIP3    H177062   0.352   2.644  12.325 -0.2668  0.9073 -0.2728
18549TIP3    H277063   0.435   2.756  12.267  3.2359 -1.3668  0.0271
18550TIP3   OH277064   2.676   3.217  15.072  0.6709  0.3341 -0.3419
18550TIP3    H177065   2.648   3.184  15.157 -1.3403 -0.8272 -1.3875
18550TIP3    H277066   2.691   3.310  15.086 -1.2240  0.4944  0.9239
18551TIP3   OH277067   2.933   0.062   1.702 -0.1621  0.7001 -0.5961
18551TIP3    H177068   2.920  -0.024   1.661  0.1798 -0.6444  1.8717
18551TIP3    H277069   2.849   0.081   1.743 -0.3836  1.8225 -1.5375
18552TIP3   OH277070   0.515   6.705   5.042  0.0040 -0.2120 -0.0267
18552TIP3    H177071   0.562   6.678   4.963 -0.1692  0.2051 -0.2705
18552TIP3    H277072   0.532   6.634   5.105  2.3920  0.7199  0.4709
18553TIP3   OH277073   3.264   2.623   6.086 -0.0508 -0.4227 -0.6177
18553TIP3    H177074   3.234   2.537   6.115 -2.0465  0.7108  0.8911
18553TIP3    H277075   3.340   2.643   6.142  0.6326 -1.2966 -1.2048
18554TIP3   OH277076   3.811   3.604  15.222 -0.4612 -0.4879  0.1676
18554TIP3    H177077   3.843   3.556  15.145  0.9678  1.0448 -0.2529
18554TIP3    H277078   3.755   3.673  15.187  1.9803  1.6733  0.1695
18555TIP3   OH277079   5.201   1.486   5.100 -0.3129  0.0467 -0.4371
18555TIP3    H177080   5.221   1.392   5.092  1.1034  0.4852 -2.9660
18555TIP3    H277081   5.141   1.504   5.027  0.3373  1.3022 -0.6912
18556TIP3   OH277082   5.191   2.537   4.243  0.3952  0.0649 -0.2601
18556TIP3    H177083   5.104   2.502   4.262  0.2271 -0.1856 -1.4374
18556TIP3    H277084   5.190   2.626   4.279 -0.1678 -0.1160  0.1764
18557TIP3   OH277085   6.144   1.035   1.287 -0.1358  0.0471 -0.1036
18557TIP3    H177086   6.121   0.966   1.349  0.6134  0.5763  0.7849
18557TIP3    H277087   6.066   1.045   1.232 -0.5724 -0.8794  0.3345
18558TIP3   OH277088   3.271   6.372  11.565  0.3220  0.1299  0.3266
18558TIP3    H177089   3.315   6.296  11.603 -0.2614  0.5847  2.0263
18558TIP3    H277090   3.342   6.433  11.544  0.8514 -1.0781 -1.6712
18559TIP3   OH277091   1.405   4.537   5.863  0.4237  0.1002 -0.2258
18559TIP3    H177092   1.330   4.528   5.804  0.8226  0.5817 -0.8202
18559TIP3    H277093   1.468   4.473   5.832  0.2011 -0.4172  0.3758
18560TIP3   OH277094   4.231   1.709   5.746  0.1743  0.2000 -0.3830
18560TIP3    H177095   4.319   1.747   5.744  0.0982  0.5945  1.6881
18560TIP3    H277096   4.174   1.782   5.770 -0.6589 -0.1998 -1.0736
18561TIP3   OH277097   0.499   4.244   2.731 -0.9458  0.0455 -0.7284
18561TIP3    H177098   0.414   4.279   2.758 -1.9000 -0.0552 -3.3108
18561TIP3    H277099   0.557   4.319   2.732 -1.0858  0.1775  0.7723
18562TIP3   OH277100   3.015   4.384   4.303 -0.6622 -0.2615 -0.1862
18562TIP3    H177101   2.923   4.358   4.308 -1.1635  1.0542 -1.6046
18562TIP3    H277102   3.063   4.307   4.332 -2.1939 -1.1255  0.1896
18563TIP3   OH277103   2.487   5.528  15.490 -0.3361  0.1742  0.1962
18563TIP3    H177104   2.445   5.530  15.404 -0.1650 -2.4382 -0.0342
18563TIP3    H277105   2.577   5.500  15.472 -0.3661 -0.6527  1.2180
18564TIP3   OH277106   1.307   0.299  17.057  0.2150 -0.1887 -0.1660
18564TIP3    H177107   1.260   0.261  16.982  0.7250 -1.0642 -0.0498
18564TIP3    H277108   1.249   0.368  17.088 -0.2305 -0.1399 -1.0664
18565TIP3   OH277109   2.905   1.336   1.653  0.2968 -0.2930 -0.7725
18565TIP3    H177110   2.983   1.377   1.691 -1.0705  1.1123  0.7174
18565TIP3    H277111   2.878   1.396   1.583 -0.0154 -0.2220 -0.5945
18566TIP3   OH277112   1.799   0.422  12.954 -0.4931  0.1132  0.7870
18566TIP3    H177113   1.818   0.515  12.951 -0.6793  0.1427  0.4905
18566TIP3    H277114   1.712   0.416  12.994 -0.8482  0.1216  0.0309
18567TIP3   OH277115   1.178   5.521  17.045 -0.5806  0.1261  0.3494
18567TIP3    H177116   1.123   5.560  17.114  1.5715  0.7587  1.7955
18567TIP3    H277117   1.267   5.529  17.078  0.2781 -2.5735 -1.0570
18568TIP3   OH277118   5.860   6.055  13.211 -0.4114  0.4715 -0.1317
18568TIP3    H177119   5.922   6.122  13.183 -0.8284  0.7933 -0.2966
18568TIP3    H277120   5.787   6.062  13.149 -0.1950 -0.5290 -0.5011
18569TIP3   OH277121   1.083   4.233  11.926  0.2749 -0.4448 -0.4977
18569TIP3    H177122   1.152   4.173  11.898 -0.3944 -0.7937 -1.4498
18569TIP3    H277123   1.126   4.292  11.988  1.2792 -1.0277 -0.6243
18570TIP3   OH277124   4.869   2.208  16.139  0.2026  0.5334  0.9725
18570TIP3    H177125   4.831   2.294  16.122  0.5920  0.8261  1.5684
18570TIP3    H277126   4.951   2.226  16.184  1.5326 -0.0310 -1.0606
18571TIP3   OH277127   1.161   5.456  11.504  0.2351 -0.4728 -0.0305
18571TIP3    H177128   1.121   5.371  11.490  0.2995 -0.5057 -0.0158
18571TIP3    H277129   1.240   5.454  11.449  0.6492 -0.7155  0.5686
18572TIP3   OH277130   2.807   0.760   5.454  0.3927  0.0022 -0.1752
18572TIP3    H177131   2.819   0.674   5.413  0.7867  0.2799 -0.6623
18572TIP3    H277132   2.763   0.742   5.537  0.6586 -0.6890 -0.1800
18573TIP3   OH277133   5.187   3.320   0.773  0.6946  0.3449  0.1169
18573TIP3    H177134   5.279   3.347   0.763  0.4596  1.6255  1.2258
18573TIP3    H277135   5.181   3.288   0.863 -0.2199  1.4804  0.4796
18574TIP3   OH277136   5.922   3.799   5.396  0.4665 -0.0678 -0.0337
18574TIP3    H177137   5.888   3.814   5.308 -0.1364 -0.2573  0.1624
18574TIP3    H277138   5.923   3.704   5.405 -0.8282 -0.0391  0.6693
18575TIP3   OH277139   0.410   5.809   0.680 -0.1361  0.2839 -0.3215
18575TIP3    H177140   0.321   5.810   0.716  0.6000 -1.7223  1.7874
18575TIP3    H277141   0.467   5.819   0.756  1.4658 -1.4330 -1.2091
18576TIP3   OH277142   0.478   0.494   5.088  0.9716 -0.3446  0.0609
18576TIP3    H177143   0.383   0.499   5.073  0.8421 -1.5139  0.3803
18576TIP3    H277144   0.496   0.568   5.146  0.3793  0.2976 -0.5473
18577TIP3   OH277145   0.011   6.700  14.346 -0.0614  0.2559  0.4366
18577TIP3    H177146   0.095   6.673  14.309  0.6093  1.2270  1.1855
18577TIP3    H277147  -0.052   6.636  14.313  0.8442 -0.0643 -0.7268
18578TIP3   OH277148   0.190   6.348  15.287  0.5264 -0.0096 -0.1320
18578TIP3    H177149   0.211   6.435  15.322 -1.9076  1.0376 -1.0143
18578TIP3    H277150   0.103   6.329  15.321  0.6703 -1.7524 -0.6505
18579TIP3   OH277151   6.017   5.199   5.390 -0.1072  0.2375  0.0772
18579TIP3    H177152   5.978   5.260   5.452  0.0489  0.2078  0.2055
18579TIP3    H277153   5.943   5.149   5.355 -0.2196  0.4069  0.0719
18580TIP3   OH277154   6.117   5.967   5.464 -0.0275  0.2063 -0.3300
18580TIP3    H177155   6.059   5.969   5.540  0.5226  0.0958  0.1072
18580TIP3    H277156   6.204   5.950   5.502 -0.1451 -3.0883 -1.2282
18581TIP3   OH277157   3.241   1.932   3.573  0.1645  0.5337 -0.5132
18581TIP3    H177158   3.252   2.027   3.562  0.1155  0.7364  0.9187
18581TIP3    H277159   3.308   1.908   3.638 -0.0346 -0.3535 -0.6277
18582TIP3   OH277160   1.248   3.189  10.693  0.0665 -0.2290 -0.0300
18582TIP3    H177161   1.274   3.162  10.605  0.1810  1.8639 -0.6826
18582TIP3    H277162   1.297   3.130  10.751 -0.5765 -2.1374 -1.3275
18583TIP3   OH277163   1.338   0.101  15.368 -0.4116  0.4161  0.3313
18583TIP3    H177164   1.383   0.183  15.349  2.0303 -1.3597 -2.2143
18583TIP3    H277165   1.255   0.108  15.320  1.5450 -0.0929 -3.4920
18584TIP3   OH277166   0.993   0.391   5.025 -0.6212  0.9120  0.1625
18584TIP3    H177167   1.016   0.328   5.093  0.5020 -0.2661 -1.2281
18584TIP3    H277168   0.915   0.354   4.984  0.2369  0.1629 -0.8812
18585TIP3   OH277169   3.156   6.765   4.168 -0.1673  0.4326 -0.2241
18585TIP3    H177170   3.105   6.700   4.119 -1.8612  1.8923 -0.4807
18585TIP3    H277171   3.128   6.849   4.133  0.5880  1.4102  1.3937
18586TIP3   OH277172   2.848   0.670  12.927 -0.0683 -0.1895  0.0454
18586TIP3    H177173   2.829   0.702  13.015 -1.1858 -1.8331  0.4420
18586TIP3    H277174   2.869   0.577  12.939  1.7724  0.0103 -1.2071
18587TIP3   OH277175   1.290   4.164   5.656 -0.2827 -0.1380  0.0675
18587TIP3    H177176   1.271   4.251   5.621 -1.7174 -0.3490  0.2444
18587TIP3    H277177   1.312   4.179   5.748 -0.4191  0.0566  0.0694
18588TIP3   OH277178   0.304   4.205   4.428 -0.1157 -0.3914  0.3834
18588TIP3    H177179   0.342   4.160   4.503 -0.0807 -0.4175  0.3494
18588TIP3    H277180   0.378   4.244   4.382 -0.1062 -0.6369  0.1893
18589TIP3   OH277181   5.164   1.856  15.023  0.3153  0.0154  0.2108
18589TIP3    H177182   5.140   1.925  15.084 -0.9087 -0.6068  0.4681
18589TIP3    H277183   5.236   1.892  14.972 -1.1287  1.9851 -0.5499
18590TIP3   OH277184   1.954   2.745   1.878  0.6242 -0.4082  0.7967
18590TIP3    H177185   1.992   2.809   1.818  0.2687  2.0523  3.0327
18590TIP3    H277186   2.028   2.689   1.902  0.8585 -1.1879 -1.4925
18591TIP3   OH277187   5.075   0.199   3.440  0.3644  0.1585  0.9512
18591TIP3    H177188   5.012   0.252   3.490 -0.6412 -0.4955  0.4102
18591TIP3    H277189   5.150   0.190   3.499 -0.0341  0.9638  1.6075
18592TIP3   OH277190   2.201   2.704   1.685  0.0156  0.2951  0.1249
18592TIP3    H177191   2.275   2.691   1.626 -1.1278  1.3578 -1.6072
18592TIP3    H277192   2.230   2.664   1.767  2.8233  1.3650 -0.2096
18593TIP3   OH277193   3.089   2.206  14.844 -0.4780 -0.7198 -0.7350
18593TIP3    H177194   3.010   2.242  14.803 -1.3501 -2.2155 -0.4758
18593TIP3    H277195   3.055   2.142  14.907  0.9594 -1.9766 -1.1783
18594TIP3   OH277196   6.570   1.936   5.603  0.1703  0.0316  0.5747
18594TIP3    H177197   6.600   1.924   5.513  0.2418  0.9231  0.4745
18594TIP3    H277198   6.474   1.939   5.596  0.2155  1.4043  0.3508
18595TIP3   OH277199   6.325   2.525   0.151 -0.7427 -0.5321 -0.8375
18595TIP3    H177200   6.352   2.439   0.118 -0.1590 -0.5802 -0.2442
18595TIP3    H277201   6.363   2.587   0.089  0.0010 -0.6400 -0.4972
18596TIP3   OH277202   6.432   6.428   2.237 -0.0412  0.0558 -0.1554
18596TIP3    H177203   6.416   6.359   2.301  1.0009  0.1746  0.2458
18596TIP3    H277204   6.364   6.415   2.170  1.0935 -2.3835 -0.9448
18597TIP3   OH277205   1.152   6.773   4.757  0.2377 -0.5588  0.0511
18597TIP3    H177206   1.116   6.861   4.760  1.8017  0.0912  1.7386
18597TIP3    H277207   1.122   6.732   4.838  2.2110 -0.3748  0.9461
18598TIP3   OH277208   6.655   0.133   1.495  0.0747 -0.1156 -0.2702
18598TIP3    H177209   6.611   0.076   1.432  0.2112  0.2978 -0.7494
18598TIP3    H277210   6.596   0.136   1.570 -0.8157  0.5747 -0.9748
18599TIP3   OH277211   0.043   3.545  11.340  0.0576 -0.5100  0.1541
18599TIP3    H177212   0.138   3.554  11.337 -0.1302  3.2802  0.4796
18599TIP3    H277213   0.023   3.526  11.431  0.4507  2.8730  1.0827
18600TIP3   OH277214   5.851   2.147  12.732 -0.2706 -0.0188 -0.2733
18600TIP3    H177215   5.906   2.117  12.804 -0.1643 -2.8259 -1.3817
18600TIP3    H277216   5.771   2.178  12.774  0.6351  0.5148  1.1361
18601TIP3   OH277217   6.789   0.316   1.323  0.2104  0.0143  0.0411
18601TIP3    H177218   6.738   0.263   1.385 -1.0949  1.0600 -0.0900
18601TIP3    H277219   6.834   0.252   1.268 -0.7910 -0.9555  0.3057
18602TIP3   OH277220   6.207   2.791  16.509  0.1753  0.1465  0.1389
18602TIP3    H177221   6.294   2.768  16.476  0.5403  1.2614  0.2792
18602TIP3    H277222   6.211   2.771  16.602  0.7672  1.4575  0.4264
18603TIP3   OH277223   1.071   3.225  14.682 -0.3729 -0.7266 -0.3621
18603TIP3    H177224   1.091   3.255  14.770 -2.8177 -1.4855  0.5630
18603TIP3    H277225   0.988   3.267  14.660 -1.2798 -2.7179 -1.0910
18604TIP3   OH277226   2.632   3.436  13.042 -0.1181 -0.1038  0.5681
18604TIP3    H177227   2.540   3.422  13.021 -0.6098  0.5171  2.2184
18604TIP3    H277228   2.677   3.426  12.958 -1.7671  0.3739 -0.4107
18605TIP3   OH277229   1.148   1.981  11.670  0.1465 -0.3175  0.1175
18605TIP3    H177230   1.099   1.899  11.675 -1.7051  0.6781 -0.5675
18605TIP3    H277231   1.087   2.047  11.705 -0.2091  1.4461 -3.3629
18606TIP3   OH277232   6.394   0.482   4.553  0.2024  0.6365  0.7723
18606TIP3    H177233   6.430   0.571   4.553  1.3933  0.2011 -0.7989
18606TIP3    H277234   6.339   0.479   4.475 -0.7337  0.3069  1.4308
18607TIP3   OH277235   0.632   6.253   0.768 -0.0140 -0.1941 -0.7664
18607TIP3    H177236   0.708   6.302   0.798  0.6619 -1.0948 -0.9637
18607TIP3    H277237   0.668   6.176   0.725 -0.8056  1.5393 -5.0244
18608TIP3   OH277238   2.659   4.678  12.441  0.1202  0.1070  0.3760
18608TIP3    H177239   2.581   4.679  12.386  0.4822 -0.2988 -0.1621
18608TIP3    H277240   2.718   4.741  12.400 -0.2606  1.0820  1.2966
18609TIP3   OH277241   2.604   6.247   5.674  0.2845 -0.3960  0.4309
18609TIP3    H177242   2.634   6.276   5.587 -1.0347  1.5004  0.5458
18609TIP3    H277243   2.540   6.179   5.656 -0.6382  0.5985 -0.1702
18610TIP3   OH277244   4.392   6.649  10.539  0.0655 -0.2114  0.6742
18610TIP3    H177245   4.403   6.609  10.626  0.9213  0.4356  0.8773
18610TIP3    H277246   4.383   6.743  10.557 -1.3793 -0.2287  0.1612
18611TIP3   OH277247   6.024   2.217  16.004  0.2462 -0.3042  1.0844
18611TIP3    H177248   6.109   2.261  16.005  0.6128 -0.9903  1.4516
18611TIP3    H277249   5.977   2.253  16.079 -0.0770  0.6036  0.4622
18612TIP3   OH277250   4.898   1.980   4.999 -0.6663 -0.5998 -0.0151
18612TIP3    H177251   4.990   1.998   4.981 -1.0919 -0.4254 -2.2795
18612TIP3    H277252   4.873   2.048   5.063  0.2154  0.8061 -1.1025
18613TIP3   OH277253   3.897   1.155   2.040 -0.2568 -0.3594 -0.7741
18613TIP3    H177254   3.863   1.242   2.059 -0.4426 -0.4431 -0.7201
18613TIP3    H277255   3.967   1.142   2.104  1.3244  0.6577 -2.2144
18614TIP3   OH277256   4.106   6.327   2.340 -0.6537  0.6665 -0.4854
18614TIP3    H177257   4.037   6.296   2.282  0.8061 -1.5291 -1.1362
18614TIP3    H277258   4.062   6.392   2.396 -2.5298  1.5023 -2.7575
18615TIP3   OH277259   2.543   5.629  14.467  0.0774 -0.5979 -0.0053
18615TIP3    H177260   2.622   5.683  14.466 -0.4419  0.1719  0.1487
18615TIP3    H277261   2.546   5.582  14.383  0.0282  0.4151 -0.5892
18616TIP3   OH277262   4.075   6.396  13.781 -0.2225 -0.0604 -0.4917
18616TIP3    H177263   4.120   6.315  13.757  1.0210  0.4397  0.0870
18616TIP3    H277264   4.086   6.452  13.705  0.3146  0.1351 -0.2704
18617TIP3   OH277265   2.670   2.216  10.805  0.9235  0.3184 -0.4732
18617TIP3    H177266   2.580   2.182  10.806  1.7299 -2.0126 -0.7391
18617TIP3    H277267   2.663   2.301  10.762 -1.2736  0.6180  0.3445
18618TIP3   OH277268   4.336   0.814  17.017  0.3652  0.4752  0.3772
18618TIP3    H177269   4.302   0.763  17.091  2.0086 -0.9320  0.2064
18618TIP3    H277270   4.405   0.868  17.056 -0.1350  1.2497  0.2144
18619TIP3   OH277271   4.162   4.605   0.930  0.0253 -0.2280  0.5007
18619TIP3    H177272   4.089   4.551   0.962 -0.1444 -0.9225 -0.9962
18619TIP3    H277273   4.238   4.572   0.977 -0.6475  0.8986  2.5471
18620TIP3   OH277274   5.955   2.383   3.208 -0.3625 -0.8226  0.1815
18620TIP3    H177275   5.934   2.358   3.299 -0.6264  0.7893  0.5839
18620TIP3    H277276   5.871   2.412   3.172 -0.5934 -2.8933 -1.1101
18621TIP3   OH277277   5.156   6.026   2.647  0.1039  0.1329 -0.0523
18621TIP3    H177278   5.243   6.051   2.616 -0.0505  0.8037  0.0502
18621TIP3    H277279   5.096   6.086   2.602 -0.0472  1.9615  2.4078
18622TIP3   OH277280   6.460   6.063  16.406  0.5286 -0.2534 -0.1599
18622TIP3    H177281   6.514   6.091  16.480 -0.8422  0.3203  0.6520
18622TIP3    H277282   6.389   6.127  16.402  0.1899 -0.6895 -1.5385
18623TIP3   OH277283   4.302   0.801  12.122 -0.1552  0.0164 -0.1902
18623TIP3    H177284   4.322   0.728  12.180 -0.8732 -0.9106 -1.0759
18623TIP3    H277285   4.351   0.783  12.042 -0.1974  0.6053 -0.3593
18624TIP3   OH277286   1.650   3.936   2.002 -0.2316 -0.0056  0.1158
18624TIP3    H177287   1.622   3.943   2.093 -0.0101 -1.5497  0.3346
18624TIP3    H277288   1.665   3.842   1.989 -0.7968  0.1105 -1.6724
18625TIP3   OH277289   3.719   3.673   3.653 -0.3220  0.7422 -0.4308
18625TIP3    H177290   3.656   3.720   3.708  0.6170  0.7428  0.6719
18625TIP3    H277291   3.728   3.587   3.694 -0.2847  0.4161 -1.1106
18626TIP3   OH277292   1.216   0.440  16.479  0.3753  0.9975  0.3816
18626TIP3    H177293   1.210   0.528  16.442  2.5106  0.9015 -0.2904
18626TIP3    H277294   1.297   0.441  16.529 -0.3846 -0.1437  1.6989
18627TIP3   OH277295   4.565   1.560  13.988  0.1270 -0.4785  0.0052
18627TIP3    H177296   4.639   1.551  13.928  0.0117 -1.1896 -0.0298
18627TIP3    H277297   4.558   1.655  14.002  1.7931 -0.4520  0.9525
18628TIP3   OH277298   6.686   5.621  14.123 -0.4342 -0.1307  0.3928
18628TIP3    H177299   6.763   5.594  14.173 -0.6946 -0.2421  0.7373
18628TIP3    H277300   6.652   5.540  14.085 -0.1981 -0.0365 -0.0209
18629TIP3   OH277301   3.986   0.516   4.025 -0.0919  0.1478 -0.4329
18629TIP3    H177302   3.925   0.581   3.991 -2.8361 -2.2954 -0.5794
18629TIP3    H277303   4.000   0.455   3.952  0.5593 -0.6613  0.3402
18630TIP3   OH277304   6.079   1.450  14.796  0.1932 -0.0389 -0.0454
18630TIP3    H177305   6.114   1.500  14.722  1.2248 -0.8351 -0.1283
18630TIP3    H277306   6.151   1.450  14.860  0.5193 -1.9794 -0.3379
18631TIP3   OH277307   0.181   1.748   5.688 -0.1564  0.1066  0.4464
18631TIP3    H177308   0.230   1.666   5.678  1.0829  0.8626  0.0636
18631TIP3    H277309   0.110   1.727   5.749  0.0542 -1.2798  0.2365
18632TIP3   OH277310   2.042   5.145   3.514 -0.5973 -0.2951  0.2453
18632TIP3    H177311   1.992   5.120   3.436 -0.3097  1.8241 -0.6747
18632TIP3    H277312   2.061   5.238   3.502 -0.5007  0.0922  2.8435
18633TIP3   OH277313   5.851   4.236   2.688 -0.0601  0.7670  0.7467
18633TIP3    H177314   5.914   4.191   2.632  0.3027  0.4179  1.4206
18633TIP3    H277315   5.904   4.300   2.736 -0.5117  1.6867  0.0498
18634TIP3   OH277316   3.244   4.413  11.537 -0.0657 -0.4753  0.1780
18634TIP3    H177317   3.303   4.481  11.503 -0.7717 -0.4856 -1.1337
18634TIP3    H277318   3.199   4.455  11.610 -0.4079  0.4507 -0.5393
18635TIP3   OH277319   4.084   3.326  14.203 -0.2190  0.1039 -0.4537
18635TIP3    H177320   4.130   3.243  14.186  0.9982  0.8775 -1.1690
18635TIP3    H277321   4.086   3.336  14.298  0.9100 -0.0092 -0.4516
18636TIP3   OH277322   4.081   5.254   2.182 -0.2290 -0.7412  0.9641
18636TIP3    H177323   4.175   5.244   2.197 -0.0763 -0.5003  0.1934
18636TIP3    H277324   4.062   5.195   2.109 -0.4245  0.2257  0.2248
18637TIP3   OH277325   4.229   0.815   2.758  0.2306 -0.1357  0.3721
18637TIP3    H177326   4.305   0.765   2.728  0.9451  0.6320  0.8769
18637TIP3    H277327   4.236   0.814   2.854  0.0214  0.5697  0.3978
18638TIP3   OH277328   5.081   1.491  16.813  0.1213 -0.1515  0.2200
18638TIP3    H177329   5.152   1.457  16.868  2.2704  1.1279 -1.6335
18638TIP3    H277330   5.042   1.413  16.774  0.0747 -0.9094  1.6900
18639TIP3   OH277331   5.425   2.955  16.274 -0.0967  0.6254 -0.1095
18639TIP3    H177332   5.495   2.891  16.260  0.2682  0.6710  1.3929
18639TIP3    H277333   5.353   2.924  16.218  0.0459 -1.1655  0.6096
18640TIP3   OH277334   1.290   1.055   1.116 -0.3959 -0.7961 -0.3645
18640TIP3    H177335   1.259   1.035   1.028 -0.2737 -0.5682 -0.4608
18640TIP3    H277336   1.211   1.057   1.170 -0.9671  2.4912 -1.1043
18641TIP3   OH277337   0.418   1.318  15.063  0.1006 -0.3524 -0.6867
18641TIP3    H177338   0.337   1.267  15.055 -0.2457  0.1478 -0.4520
18641TIP3    H277339   0.483   1.268  15.015 -0.8679  0.3873 -2.9104
18642TIP3   OH277340   5.772   2.094  13.857 -0.5597 -0.7982 -0.0921
18642TIP3    H177341   5.797   2.011  13.899  1.7161 -0.4546 -0.6234
18642TIP3    H277342   5.799   2.161  13.919  1.2225 -0.3585 -1.2625
18643TIP3   OH277343   6.225   2.161  10.455  0.2269  0.3382 -0.7247
18643TIP3    H177344   6.277   2.212  10.392 -0.3207  0.5386 -1.0139
18643TIP3    H277345   6.236   2.206  10.538 -1.7363  2.0190 -1.3200
18644TIP3   OH277346   3.569   4.300   0.009 -0.4362  0.1708 -0.5515
18644TIP3    H177347   3.658   4.291  -0.025 -0.2439  2.2507 -0.7780
18644TIP3    H277348   3.524   4.354  -0.056 -1.9226 -0.9168 -0.4818
18645TIP3   OH277349   2.301   6.653   5.842 -0.3333  0.4791 -0.5383
18645TIP3    H177350   2.266   6.574   5.800 -0.8092 -0.2411  1.1211
18645TIP3    H277351   2.387   6.627   5.876 -0.7708  0.4215  0.5999
18646TIP3   OH277352   2.823   6.568   2.145  0.3240  0.0055 -0.5096
18646TIP3    H177353   2.835   6.660   2.169 -0.4975  0.2905 -1.1649
18646TIP3    H277354   2.875   6.520   2.210 -1.3331  0.7774  1.5072
18647TIP3   OH277355   2.163   4.159   3.292  0.0418  0.1661 -0.3461
18647TIP3    H177356   2.138   4.078   3.337 -0.4959  0.6662  0.2751
18647TIP3    H277357   2.102   4.225   3.324  0.4109  0.8083 -0.9154
18648TIP3   OH277358   6.299   4.971   6.293  0.2781 -0.6534  0.2298
18648TIP3    H177359   6.333   5.030   6.361 -1.4261  1.1617 -0.3743
18648TIP3    H277360   6.257   4.900   6.341 -0.5770  0.4142  1.1208
18649TIP3   OH277361   6.223   6.555   5.449 -0.2328  0.2685  0.5908
18649TIP3    H177362   6.174   6.633   5.424 -1.7179 -0.8744 -0.2555
18649TIP3    H277363   6.163   6.482   5.431  1.5784 -1.1722 -0.0041
18650TIP3   OH277364   3.839   0.346   3.543  0.1577 -0.3042  0.0959
18650TIP3    H177365   3.751   0.315   3.524  0.1071 -0.7856  1.0660
18650TIP3    H277366   3.828   0.439   3.563 -0.2837 -0.5749  1.1740
18651TIP3   OH277367   6.795   2.501  16.749 -0.6087 -0.4185 -0.5295
18651TIP3    H177368   6.762   2.590  16.742  0.1885 -0.0378  0.2255
18651TIP3    H277369   6.886   2.507  16.719 -1.1174 -1.3997 -2.4095
18652TIP3   OH277370   4.135   3.823  11.884 -0.5398 -0.1298 -0.0307
18652TIP3    H177371   4.161   3.875  11.961 -1.0148  0.2555 -0.1291
18652TIP3    H277372   4.216   3.779  11.857  0.1157  1.3160 -0.5332
18653TIP3   OH277373   5.950   6.676   0.524  0.0707 -0.4040  0.3785
18653TIP3    H177374   5.858   6.684   0.498  0.2919 -0.2917 -0.4064
18653TIP3    H277375   5.966   6.582   0.529  0.9872 -0.6478 -3.6584
18654TIP3   OH277376   6.143   3.507  14.492 -0.0046 -0.0643 -0.2459
18654TIP3    H177377   6.229   3.549  14.482  0.2556 -0.9526 -2.1074
18654TIP3    H277378   6.082   3.580  14.504  0.5174  0.8896 -2.8195
18655TIP3   OH277379   5.294   0.197  17.049  0.1423 -0.5521 -0.3390
18655TIP3    H177380   5.281   0.176  16.957 -0.8973 -0.1399 -0.2964
18655TIP3    H277381   5.337   0.282  17.049  0.3673 -0.6644 -0.4415
18656TIP3   OH277382   2.497   5.324   2.355  0.2515  0.0842  0.2347
18656TIP3    H177383   2.567   5.271   2.393 -1.6664 -1.2733  2.0680
18656TIP3    H277384   2.514   5.412   2.388  0.1279 -0.5707  2.1858
18657TIP3   OH277385   0.811   6.477   3.291  0.4297  0.8502 -0.4008
18657TIP3    H177386   0.790   6.454   3.381  1.5702 -1.1438 -0.5792
18657TIP3    H277387   0.729   6.508   3.254 -0.4590  0.0619  0.8539
18658TIP3   OH277388   0.636   0.542  12.217  0.0797 -0.2664  0.4611
18658TIP3    H177389   0.696   0.581  12.280 -0.0681  1.3608 -0.3704
18658TIP3    H277390   0.671   0.454  12.201  1.9205  0.4509  0.4051
18659TIP3   OH277391   0.685   1.426  13.850 -0.3314 -0.1098  0.1328
18659TIP3    H177392   0.652   1.516  13.844  1.2583  0.5695  0.8604
18659TIP3    H277393   0.674   1.403  13.943 -0.6777 -0.6458 -0.0409
18660TIP3   OH277394   1.450   4.212   3.969  0.5222 -0.3897 -0.4072
18660TIP3    H177395   1.542   4.241   3.970  0.7351 -0.9985 -1.1394
18660TIP3    H277396   1.415   4.239   4.053  1.6519 -1.0042  0.2865
18661TIP3   OH277397   1.837   1.863  15.235 -0.1083 -0.2423 -0.4768
18661TIP3    H177398   1.815   1.944  15.281 -2.1678 -1.0880  0.1872
18661TIP3    H277399   1.932   1.859  15.237  0.3595  3.6198 -3.2048
18662TIP3   OH277400   0.266   5.352   0.594 -0.1540  0.0675 -0.0472
18662TIP3    H177401   0.246   5.439   0.558 -1.0458  0.1302  0.5822
18662TIP3    H277402   0.249   5.360   0.687  0.3210 -0.6329  0.1057
18663TIP3   OH277403   4.177   4.202  13.828  0.3871  0.1252 -0.4440
18663TIP3    H177404   4.237   4.256  13.777  0.5912 -1.6330 -2.1746
18663TIP3    H277405   4.146   4.260  13.898  1.6008  2.0362 -1.4089
18664TIP3   OH277406   1.354   5.087  14.168 -0.3865  0.2635 -0.9058
18664TIP3    H177407   1.295   5.029  14.215  0.0907 -0.4515 -1.1677
18664TIP3    H277408   1.409   5.028  14.116 -0.9798  1.0235 -2.4593
18665TIP3   OH277409   0.464   6.447  14.346 -0.0290 -0.0030  0.0583
18665TIP3    H177410   0.412   6.375  14.384  2.4404 -2.0866 -0.2390
18665TIP3    H277411   0.507   6.488  14.421 -1.1579  0.9751  0.1916
18666TIP3   OH277412   3.870   3.255   1.302  0.2812 -0.6289 -0.2745
18666TIP3    H177413   3.795   3.236   1.359 -1.7577 -1.4949 -3.0197
18666TIP3    H277414   3.901   3.169   1.274  3.2166 -0.3489  1.7397
18667TIP3   OH277415   3.528   1.124   2.826  0.6741  0.6912 -0.1502
18667TIP3    H177416   3.433   1.130   2.832  0.6730 -0.4541  1.7338
18667TIP3    H277417   3.547   1.130   2.732 -1.2555  0.7171 -0.5725
18668TIP3   OH277418   1.728   5.348  16.985 -0.0211 -0.0880 -0.1231
18668TIP3    H177419   1.740   5.326  16.893 -1.2241  0.0452 -0.3283
18668TIP3    H277420   1.812   5.386  17.012  0.1976  0.2898 -1.2880
18669TIP3   OH277421   1.818   2.739   5.961 -0.1751  0.1200  0.0788
18669TIP3    H177422   1.826   2.834   5.975  0.8179  0.0621  0.0011
18669TIP3    H277423   1.909   2.709   5.955 -0.4834 -0.8713  0.3115
18670TIP3   OH277424   1.244   5.050  12.375 -0.6485  0.0264 -0.3978
18670TIP3    H177425   1.213   5.141  12.375 -2.5027 -0.5361  1.0683
18670TIP3    H277426   1.168   4.999  12.404  0.8945 -1.7963  0.6846
18671TIP3   OH277427   4.171   0.047   6.016  0.2243  0.1961 -0.0676
18671TIP3    H177428   4.196  -0.010   6.089  0.4370 -0.2386 -0.4746
18671TIP3    H277429   4.186   0.135   6.050 -0.6496  0.0418  0.7641
18672TIP3   OH277430   4.290   1.776  14.577  0.1683 -0.4316  0.1296
18672TIP3    H177431   4.265   1.852  14.630  0.5711 -0.9866  1.1584
18672TIP3    H277432   4.379   1.795  14.547  0.0667 -0.2626 -0.0645
18673TIP3   OH277433   1.832   5.292   5.673 -0.2939  0.2356 -0.1322
18673TIP3    H177434   1.788   5.376   5.688  0.5492  0.6014  0.3945
18673TIP3    H277435   1.791   5.257   5.594 -1.1732  0.7916  0.0613
18674TIP3   OH277436   0.300   6.382  17.023  0.5888  0.1061  0.0325
18674TIP3    H177437   0.216   6.361  17.063  0.7653 -1.3864 -0.2997
18674TIP3    H277438   0.288   6.360  16.930  1.3773 -0.2757  0.0104
18675TIP3   OH277439   6.723   0.371  13.250 -0.5879 -0.2219  0.0810
18675TIP3    H177440   6.734   0.282  13.283 -2.4009 -0.0402  1.3502
18675TIP3    H277441   6.628   0.384  13.246 -0.3818  1.1074 -1.6575
18676TIP3   OH277442   3.594   1.689   0.710  0.1431 -0.4166  0.5354
18676TIP3    H177443   3.602   1.699   0.615  1.3391  0.3682  0.6996
18676TIP3    H277444   3.630   1.770   0.746 -0.9003 -0.4287  1.6533
18677TIP3   OH277445   3.726   1.804   6.273 -0.0471 -0.4576 -0.3343
18677TIP3    H177446   3.709   1.713   6.298  0.3747 -0.0290  1.7004
18677TIP3    H277447   3.814   1.803   6.236 -0.0921 -0.9069 -0.4307
18678TIP3   OH277448   0.330   4.699   3.543  0.1103  0.5022  0.5536
18678TIP3    H177449   0.348   4.609   3.570  0.0860  0.3176 -0.0471
18678TIP3    H277450   0.304   4.743   3.624 -0.6504 -0.2239  0.7198
18679TIP3   OH277451   0.587   5.972   4.409  0.2202 -0.0222  0.1393
18679TIP3    H177452   0.661   5.938   4.458 -0.2777  0.4116  1.2180
18679TIP3    H277453   0.582   6.064   4.435  1.3860  0.8907 -2.5053
18680TIP3   OH277454   4.869   5.260   1.260  0.0474 -0.1311  0.5923
18680TIP3    H177455   4.870   5.355   1.254 -0.3468 -0.1962 -0.8120
18680TIP3    H277456   4.915   5.241   1.342  0.9213  1.2256  0.4508
18681TIP3   OH277457   2.039   1.763  11.258  0.5719 -0.0072  0.6988
18681TIP3    H177458   1.992   1.679  11.259 -0.2793  0.4182 -0.7088
18681TIP3    H277459   2.119   1.745  11.208 -0.9805  0.6167 -2.2673
18682TIP3   OH277460   2.741   6.052  11.771 -0.1810 -0.7580  0.0544
18682TIP3    H177461   2.758   5.967  11.812  1.3335 -1.8210 -2.5902
18682TIP3    H277462   2.828   6.093  11.766 -0.5680 -0.0340 -0.7450
18683TIP3   OH277463   0.239   3.104  16.954 -0.5459  0.1271  0.0355
18683TIP3    H177464   0.313   3.149  16.994 -1.4515  0.2982  1.5549
18683TIP3    H277465   0.170   3.107  17.019 -2.2946  0.9384 -1.7608
18684TIP3   OH277466   4.522   3.848  15.634  0.3657 -0.1427 -0.4104
18684TIP3    H177467   4.589   3.779  15.637 -0.5878 -1.0769  1.6380
18684TIP3    H277468   4.488   3.851  15.723  0.7318  3.4326 -0.2798
18685TIP3   OH277469   0.627   3.807  11.066  0.4676 -0.3009  0.0913
18685TIP3    H177470   0.665   3.766  10.989  0.4523 -0.6192  0.2509
18685TIP3    H277471   0.699   3.813  11.129  0.8414  1.2497 -0.4432
18686TIP3   OH277472   0.670   1.566  13.264  0.7499  0.3332 -0.1481
18686TIP3    H177473   0.621   1.529  13.337  0.7499  1.4451  0.4332
18686TIP3    H277474   0.675   1.495  13.200 -2.1358  0.3322 -0.5017
18687TIP3   OH277475   6.727   6.494  13.997 -0.0203 -0.5862  0.2352
18687TIP3    H177476   6.680   6.513  13.916  0.2729 -1.2909 -0.1104
18687TIP3    H277477   6.714   6.572  14.052  0.2260  0.1277 -0.6906
18688TIP3   OH277478   4.128   1.803  15.926  0.0999 -0.7161 -0.8416
18688TIP3    H177479   4.184   1.778  15.999 -0.4064  0.5970  0.0343
18688TIP3    H277480   4.045   1.759  15.944  0.3752 -1.4634 -1.3515
18689TIP3   OH277481   3.013   3.012  12.908  0.2947 -0.5181 -0.1583
18689TIP3    H177482   3.032   2.921  12.933 -0.4494 -0.5975  0.1567
18689TIP3    H277483   2.984   3.053  12.989  0.0912 -0.1497 -0.4160
18690TIP3   OH277484   0.046   0.750  16.659 -0.4869 -0.0131  0.0300
18690TIP3    H177485   0.124   0.702  16.631 -0.4023  0.4335 -0.5267
18690TIP3    H277486  -0.020   0.683  16.671  0.0520 -0.4277  0.7720
18691TIP3   OH277487   1.388   1.883  11.795 -0.0071 -0.1584 -0.1695
18691TIP3    H177488   1.303   1.911  11.763  0.0364  0.4130  0.2004
18691TIP3    H277489   1.389   1.788  11.782  0.3359  0.1130 -2.6014
18692TIP3   OH277490   6.810   3.173  17.119  0.4268 -0.1827  0.6481
18692TIP3    H177491   6.782   3.264  17.115  0.0284 -0.3166  0.3330
18692TIP3    H277492   6.788   3.145  17.208 -0.9408 -0.4382  0.2552
18693TIP3   OH277493   6.607   5.343   6.320  0.3998  0.2977 -0.3475
18693TIP3    H177494   6.601   5.252   6.350 -1.2362 -0.4630 -2.7216
18693TIP3    H277495   6.520   5.379   6.336  0.3894  0.7650 -1.3835
18694TIP3   OH277496   3.062   0.274   1.193  0.1958  0.1867 -1.5691
18694TIP3    H177497   3.078   0.243   1.282  0.1957  1.5306 -1.0771
18694TIP3    H277498   3.086   0.200   1.137  2.3100  0.0462 -0.5697
18695TIP3   OH277499   4.468   1.784  12.597 -0.8610  0.0518  0.3476
18695TIP3    H177500   4.449   1.690  12.604  0.4571 -0.2293  0.4196
18695TIP3    H277501   4.431   1.809  12.512 -0.5729 -0.7110 -0.0169
18696TIP3   OH277502   3.306   5.120   3.209  0.6973  0.0306  0.4822
18696TIP3    H177503   3.255   5.201   3.203  2.6846  1.2733 -0.4816
18696TIP3    H277504   3.323   5.110   3.303 -2.2331 -1.0993  1.0018
18697TIP3   OH277505   4.906   0.394  16.091 -1.7486 -0.2595 -0.5996
18697TIP3    H177506   4.922   0.299  16.089  2.7014  0.0475  3.0914
18697TIP3    H277507   4.953   0.427  16.015 -0.5098 -0.9020 -0.1578
18698TIP3   OH277508   1.312   3.901   1.453  0.0863  0.3811  0.5817
18698TIP3    H177509   1.293   3.811   1.425 -0.7288  0.7279 -0.0153
18698TIP3    H277510   1.300   3.900   1.548 -1.6465  0.2662  0.3839
18699TIP3   OH277511   4.518   1.070  13.652  0.7271  0.3570  0.9091
18699TIP3    H177512   4.529   1.012  13.576 -1.5909  0.6296  0.3053
18699TIP3    H277513   4.454   1.135  13.624 -1.3694 -0.4210  3.5416
18700TIP3   OH277514   2.349   4.626   3.520  0.3129  0.2190 -0.4487
18700TIP3    H177515   2.343   4.541   3.476  0.1746  0.5535 -1.0771
18700TIP3    H277516   2.348   4.690   3.449 -1.5384  0.8506  0.0962
18701TIP3   OH277517   5.894   2.320  10.362 -1.1162  0.3954  0.2150
18701TIP3    H177518   5.945   2.239  10.356 -2.5514 -0.7347  2.2596
18701TIP3    H277519   5.811   2.300  10.320 -0.4567  1.8087 -1.9107
18702TIP3   OH277520   2.731   3.512  16.294 -0.0728  0.0169 -0.2308
18702TIP3    H177521   2.664   3.479  16.234 -1.3486 -0.8316  1.5960
18702TIP3    H277522   2.814   3.481  16.256 -0.7228  0.3541 -2.0640
18703TIP3   OH277523   3.182   5.776   6.091  0.1495  0.0114 -0.7743
18703TIP3    H177524   3.150   5.792   6.002 -0.6620 -0.2669 -0.5422
18703TIP3    H277525   3.130   5.835   6.146  0.0183 -0.4521 -0.3923
18704TIP3   OH277526   3.247   2.454  11.906  0.2922  0.0388  0.0785
18704TIP3    H177527   3.286   2.367  11.914  1.2378  0.5135  0.9329
18704TIP3    H277528   3.310   2.505  11.856  1.3379  1.0821  2.2948
18705TIP3   OH277529   1.817   6.042   1.402 -0.7321 -0.2485  0.3141
18705TIP3    H177530   1.797   5.962   1.354  0.0396 -2.1360  2.9175
18705TIP3    H277531   1.741   6.058   1.457  0.5833 -1.5949  2.7135
18706TIP3   OH277532   2.629   3.585   5.504 -0.0118 -0.3224  0.8595
18706TIP3    H177533   2.684   3.533   5.562 -1.0878 -1.4247  0.9319
18706TIP3    H277534   2.595   3.522   5.441  1.4497  0.8833 -1.2848
18707TIP3   OH277535   3.129   0.611   6.529  0.1497  0.2835 -0.1433
18707TIP3    H177536   3.083   0.609   6.614  0.2966  2.6105  0.0654
18707TIP3    H277537   3.062   0.587   6.466 -0.3935  0.0844  0.4891
18708TIP3   OH277538   3.658   0.804  16.184  0.3259 -0.5190 -0.0359
18708TIP3    H177539   3.616   0.777  16.265  0.5137 -2.7601 -0.6370
18708TIP3    H277540   3.751   0.815  16.208  0.0518  0.9746  0.4853
18709TIP3   OH277541   1.853   2.465  12.126  0.1927  0.1538 -0.4226
18709TIP3    H177542   1.786   2.532  12.112  0.2807  0.4349  0.4587
18709TIP3    H277543   1.836   2.400  12.058 -0.9197  0.2732 -0.2773
18710TIP3   OH277544   1.027   1.882   1.878 -0.8884 -1.0575 -0.3071
18710TIP3    H177545   0.970   1.922   1.813 -0.7326  2.4275  1.4816
18710TIP3    H277546   1.115   1.889   1.841 -0.9295 -0.1600 -0.2559
18711TIP3   OH277547   6.656   2.436   0.692 -0.4905 -0.4630 -0.3867
18711TIP3    H177548   6.657   2.340   0.693 -1.3962 -0.5272 -2.0191
18711TIP3    H277549   6.563   2.459   0.681 -0.0761  0.5327 -2.0412
18712TIP3   OH277550   5.027   6.481   1.629  1.0274  0.3499 -0.1479
18712TIP3    H177551   5.111   6.480   1.584  0.6406  0.4905 -0.8834
18712TIP3    H277552   5.005   6.574   1.635  0.9618  0.3182  0.1183
18713TIP3   OH277553   5.677   3.406  16.381 -0.2305  0.5718 -0.1537
18713TIP3    H177554   5.604   3.462  16.358  0.4256  0.8703 -1.6984
18713TIP3    H277555   5.638   3.319  16.392 -1.2710  1.2957  2.4119
18714TIP3   OH277556   4.485   6.312   5.561  0.2902  0.8238  0.2750
18714TIP3    H177557   4.554   6.256   5.526  0.5604 -0.2854  2.4315
18714TIP3    H277558   4.403   6.267   5.538  0.4443  0.3375  0.6681
18715TIP3   OH277559   2.676   3.690   0.296 -0.3841  0.0687  0.0335
18715TIP3    H177560   2.641   3.690   0.386 -1.4381  0.6958 -0.3539
18715TIP3    H277561   2.637   3.768   0.256 -1.3745 -1.1673 -1.5006
18716TIP3   OH277562   5.201   5.717   1.865  1.4448 -0.2468  0.1138
18716TIP3    H177563   5.291   5.683   1.870  1.3972 -0.5701 -0.9778
18716TIP3    H277564   5.199   5.767   1.784  0.1129 -1.9070 -0.9542
18717TIP3   OH277565   4.988   5.375   6.575 -0.2842 -0.2842  0.5818
18717TIP3    H177566   4.915   5.332   6.529 -0.2267 -0.5477  0.7316
18717TIP3    H277567   4.958   5.464   6.590  0.3383  0.3109 -1.4321
18718TIP3   OH277568   4.471   3.214  12.177  0.2091 -0.5812  0.6614
18718TIP3    H177569   4.547   3.227  12.121 -1.0635  1.8183 -0.6649
18718TIP3    H277570   4.475   3.122  12.202  1.4749 -1.5214 -2.4771
18719TIP3   OH277571   6.038   4.341   3.945  0.4272  0.2281 -0.1968
18719TIP3    H177572   5.992   4.264   3.978  1.0099  0.0318  0.1717
18719TIP3    H277573   6.026   4.407   4.013 -1.2936  0.9497 -1.1448
18720TIP3   OH277574   1.398   3.676   2.472 -0.2301 -0.0204  0.4198
18720TIP3    H177575   1.491   3.693   2.454 -0.4378 -1.1367 -2.0893
18720TIP3    H277576   1.400   3.596   2.526  0.2690 -0.1978  0.1532
18721TIP3   OH277577   2.176   1.869  15.817 -0.3021  0.0328  0.5087
18721TIP3    H177578   2.172   1.825  15.902  0.2079 -0.4869  0.2690
18721TIP3    H277579   2.171   1.963  15.838  3.4934  0.1732  1.4323
18722TIP3   OH277580   3.746   4.122  16.508 -0.0335 -0.1675  0.1582
18722TIP3    H177581   3.668   4.080  16.545  1.3895 -1.8134  1.4518
18722TIP3    H277582   3.785   4.055  16.451  0.0218  0.9247 -1.1450
18723TIP3   OH277583   3.103   3.872  12.687 -0.3184  0.1206  0.6038
18723TIP3    H177584   3.015   3.837  12.693 -1.5949  1.9236 -3.9996
18723TIP3    H277585   3.101   3.950  12.742 -0.1623 -1.8762  3.7124
18724TIP3   OH277586   4.076   4.183  11.973  0.0304 -0.2998  0.1076
18724TIP3    H177587   4.014   4.208  12.041 -1.5916 -3.0087 -0.2534
18724TIP3    H277588   4.158   4.167  12.019 -0.2735  0.5634  0.9846
18725TIP3   OH277589   2.889   4.572   2.982 -0.5600  0.3179 -0.2576
18725TIP3    H177590   2.798   4.596   2.998 -0.7139 -1.3698  1.7985
18725TIP3    H277591   2.888   4.476   2.980  1.0813  0.2848 -0.9591
18726TIP3   OH277592   4.642   3.715   1.285  0.2674  0.5293 -0.3589
18726TIP3    H177593   4.616   3.644   1.343  0.4897 -0.6865 -1.6867
18726TIP3    H277594   4.734   3.698   1.267  0.0429  0.5007 -1.5555
18727TIP3   OH277595   3.488   1.499  10.227 -0.3001 -0.5910  0.1829
18727TIP3    H177596   3.438   1.426  10.263  0.5452 -1.2612  0.0258
18727TIP3    H277597   3.540   1.460  10.157  0.0107  0.2015 -0.0312
18728TIP3   OH277598   4.861   5.627  15.257 -0.5305  0.0095  0.5811
18728TIP3    H177599   4.954   5.606  15.262 -0.5223 -0.0608  0.1809
18728TIP3    H277600   4.817   5.543  15.259 -0.5457 -0.0039  0.0392
18729TIP3   OH277601   2.381   4.392   5.020  0.1611 -0.3382 -0.4661
18729TIP3    H177602   2.422   4.466   4.976  3.1370 -0.8280  1.2063
18729TIP3    H277603   2.316   4.431   5.078  1.1017  0.9103 -0.2202
18730TIP3   OH277604   5.392   4.321  11.847 -0.3862 -0.1860 -0.6850
18730TIP3    H177605   5.347   4.352  11.926  0.8038 -1.1818  0.4239
18730TIP3    H277606   5.479   4.297  11.877  0.3427  0.0755 -2.4588
18731TIP3   OH277607   5.559   4.363  14.456 -0.6521  0.2287  0.1590
18731TIP3    H177608   5.483   4.420  14.447 -0.0543  1.1506  0.6786
18731TIP3    H277609   5.568   4.320  14.371 -1.2891  0.7063 -0.1561
18732TIP3   OH277610   2.325   2.949   4.949 -0.0659 -0.2919  0.3188
18732TIP3    H177611   2.296   2.883   4.886  0.1787  1.0741 -1.2946
18732TIP3    H277612   2.268   2.935   5.025 -0.7822 -1.6159 -0.4081
18733TIP3   OH277613   5.540   2.833  14.591  0.3784 -0.3931  0.1430
18733TIP3    H177614   5.557   2.927  14.596 -0.1784 -0.1387 -1.7822
18733TIP3    H277615   5.452   2.827  14.555  0.3180 -1.6638  0.4728
18734TIP3   OH277616   6.015   0.261  16.910 -0.4150  0.4136  0.1608
18734TIP3    H177617   6.108   0.249  16.892 -0.3489  1.5467 -0.3552
18734TIP3    H277618   5.988   0.181  16.956  0.9285  0.3222  0.8145
18735TIP3   OH277619   5.914   4.175  14.420 -0.0715  0.3230  0.0913
18735TIP3    H177620   5.877   4.091  14.449  0.8772  0.2054  1.0239
18735TIP3    H277621   5.854   4.205  14.352 -0.7965 -0.7927  0.2034
18736TIP3   OH277622   1.788   2.443  12.647  0.3875  0.2613 -0.5662
18736TIP3    H177623   1.771   2.360  12.690 -1.3264  0.7135 -0.2779
18736TIP3    H277624   1.723   2.503  12.684  0.5752  1.3345 -1.8758
18737TIP3   OH277625   4.042   0.151   3.620  0.3897  0.0680 -0.5827
18737TIP3    H177626   3.987   0.221   3.583  0.4175  0.6298  0.4114
18737TIP3    H277627   4.077   0.106   3.543 -0.9901  0.0544 -1.2490
18738TIP3   OH277628   2.016   1.788   3.661 -0.3904  0.2164 -0.5011
18738TIP3    H177629   2.050   1.790   3.751 -0.5391  0.8879 -0.4578
18738TIP3    H277630   1.982   1.876   3.646 -0.9649 -0.0847 -0.9906
18739TIP3   OH277631   6.686   2.013  16.308 -0.3659  0.2647  0.1668
18739TIP3    H177632   6.704   1.978  16.221 -2.3565 -0.7508  0.1043
18739TIP3    H277633   6.607   2.067  16.296 -0.9333 -0.2526  1.4061
18740TIP3   OH277634   4.569   2.976  12.298 -0.0415 -0.0261 -0.2362
18740TIP3    H177635   4.654   2.959  12.338  1.2939  1.8468 -2.0377
18740TIP3    H277636   4.561   2.909  12.230 -1.4046 -1.9761  1.7278
18741TIP3   OH277637   5.865   4.410   2.330 -0.5619 -0.4706  0.1737
18741TIP3    H177638   5.780   4.449   2.348 -1.0594 -1.5190  0.1612
18741TIP3    H277639   5.853   4.316   2.348  0.8873 -0.4832  1.2609
18742TIP3   OH277640   3.878   1.588   4.073  0.8173  0.7456  0.9728
18742TIP3    H177641   3.880   1.583   4.168  0.9344 -0.6673  0.9131
18742TIP3    H277642   3.911   1.504   4.043  1.6725  1.4960 -0.3313
18743TIP3   OH277643   3.215   0.015   5.979 -0.3156 -0.1189  0.0894
18743TIP3    H177644   3.195  -0.075   6.004  1.9916  0.3035  4.2772
18743TIP3    H277645   3.154   0.069   6.030 -0.0990  0.7296 -0.5194
18744TIP3   OH277646   2.310   0.666   0.802 -0.2396 -0.7524  0.0455
18744TIP3    H177647   2.238   0.669   0.866  1.4184 -0.0169  1.9763
18744TIP3    H277648   2.342   0.576   0.807  0.1771 -0.5788  0.6201
18745TIP3   OH277649   5.089   3.224  14.110 -0.0590 -0.0837 -0.1100
18745TIP3    H177650   5.109   3.267  14.027 -1.1998 -0.2163 -0.4775
18745TIP3    H277651   5.064   3.135  14.085  0.4202 -0.3863  0.4660
18746TIP3   OH277652   2.091   2.003  16.284  0.6797  0.5197 -0.7671
18746TIP3    H177653   2.170   1.950  16.294  0.4737  0.5784  2.4004
18746TIP3    H277654   2.115   2.089  16.318 -1.1313 -0.0035  2.2145
18747TIP3   OH277655   4.846   2.818  13.386 -0.1733  0.3797 -0.1406
18747TIP3    H177656   4.752   2.806  13.381 -0.0041 -0.6334 -1.4751
18747TIP3    H277657   4.863   2.898  13.337 -0.1715 -0.4844 -1.5865
18748TIP3   OH277658   0.177   0.682  15.203 -0.3467  0.1308  0.5453
18748TIP3    H177659   0.104   0.621  15.215 -0.3163  0.1959  1.0650
18748TIP3    H277660   0.177   0.700  15.109  0.9787 -2.3634 -0.0108
18749TIP3   OH277661   0.832   0.007   5.365 -0.1315 -0.5343  0.2590
18749TIP3    H177662   0.838  -0.082   5.329 -0.9466  0.6144 -3.1735
18749TIP3    H277663   0.739   0.019   5.384 -0.2986  0.0472 -0.8287
18750TIP3   OH277664   5.187   0.621   3.558  0.4791  0.3379  0.2344
18750TIP3    H177665   5.249   0.603   3.629  0.4186 -0.4788  0.0887
18750TIP3    H277666   5.142   0.538   3.544  1.1999  0.2010 -1.4450
18751TIP3   OH277667   0.779   5.980   1.532  0.1274 -0.5307  0.4971
18751TIP3    H177668   0.795   5.896   1.576  1.7318 -0.6919 -0.2915
18751TIP3    H277669   0.836   6.041   1.578  1.2155 -0.5340 -0.8008
18752TIP3   OH277670   3.482   1.056   3.847 -0.1324  0.6536 -0.0796
18752TIP3    H177671   3.459   0.964   3.857 -0.5926  0.7545 -0.1829
18752TIP3    H277672   3.410   1.103   3.887 -0.4976  0.9950 -1.1020
18753TIP3   OH277673   0.492   2.346  12.132 -0.1125  0.5017 -0.4088
18753TIP3    H177674   0.495   2.334  12.227 -0.5405  1.7534 -0.2188
18753TIP3    H277675   0.409   2.304  12.106  1.3214 -2.4483 -0.6974
18754TIP3   OH277676   5.248   3.949   3.737 -0.7597 -0.3912  0.6024
18754TIP3    H177677   5.254   3.856   3.760  0.6029 -0.2238  1.0260
18754TIP3    H277678   5.312   3.992   3.794 -0.3210  0.6041 -0.5786
18755TIP3   OH277679   1.531   6.319  15.839  0.3896  0.4873  0.0428
18755TIP3    H177680   1.560   6.240  15.793  0.3904  0.1484  0.6051
18755TIP3    H277681   1.517   6.290  15.929 -0.7015  0.8767  0.0137
18756TIP3   OH277682   1.088   2.762   2.807 -0.4409  0.6605  0.0163
18756TIP3    H177683   1.102   2.853   2.782 -2.0035  0.9722  0.1695
18756TIP3    H277684   1.067   2.767   2.901 -1.2183  0.2305 -0.1298
18757TIP3   OH277685   2.870   3.324   6.428  0.1796 -0.3453 -0.1724
18757TIP3    H177686   2.789   3.351   6.384  1.0468  0.1880 -1.5016
18757TIP3    H277687   2.840   3.280   6.508 -1.3836  1.8295  0.5423
18758TIP3   OH277688   4.690   4.608   3.077 -0.4967 -0.1115  0.2943
18758TIP3    H177689   4.765   4.555   3.050 -1.5682 -2.4018  1.4979
18758TIP3    H277690   4.728   4.690   3.107  1.2933 -0.2939 -1.2625
18759TIP3   OH277691   6.334   4.850   0.116 -0.2056 -0.1425 -0.2083
18759TIP3    H177692   6.419   4.854   0.160 -0.1468 -0.0619 -0.3256
18759TIP3    H277693   6.298   4.765   0.140 -0.0569 -0.2095 -0.2174
18760TIP3   OH277694   6.782   1.441   0.288 -0.0518  0.2349  0.3540
18760TIP3    H177695   6.733   1.523   0.281 -1.0092 -0.2357  1.1951
18760TIP3    H277696   6.848   1.459   0.356  1.4841  1.0983 -1.2881
18761TIP3   OH277697   6.673   5.569   3.354 -0.2663  0.1134  0.6028
18761TIP3    H177698   6.601   5.558   3.292  0.5154 -1.8491 -0.0497
18761TIP3    H277699   6.751   5.540   3.305  0.6513  0.2905  1.9109
18762TIP3   OH277700   2.783   4.064  12.998  0.1266 -0.4002  0.6631
18762TIP3    H177701   2.727   3.996  13.035 -0.8710  0.4631  0.7577
18762TIP3    H277702   2.872   4.033  13.015 -0.2700 -2.2273 -0.2760
18763TIP3   OH277703   6.189   3.041   1.701 -0.1450  0.6815  0.9720
18763TIP3    H177704   6.256   2.998   1.647  0.1209  0.7135  1.2765
18763TIP3    H277705   6.202   3.134   1.686  0.6633  0.7401  1.9551
18764TIP3   OH277706   1.210   4.686   4.458 -1.0290  0.5673  0.0007
18764TIP3    H177707   1.165   4.603   4.471 -0.5428 -0.0093 -1.7130
18764TIP3    H277708   1.295   4.674   4.502 -0.8366  0.0319 -0.5054
18765TIP3   OH277709   3.735   2.427   4.348 -0.1933 -0.1609 -0.7307
18765TIP3    H177710   3.783   2.408   4.429  0.2238 -2.7202 -1.4760
18765TIP3    H277711   3.759   2.517   4.326  2.4132 -0.5353  0.2093
18766TIP3   OH277712   0.366   3.089   5.629 -0.7598  0.0742  0.3199
18766TIP3    H177713   0.429   3.090   5.556  0.4864  3.0278  1.2805
18766TIP3    H277714   0.420   3.071   5.706 -1.8249 -1.4838  0.7389
18767TIP3   OH277715   5.911   1.719   4.550 -0.0637 -0.2422 -0.2470
18767TIP3    H177716   5.963   1.794   4.520  0.4118 -0.7014 -0.5951
18767TIP3    H277717   5.911   1.659   4.475  1.7761 -1.7591  0.8804
18768TIP3   OH277718   4.298   0.169  13.810  0.2042 -0.1762  0.0534
18768TIP3    H177719   4.290   0.096  13.872 -1.4388 -0.5344 -0.5420
18768TIP3    H277720   4.336   0.129  13.732  2.5088  0.3229  0.8305
18769TIP3   OH277721   5.811   6.558  12.558 -0.7288 -0.7984  0.6059
18769TIP3    H177722   5.800   6.645  12.597  1.0097 -0.0453 -0.4575
18769TIP3    H277723   5.904   6.540  12.565 -0.7446 -1.7004 -0.9668
18770TIP3   OH277724   5.253   4.527  11.646 -0.6305 -0.3329 -0.3439
18770TIP3    H177725   5.253   4.540  11.741  0.0171  0.6711 -0.4681
18770TIP3    H277726   5.320   4.588  11.614 -0.6685 -0.8494 -1.4186
18771TIP3   OH277727   5.347   6.295   1.080 -0.2803  0.0809  0.7280
18771TIP3    H177728   5.423   6.349   1.104 -0.6681  0.0855  2.0274
18771TIP3    H277729   5.275   6.358   1.070  0.0922  0.2117 -1.6493
18772TIP3   OH277730   1.318   4.875   4.112  0.0080  0.3686 -0.1709
18772TIP3    H177731   1.353   4.962   4.093 -0.1279  0.4805  0.0861
18772TIP3    H277732   1.285   4.882   4.201 -0.6844  0.2714 -0.4123
18773TIP3   OH277733   2.584   4.108   2.854  0.1142  0.3553  0.2623
18773TIP3    H177734   2.494   4.083   2.830  0.2621 -0.7176  0.7720
18773TIP3    H277735   2.606   4.051   2.927  1.5484 -0.0488 -0.4482
18774TIP3   OH277736   6.661   0.748  11.679 -0.5201 -0.1602  0.0083
18774TIP3    H177737   6.592   0.752  11.612  0.6854 -1.2492 -1.3652
18774TIP3    H277738   6.708   0.831  11.670  0.0938 -0.6007 -1.0533
18775TIP3   OH277739   0.545   0.036   5.335 -0.6374 -0.0014 -0.0103
18775TIP3    H177740   0.556   0.107   5.272  3.3356  2.0614  2.5507
18775TIP3    H277741   0.480   0.069   5.397 -1.4374 -0.2279 -0.7059
18776TIP3   OH277742   2.971   3.154   1.846 -0.4487 -0.2217 -0.5172
18776TIP3    H177743   2.951   3.151   1.940  0.2566 -0.2379 -0.3608
18776TIP3    H277744   2.906   3.096   1.806 -0.0741 -1.0907  0.0945
18777TIP3   OH277745   6.792   0.523  10.947  0.0811  0.0410 -0.1696
18777TIP3    H177746   6.876   0.564  10.927  0.0537 -0.1873 -0.7554
18777TIP3    H277747   6.793   0.441  10.898 -1.4050  1.0595 -2.0088
18778TIP3   OH277748   3.153   4.400   3.755  0.2345 -0.9764 -0.3238
18778TIP3    H177749   3.071   4.448   3.743  0.1341 -1.1565 -0.3640
18778TIP3    H277750   3.217   4.449   3.703  0.4532 -0.0819  0.7374
18779TIP3   OH277751   5.969   5.617  16.627  0.2802 -0.0734  0.0424
18779TIP3    H177752   5.910   5.560  16.676  1.1614 -1.3890 -0.3780
18779TIP3    H277753   6.028   5.653  16.694  0.7003 -0.8862  0.1167
18780TIP3   OH277754   2.809   6.322  13.485  0.1306 -0.3958  0.1774
18780TIP3    H177755   2.903   6.336  13.473  0.0850  0.5956  0.8330
18780TIP3    H277756   2.800   6.293  13.576 -0.2117 -0.3191  0.1710
18781TIP3   OH277757   1.790   1.193   2.830 -0.0614 -0.2754  0.3225
18781TIP3    H177758   1.725   1.256   2.863  0.5231  0.9533 -0.7713
18781TIP3    H277759   1.741   1.140   2.766  0.0738  0.9828 -0.8851
18782TIP3   OH277760   3.243   4.934  12.648  0.4693  0.7402  0.5168
18782TIP3    H177761   3.165   4.969  12.605  0.1749  0.4111  0.7770
18782TIP3    H277762   3.310   4.935  12.580 -0.7897 -2.7747 -0.9926
18783TIP3   OH277763   3.759   6.403   0.943  0.7841  0.5834  0.2365
18783TIP3    H177764   3.744   6.457   0.865  2.6930  2.3213  0.9907
18783TIP3    H277765   3.765   6.314   0.909  2.0832  1.3387 -1.7091
18784TIP3   OH277766   3.294   6.698  13.427 -0.0973  0.0278  0.0338
18784TIP3    H177767   3.329   6.626  13.375 -1.1355 -0.6487  0.2493
18784TIP3    H277768   3.232   6.657  13.487 -1.8614  1.2481 -0.8753
18785TIP3   OH277769   0.312   3.716   6.530  0.1346  0.2280 -0.3184
18785TIP3    H177770   0.329   3.627   6.499 -0.8688 -0.9847  2.3111
18785TIP3    H277771   0.382   3.732   6.594  0.5149  1.5033 -1.0221
18786TIP3   OH277772   4.043   5.585  11.460 -0.6235 -0.1937  0.0343
18786TIP3    H177773   4.133   5.557  11.445 -0.9257 -1.1896 -0.0036
18786TIP3    H277774   4.051   5.666  11.511  0.3332  0.9826 -1.8540
18787TIP3   OH277775   6.704   0.488   4.735 -0.3023 -0.0939  0.1161
18787TIP3    H177776   6.699   0.582   4.753  1.3555  0.4511 -1.8709
18787TIP3    H277777   6.697   0.481   4.640  0.4275 -1.9194  0.1443
18788TIP3   OH277778   0.261   1.445   5.337 -0.1448 -0.4300 -0.3926
18788TIP3    H177779   0.171   1.436   5.307  0.0236  1.0915 -1.5032
18788TIP3    H277780   0.258   1.513   5.404  0.4547  1.6370 -2.3117
18789TIP3   OH277781   0.385   3.635   5.293 -0.2412  0.3131  0.1693
18789TIP3    H177782   0.317   3.579   5.330 -0.3026 -0.3408 -0.8961
18789TIP3    H277783   0.395   3.606   5.203 -0.8602  2.5687 -0.7011
18790TIP3   OH277784   6.194   5.362   3.517  0.3849  0.6176  0.4557
18790TIP3    H177785   6.136   5.437   3.512  0.8883  0.9592 -0.4632
18790TIP3    H277786   6.282   5.398   3.506  0.6433 -0.0870  0.1243
18791TIP3   OH277787   1.571   4.504   2.874  0.6358 -0.2269  0.1519
18791TIP3    H177788   1.576   4.462   2.960  1.1633  2.1777  1.3908
18791TIP3    H277789   1.657   4.543   2.861  0.2813  0.2174 -1.0691
18792TIP3   OH277790   0.972   0.311  16.579 -0.1827  0.3080 -0.1900
18792TIP3    H177791   1.049   0.358  16.545 -1.2128  3.4629  1.4220
18792TIP3    H277792   0.908   0.315  16.509 -0.2741  1.4444 -0.0547
18793TIP3   OH277793   1.003   1.652  10.230  0.2403 -0.0337  0.1589
18793TIP3    H177794   0.927   1.620  10.279  0.3905 -1.3374 -0.4133
18793TIP3    H277795   1.078   1.636  10.287  0.3537 -1.0676 -0.2519
18794TIP3   OH277796   6.617   5.396   5.777 -0.1387  0.2539 -0.2697
18794TIP3    H177797   6.624   5.491   5.785 -0.1143  0.2213  0.1391
18794TIP3    H277798   6.589   5.367   5.864 -0.3634 -0.0927 -0.4515
18795TIP3   OH277799   3.020   5.928  11.676  0.6025 -0.0318  0.0457
18795TIP3    H177800   2.966   5.935  11.754  0.6560 -1.2164  0.2138
18795TIP3    H277801   3.110   5.931  11.708  0.6321  0.3050 -0.0628
18796TIP3   OH277802   2.023   3.996  16.715  0.1588 -0.3657 -0.1937
18796TIP3    H177803   1.950   3.999  16.777 -0.7562 -0.0260 -1.2495
18796TIP3    H277804   1.992   4.046  16.639  0.5745 -2.1598 -1.6127
18797TIP3   OH277805   2.917   3.906  12.448 -0.3880  0.3261  0.2563
18797TIP3    H177806   2.863   3.947  12.515  0.0341  2.6379 -0.7463
18797TIP3    H277807   2.993   3.873  12.496 -0.5018  1.1638  1.0362
18798TIP3   OH277808   2.107   4.641  11.559  0.2973 -0.7735  0.0445
18798TIP3    H177809   2.115   4.698  11.635 -1.3812  0.3665 -0.5548
18798TIP3    H277810   2.180   4.580  11.566  0.8264  0.0094  1.9475
18799TIP3   OH277811   1.304   2.213  12.444  0.1698  0.6994 -0.7146
18799TIP3    H177812   1.344   2.227  12.358 -1.7746  0.2040 -1.7634
18799TIP3    H277813   1.240   2.284  12.452  0.0354  0.4912  0.1380
18800TIP3   OH277814   1.006   5.873  11.691  0.0712  0.0535 -0.0445
18800TIP3    H177815   0.931   5.843  11.639 -0.0017 -0.4965  0.3578
18800TIP3    H277816   1.054   5.792  11.710  0.0941  0.2447  0.7321
18801TIP3   OH277817   3.979   6.191  15.661 -0.3838  1.5871  0.2712
18801TIP3    H177818   4.024   6.216  15.742  0.2324  0.2834  0.3586
18801TIP3    H277819   3.888   6.177  15.689  0.2851 -1.4151  1.3960
18802TIP3   OH277820   6.392   2.485  14.325  0.4918  0.8304  0.2301
18802TIP3    H177821   6.339   2.409  14.305  0.3070  1.2877 -1.1191
18802TIP3    H277822   6.449   2.457  14.397 -2.1860  0.6216  2.4516
18803TIP3   OH277823   6.786   3.880   2.258 -0.7826 -0.0171  0.5587
18803TIP3    H177824   6.840   3.932   2.318 -1.4070  0.7528  0.4896
18803TIP3    H277825   6.716   3.941   2.233 -2.2395 -1.2648  1.4310
18804TIP3   OH277826   1.187   1.472  15.337  0.0786  0.4435 -0.6545
18804TIP3    H177827   1.221   1.516  15.416 -2.4173  0.7662  0.3195
18804TIP3    H277828   1.121   1.412  15.370 -1.1288  0.6817 -2.5155
18805TIP3   OH277829   5.715   0.270   0.629 -0.1743 -0.0285  0.1189
18805TIP3    H177830   5.800   0.314   0.631  0.7060 -1.6487  0.3491
18805TIP3    H277831   5.690   0.269   0.537  0.2637  0.1081 -0.0033
18806TIP3   OH277832   1.695   5.057   2.183  0.3659  0.5559 -0.3146
18806TIP3    H177833   1.621   5.000   2.163  0.6945  0.3099 -0.8723
18806TIP3    H277834   1.693   5.067   2.278 -0.7119  1.0162 -0.3838
18807TIP3   OH277835   5.740   0.002  11.293  0.2738 -0.1512  0.0963
18807TIP3    H177836   5.747   0.048  11.376  1.0416  1.3934 -0.7796
18807TIP3    H277837   5.742   0.071  11.227 -0.1016 -1.3510 -1.2235
18808TIP3   OH277838   2.204   4.085  16.385  0.3390 -0.5153  0.1819
18808TIP3    H177839   2.138   4.134  16.435  0.4710  0.3617 -0.4768
18808TIP3    H277840   2.213   4.134  16.304  2.2495 -0.2868  0.4990
18809TIP3   OH277841   6.017   3.908   0.485  0.0136  0.5205  0.3029
18809TIP3    H177842   6.011   3.993   0.529  0.7351  0.0238  1.3956
18809TIP3    H277843   6.021   3.930   0.391 -1.0707  1.6167  0.4873
18810TIP3   OH277844   4.437   0.704   2.440 -0.1837 -0.3106  0.4046
18810TIP3    H177845   4.418   0.769   2.373  0.8763  0.5011  0.8652
18810TIP3    H277846   4.460   0.755   2.518  1.9751 -1.1778  0.4145
18811TIP3   OH277847   5.685   4.821   1.172  0.1367 -0.1250 -0.1810
18811TIP3    H177848   5.673   4.904   1.126  0.4652  0.0400  0.0261
18811TIP3    H277849   5.779   4.817   1.190 -0.2732  1.0348  2.7604
18812TIP3   OH277850   5.947   0.238  12.051  0.1984 -0.6767 -0.3279
18812TIP3    H177851   5.851   0.240  12.056  0.1581 -1.9380 -0.2170
18812TIP3    H277852   5.966   0.177  11.980  0.9281 -0.2336 -0.5186
18813TIP3   OH277853   1.007   2.670   0.500  0.1911 -0.1242  0.3873
18813TIP3    H177854   1.092   2.629   0.483  1.5756  2.5482  0.4565
18813TIP3    H277855   0.991   2.725   0.424 -1.0954  0.0403  0.7552
18814TIP3   OH277856   0.388   5.227   1.282  0.2659 -0.3211 -0.0187
18814TIP3    H177857   0.309   5.234   1.336 -0.2871 -1.1624 -0.6983
18814TIP3    H277858   0.394   5.135   1.259  0.8989 -0.0987 -0.8045
18815TIP3   OH277859   0.472   5.642   4.962  0.0701 -0.4717  0.1689
18815TIP3    H177860   0.544   5.656   5.023  0.0713  1.1638 -0.1479
18815TIP3    H277861   0.399   5.691   5.000 -0.7239 -1.6638  0.2162
18816TIP3   OH277862   1.300   2.451  15.130 -0.3836 -0.2559 -0.3552
18816TIP3    H177863   1.306   2.546  15.119 -0.6177 -0.3853 -1.8212
18816TIP3    H277864   1.380   2.417  15.091 -0.6073 -0.6915 -0.4411
18817TIP3   OH277865   5.325   0.343   3.040 -0.0241 -0.8237 -0.4620
18817TIP3    H177866   5.391   0.365   2.975 -0.7057 -2.8591 -1.9280
18817TIP3    H277867   5.250   0.398   3.017  0.2377 -0.4498 -0.4414
18818TIP3   OH277868   4.292   2.859   5.934 -0.2813 -0.6075 -0.2162
18818TIP3    H177869   4.379   2.834   5.965 -0.0100 -0.0167 -0.4776
18818TIP3    H277870   4.265   2.930   5.992  0.1149  0.3166 -1.1201
18819TIP3   OH277871   1.653   5.681   4.389  0.1769  0.1414 -0.5931
18819TIP3    H177872   1.748   5.696   4.384 -0.2201  2.7271 -2.7013
18819TIP3    H277873   1.622   5.748   4.450 -0.5121  0.7813 -1.6265
18820TIP3   OH277874   5.200   2.791   0.080  0.0963  0.3613  0.3575
18820TIP3    H177875   5.166   2.787   0.169 -0.0164  0.2609  0.3093
18820TIP3    H277876   5.211   2.700   0.054  1.0876  0.3935  0.6345
18821TIP3   OH277877   5.339   1.570   0.490 -0.5089  0.0308 -0.2637
18821TIP3    H177878   5.368   1.482   0.467  0.6238 -0.1721  1.6666
18821TIP3    H277879   5.417   1.624   0.478 -0.4669  0.2758  0.9230
18822TIP3   OH277880   1.935   3.535   1.341  0.4006  0.2600 -0.5757
18822TIP3    H177881   1.853   3.496   1.309 -0.7638  0.8473  1.4969
18822TIP3    H277882   1.973   3.467   1.396  1.9828 -0.4529 -2.4418
18823TIP3   OH277883   0.165   6.382   0.246  0.5366 -0.6605 -0.5042
18823TIP3    H177884   0.255   6.413   0.249  0.1358  0.5118  1.6161
18823TIP3    H277885   0.157   6.338   0.161  2.2500  1.7818 -2.0557
18824TIP3   OH277886   6.503   2.416  11.124 -0.2784  0.1397 -0.2662
18824TIP3    H177887   6.583   2.396  11.174 -1.0662  0.4418  1.1643
18824TIP3    H277888   6.515   2.508  11.097 -0.1045  0.1603 -0.1247
18825TIP3   OH277889   6.457   1.587   3.910 -0.2158  0.7087 -0.0248
18825TIP3    H177890   6.467   1.682   3.902  0.6055  0.6842  0.6159
18825TIP3    H277891   6.410   1.575   3.992 -0.6690  0.5671 -0.2992
18826TIP3   OH277892   2.412   1.555   4.019 -0.0576  0.1198  0.4119
18826TIP3    H177893   2.361   1.636   4.012  0.1604  0.3342  1.1893
18826TIP3    H277894   2.462   1.551   3.937  0.8888  1.4497  0.8831
18827TIP3   OH277895   2.740   3.447  15.213  0.0851  0.4750 -0.4206
18827TIP3    H177896   2.757   3.410  15.300  1.6957  2.0811  0.0226
18827TIP3    H277897   2.828   3.461  15.176 -0.4671  2.6809 -1.0194
18828TIP3   OH277898   4.014   0.230   0.451  0.4048 -0.0813  0.1321
18828TIP3    H177899   4.006   0.303   0.513  2.6488 -0.3448  0.8249
18828TIP3    H277900   3.952   0.165   0.483 -1.8366  1.5495 -0.6510
18829TIP3   OH277901   2.376   2.472   6.302 -0.1022 -0.0932 -0.0010
18829TIP3    H177902   2.471   2.475   6.307 -0.0723  1.7584 -1.0211
18829TIP3    H277903   2.345   2.523   6.377 -0.2823 -0.2279  0.0187
18830TIP3   OH277904   2.082   1.603  13.940 -0.6899  0.1099 -0.3211
18830TIP3    H177905   2.096   1.617  14.033  0.2112  0.1457 -0.4597
18830TIP3    H277906   1.992   1.568  13.934 -1.2586  1.3951  0.4282
18831TIP3   OH277907   4.236   4.383  14.422 -0.2683  0.5088  1.1560
18831TIP3    H177908   4.146   4.350  14.417  0.0295 -0.1344 -0.8942
18831TIP3    H277909   4.289   4.304  14.433  0.2018  0.5970 -0.2831
18832TIP3   OH277910   5.202   0.944   0.759  0.8204 -0.0214 -0.3327
18832TIP3    H177911   5.219   1.009   0.828  0.5277  1.1261 -1.3105
18832TIP3    H277912   5.125   0.896   0.790  0.8047  0.3556  0.2296
18833TIP3   OH277913   3.197   1.605   1.786  0.1740 -0.4664 -0.2561
18833TIP3    H177914   3.173   1.533   1.844 -0.0681  0.1830  0.4673
18833TIP3    H277915   3.117   1.656   1.777 -0.1130 -1.1850 -2.1167
18834TIP3   OH277916   0.575   1.662  12.907 -0.0291  0.2062 -0.4191
18834TIP3    H177917   0.596   1.673  12.814  0.3161 -1.1687 -0.5155
18834TIP3    H277918   0.647   1.609  12.942 -0.3650  0.3737  0.5489
18835TIP3   OH277919   3.186   1.751   5.069 -0.1966  0.0749  0.1641
18835TIP3    H177920   3.176   1.845   5.080  0.4987 -0.0190  1.8263
18835TIP3    H277921   3.266   1.742   5.016 -1.1993  0.4229 -1.4917
18836TIP3   OH277922   6.330   0.311   4.802 -0.1146 -0.5889 -0.1207
18836TIP3    H177923   6.340   0.357   4.718  0.7633 -1.4908 -0.5248
18836TIP3    H277924   6.262   0.246   4.785 -1.2060  0.3663  0.3930
18837TIP3   OH277925   5.344   0.769   4.549 -0.3090 -0.0067 -0.4489
18837TIP3    H177926   5.435   0.789   4.571 -0.4730  0.8048 -0.4883
18837TIP3    H277927   5.312   0.848   4.506 -1.4992  0.3300  0.9786
18838TIP3   OH277928   5.215   3.104   4.709 -0.2409 -0.0405  0.2294
18838TIP3    H177929   5.155   3.170   4.673 -1.0940 -0.1323  1.4427
18838TIP3    H277930   5.185   3.021   4.672 -0.2931  0.0244  0.1266
18839TIP3   OH277931   3.504   4.114   2.971  0.2765 -0.4896 -0.7877
18839TIP3    H177932   3.562   4.062   2.915  1.0403 -0.5513  0.0479
18839TIP3    H277933   3.552   4.195   2.987  0.7023 -1.0350  0.9071
18840TIP3   OH277934   1.577   1.139  16.731 -0.7565 -0.0726 -0.3281
18840TIP3    H177935   1.554   1.232  16.741 -0.9434 -0.1258 -0.2594
18840TIP3    H277936   1.638   1.138  16.658 -1.0304  0.0634 -0.5639
18841TIP3   OH277937   0.708   1.076   5.066  0.0660  0.3949 -0.0839
18841TIP3    H177938   0.747   1.031   4.991  0.2295  0.9742 -0.3568
18841TIP3    H277939   0.780   1.129   5.101 -0.1740  0.5859  0.1156
18842TIP3   OH277940   0.554   3.055   5.435  0.0917  0.0958 -0.2778
18842TIP3    H177941   0.623   3.117   5.411  0.6568 -0.3334  0.2083
18842TIP3    H277942   0.499   3.049   5.357  1.0850 -0.1912 -0.9622
18843TIP3   OH277943   3.243   5.322  16.619  0.2597  0.4144 -0.1599
18843TIP3    H177944   3.296   5.267  16.678  2.6879  0.9627 -1.6843
18843TIP3    H277945   3.241   5.407  16.662  1.3380  0.6011 -0.4483
18844TIP3   OH277946   1.907   1.459   4.287 -0.1850  0.2158  0.3515
18844TIP3    H177947   1.942   1.398   4.221 -1.0451  0.1092 -0.0215
18844TIP3    H277948   1.954   1.437   4.367  0.4317 -0.0752 -0.0784
18845TIP3   OH277949   4.763   2.448   4.408 -0.0261  0.2183  0.5997
18845TIP3    H177950   4.684   2.425   4.457 -0.6095 -1.1846 -0.9139
18845TIP3    H277951   4.777   2.541   4.427 -1.4206  0.2371  1.7166
18846TIP3   OH277952   5.648   1.790   4.744 -0.1766  0.2553  0.0238
18846TIP3    H177953   5.700   1.727   4.695  0.7187  0.2511  0.9400
18846TIP3    H277954   5.667   1.771   4.836 -1.1537  0.8111  0.3593
18847TIP3   OH277955   4.800   0.153   2.215  0.0321  0.8383 -0.1460
18847TIP3    H177956   4.876   0.096   2.201 -0.0543  0.6047  0.3036
18847TIP3    H277957   4.800   0.168   2.310 -0.8899  0.2652 -0.0487
18848TIP3   OH277958   0.231   0.095  14.157  0.4202 -0.3734  0.6216
18848TIP3    H177959   0.220   0.007  14.191 -0.6178  0.4131  2.4927
18848TIP3    H277960   0.317   0.095  14.117  0.1870 -2.3840  0.0431
18849TIP3   OH277961   0.253   2.677   6.258  0.0750  0.0207  0.1284
18849TIP3    H177962   0.256   2.676   6.354  0.7545 -0.2038  0.1112
18849TIP3    H277963   0.336   2.718   6.232 -0.3636  0.6144 -0.3547
18850TIP3   OH277964   1.871   6.672  12.019  0.0672  0.0765  0.1725
18850TIP3    H177965   1.888   6.760  12.052  0.5879  0.9612 -2.2487
18850TIP3    H277966   1.929   6.616  12.071  1.8465  1.5443 -0.1115
18851TIP3   OH277967   0.415   0.209  16.847  0.1780 -0.3124 -0.1453
18851TIP3    H177968   0.500   0.243  16.820 -0.4865  1.8467  0.2480
18851TIP3    H277969   0.357   0.224  16.773 -0.6563  1.6535  0.8315
18852TIP3   OH277970   5.894   4.882   2.345  0.0384 -0.3101 -0.1911
18852TIP3    H177971   5.843   4.932   2.281 -0.8181  0.7483  1.2654
18852TIP3    H277972   5.848   4.798   2.352  1.0307 -1.0833 -2.0547
18853TIP3   OH277973   3.588   4.206  15.904  0.2325 -0.2663  0.4064
18853TIP3    H177974   3.543   4.140  15.851 -1.2535  0.4017  0.7787
18853TIP3    H277975   3.664   4.160  15.940  0.7413 -0.9895 -1.5067
18854TIP3   OH277976   5.772   4.477  11.175  0.1832  0.3291 -0.0052
18854TIP3    H177977   5.819   4.421  11.113 -2.0485 -0.6310 -0.9084
18854TIP3    H277978   5.759   4.559  11.128 -1.4427 -0.3733 -0.8333
18855TIP3   OH277979   4.951   1.592   3.200  0.0393 -0.4436 -0.2408
18855TIP3    H177980   4.859   1.612   3.185  0.4268  0.7172 -1.2410
18855TIP3    H277981   4.969   1.516   3.145 -0.3932 -0.8955  0.2332
18856TIP3   OH277982   3.314   2.454   4.847  0.9138 -0.0273  0.2479
18856TIP3    H177983   3.225   2.437   4.818  0.8530  0.1927  0.3055
18856TIP3    H277984   3.364   2.464   4.767  0.6249  1.2232  0.2148
18857TIP3   OH277985   2.714   6.537   0.970  0.0492 -0.0281  0.1694
18857TIP3    H177986   2.622   6.522   0.990  0.0380  0.8414  0.7794
18857TIP3    H277987   2.713   6.598   0.896  0.1365 -0.8746 -0.5541
18858TIP3   OH277988   4.451   1.179  13.111  0.0705  0.5279 -0.2444
18858TIP3    H177989   4.463   1.155  13.019 -1.3943 -0.2036 -0.2657
18858TIP3    H277990   4.458   1.096  13.158  0.4233  0.8461  0.2771
18859TIP3   OH277991   5.409   3.759   0.879 -0.5297  0.4379 -0.5967
18859TIP3    H177992   5.398   3.812   0.957 -0.9052  0.0408 -0.3754
18859TIP3    H277993   5.323   3.719   0.865 -0.4121  0.3493 -1.0964
18860TIP3   OH277994   2.767   3.411   5.008  0.3384 -0.6106  0.2408
18860TIP3    H177995   2.795   3.406   4.916  1.1324  0.7129  0.3824
18860TIP3    H277996   2.826   3.350   5.053  0.4187 -0.7290 -0.0170
18861TIP3   OH277997   3.574   6.306  11.605  0.0522  0.2165 -0.3757
18861TIP3    H177998   3.668   6.324  11.604 -0.0740  1.0726  0.9105
18861TIP3    H277999   3.538   6.359  11.533  0.4767  0.3788 -0.4684
18862TIP3   OH278000   6.267   1.202  15.049  0.3612 -0.4454  0.3517
18862TIP3    H178001   6.214   1.170  15.122 -1.8000  1.9154 -0.0282
18862TIP3    H278002   6.349   1.232  15.090 -1.3126  2.0561  2.1483
18863TIP3   OH278003   4.548   1.815   4.725  0.3444 -0.1227 -0.0843
18863TIP3    H178004   4.519   1.733   4.685  1.1803 -1.1222  1.2733
18863TIP3    H278005   4.492   1.882   4.685 -0.4960 -1.3671 -1.0808
18864TIP3   OH278006   0.052   1.444   2.077 -0.3983  0.1182 -0.1332
18864TIP3    H178007   0.074   1.506   2.146 -0.7610 -0.7195  0.7546
18864TIP3    H278008  -0.016   1.389   2.115  0.3462 -1.2109 -0.6641
18865TIP3   OH278009   4.198   2.340   5.230  0.0585  0.0020  0.0963
18865TIP3    H178010   4.128   2.373   5.173  0.7908  1.3946 -0.0377
18865TIP3    H278011   4.251   2.285   5.172 -0.5512 -0.5324  0.0369
18866TIP3   OH278012   2.454   0.176   3.794  0.0753  0.6800  0.1274
18866TIP3    H178013   2.498   0.254   3.829  1.3070  0.8806 -1.7667
18866TIP3    H278014   2.515   0.105   3.809 -0.4741  0.3027  0.6266
18867TIP3   OH278015   1.326   2.049  12.063 -0.2178  0.1695  0.2004
18867TIP3    H178016   1.235   2.023  12.077  0.0979 -0.9996  0.1969
18867TIP3    H278017   1.357   1.990  11.994  1.0122 -0.5643  1.3572
18868TIP3   OH278018   6.245   6.582  14.269  0.0909 -0.0186 -0.2518
18868TIP3    H178019   6.160   6.623  14.285 -0.4605 -2.1161  3.2672
18868TIP3    H278020   6.234   6.536  14.186 -2.9412 -1.6585  0.8898
18869TIP3   OH278021   1.314   2.543   1.516  0.2882 -0.6237 -0.4136
18869TIP3    H178022   1.360   2.525   1.598 -0.0236 -1.3519 -0.3852
18869TIP3    H278023   1.227   2.503   1.528 -0.0382 -0.0484 -0.8024
18870TIP3   OH278024   6.764   0.361  13.675  0.1660 -0.0258 -1.0557
18870TIP3    H178025   6.697   0.400  13.618  0.1145  0.8181 -0.4343
18870TIP3    H278026   6.718   0.291  13.722 -0.5733  1.1902  0.1001
18871TIP3   OH278027   1.190   5.236   6.474 -0.2745  0.6135  0.0871
18871TIP3    H178028   1.165   5.170   6.539 -0.8213  0.5417 -0.1886
18871TIP3    H278029   1.220   5.186   6.399 -1.1748  0.6553 -0.3154
18872TIP3   OH278030   3.924   4.035  12.744 -0.0072 -0.0873 -0.0796
18872TIP3    H178031   3.933   3.965  12.680 -0.6502  0.7674 -1.1516
18872TIP3    H278032   3.835   4.026  12.777  0.2742 -0.4359  0.5885
18873TIP3   OH278033   4.250   0.032  13.019  0.2142 -0.4210 -0.0526
18873TIP3    H178034   4.271   0.045  13.111  0.8832  1.0599 -0.3860
18873TIP3    H278035   4.212   0.115  12.990 -1.1131 -1.2514 -0.8377
18874TIP3   OH278036   0.115   5.735   4.592 -0.5175 -0.4108  0.0768
18874TIP3    H178037   0.130   5.671   4.523 -0.4268 -2.2917  1.7707
18874TIP3    H278038   0.183   5.801   4.579 -1.3602  0.0820 -2.4431
18875TIP3   OH278039   2.816   6.596   1.852  0.0857 -0.6046  0.1592
18875TIP3    H178040   2.791   6.675   1.900  0.0320 -0.8942  0.6084
18875TIP3    H278041   2.751   6.530   1.876  0.0742 -0.7639 -0.2895
18876TIP3   OH278042   0.203   4.157   0.743 -0.6451  0.0997 -0.1494
18876TIP3    H178043   0.184   4.181   0.652 -0.5352  1.2939  0.1209
18876TIP3    H278044   0.286   4.110   0.738 -0.8563 -0.2198 -0.7115
18877TIP3   OH278045   1.835   3.333  15.128  0.0046 -0.5930  0.0522
18877TIP3    H178046   1.830   3.245  15.167  0.6002 -1.8013 -2.3885
18877TIP3    H278047   1.928   3.343  15.106  0.1325  1.1356  1.2457
18878TIP3   OH278048   4.439   2.794   4.480  0.2280 -0.0461 -0.1481
18878TIP3    H178049   4.491   2.798   4.400 -0.6339  1.0296 -0.6954
18878TIP3    H278050   4.446   2.882   4.517  0.1457 -0.3702  0.6513
18879TIP3   OH278051   0.920   0.792   3.757  0.0506  0.3613 -0.1647
18879TIP3    H178052   0.939   0.865   3.817  0.7295 -1.2700  1.7046
18879TIP3    H278053   0.825   0.785   3.758  0.0746 -1.1585  2.7872
18880TIP3   OH278054   3.266   4.507   3.525  0.1380 -0.3009  0.2336
18880TIP3    H178055   3.292   4.517   3.434 -0.8303 -2.3707 -0.3318
18880TIP3    H278056   3.250   4.596   3.556 -0.2943  0.3925 -1.8565
18881TIP3   OH278057   6.225   6.388   2.075 -0.4123  0.1967  0.3842
18881TIP3    H178058   6.183   6.337   2.006  0.5942 -1.5965  1.0454
18881TIP3    H278059   6.215   6.479   2.046 -1.9062 -0.3586 -1.0323
18882TIP3   OH278060   4.980   2.170  12.677 -0.4134  0.0263  0.6771
18882TIP3    H178061   4.995   2.078  12.653 -1.9415  0.1066 -0.7040
18882TIP3    H278062   5.052   2.191  12.736  0.7665 -1.6396 -0.1012
18883TIP3   OH278063   4.423   5.882  14.380  0.8515  0.2920 -0.0869
18883TIP3    H178064   4.378   5.801  14.403 -0.0335  0.5687 -0.7648
18883TIP3    H278065   4.453   5.868  14.290  0.7894  0.6673 -0.1685
18884TIP3   OH278066   0.640   2.567   5.856 -0.4384  0.2657  0.2921
18884TIP3    H178067   0.633   2.497   5.921  1.5678  1.4743  1.9147
18884TIP3    H278068   0.695   2.530   5.788 -0.4938 -0.1743  0.4781
18885TIP3   OH278069   5.073   5.874   2.230  0.2959  0.2059 -0.2754
18885TIP3    H178070   5.029   5.942   2.281  0.0016 -1.3266  1.5885
18885TIP3    H278071   5.122   5.923   2.163  0.2654  2.2562  1.1097
18886TIP3   OH278072   3.096   0.348   3.968  0.2897  0.3645 -0.3896
18886TIP3    H178073   3.187   0.318   3.981  0.7805  2.7028  3.1254
18886TIP3    H278074   3.049   0.314   4.045 -1.1290  1.4852 -0.7222
18887TIP3   OH278075   4.225   3.762  16.111  0.1850  0.2087 -0.4893
18887TIP3    H178076   4.266   3.754  16.197 -1.7506  0.4860  0.5414
18887TIP3    H278077   4.169   3.685  16.104 -0.6216  0.8159 -0.9219
18888TIP3   OH278078   3.483   5.206   1.727 -0.4671  0.2154 -0.2915
18888TIP3    H178079   3.393   5.174   1.728 -0.5752  0.4733 -1.0226
18888TIP3    H278080   3.510   5.203   1.819 -1.2619  0.2633 -0.0430
18889TIP3   OH278081   5.027   6.386   5.310  0.5947 -0.2036  0.6350
18889TIP3    H178082   5.003   6.296   5.290  0.2606  0.1184 -0.4846
18889TIP3    H278083   5.060   6.383   5.400  0.7611 -1.4653  0.5474
18890TIP3   OH278084   2.363   5.934   4.545 -0.2880  0.1066 -0.5304
18890TIP3    H178085   2.347   6.000   4.612 -1.7922 -0.6454 -0.1002
18890TIP3    H278086   2.407   5.862   4.591 -1.4282 -0.4598 -0.2977
18891TIP3   OH278087   5.179   4.529  13.308  0.0893 -0.5174 -0.2603
18891TIP3    H178088   5.131   4.506  13.388 -0.7701  1.7718 -0.0439
18891TIP3    H278089   5.131   4.484  13.239 -0.6388 -0.5750  0.2653
18892TIP3   OH278090   4.199   3.775   5.789  0.0933  0.0732 -0.0872
18892TIP3    H178091   4.155   3.857   5.811 -0.8204 -0.8019  1.5782
18892TIP3    H278092   4.146   3.739   5.717 -0.1599  0.4177 -0.0780
18893TIP3   OH278093   6.489   1.424   3.651  0.0929 -0.1840 -0.4411
18893TIP3    H178094   6.482   1.477   3.731 -0.0419 -0.3757 -0.3271
18893TIP3    H278095   6.577   1.386   3.656 -0.6999 -1.9616  0.7152
18894TIP3   OH278096   1.249   3.754   0.531  0.0915  0.2007 -0.4761
18894TIP3    H178097   1.274   3.662   0.526  0.0889  0.0288  1.7446
18894TIP3    H278098   1.330   3.800   0.550 -0.2235  0.3896  0.4624
18895TIP3   OH278099   3.762   5.543   4.571 -0.4796  0.1802 -0.5687
18895TIP3    H178100   3.833   5.494   4.612 -0.1555  1.7089  0.8167
18895TIP3    H278101   3.689   5.537   4.633 -0.7487  0.6266 -0.8360
18896TIP3   OH278102   5.977   0.294  12.538  0.4603  0.0170 -0.0600
18896TIP3    H178103   5.972   0.231  12.466 -1.0290 -0.3555  0.3356
18896TIP3    H278104   6.017   0.246  12.610 -1.2355 -0.7166  0.4375
18897TIP3   OH278105   4.486   5.564  13.829 -0.5690 -0.2643 -0.8174
18897TIP3    H178106   4.466   5.471  13.842  0.5291 -0.5461 -1.0748
18897TIP3    H278107   4.414   5.597  13.776 -1.6939 -0.6300  0.4116
18898TIP3   OH278108   0.108   0.039   2.596 -0.3321 -0.2737  0.2999
18898TIP3    H178109   0.086  -0.020   2.524 -1.6690 -0.6409  0.9803
18898TIP3    H278110   0.203   0.049   2.591  0.0422 -3.0436  0.5854
18899TIP3   OH278111   0.490   5.216   0.504  0.4025 -0.0283 -0.4417
18899TIP3    H178112   0.437   5.275   0.557  0.3574 -0.9229  0.5375
18899TIP3    H278113   0.455   5.129   0.522  1.1067 -0.4612 -1.0916
18900TIP3   OH278114   4.434   4.301   5.007  0.5514 -0.2687  0.3306
18900TIP3    H178115   4.439   4.383   4.958 -0.5036  0.0747  0.7619
18900TIP3    H278116   4.506   4.306   5.070  1.2942 -0.2702 -0.4918
18901TIP3   OH278117   0.755   3.061   2.158 -0.1548 -0.0908  0.3717
18901TIP3    H178118   0.838   3.092   2.124 -0.5621  0.7400  0.1158
18901TIP3    H278119   0.689   3.119   2.120 -1.1865 -2.4651 -1.7932
18902TIP3   OH278120   0.313   5.775  14.222 -0.0982 -0.0887  0.2303
18902TIP3    H178121   0.302   5.814  14.309 -0.2013 -1.8502  1.0504
18902TIP3    H278122   0.385   5.713  14.233  0.8160  0.6315 -1.3168
18903TIP3   OH278123   6.219   3.631  11.988  0.3316 -0.2740  0.4241
18903TIP3    H178124   6.169   3.551  12.004 -1.3466  0.3550 -1.2977
18903TIP3    H278125   6.212   3.681  12.069 -0.7354 -0.8074  0.6753
18904TIP3   OH278126   3.249   6.534   1.265 -0.0792  0.0379 -0.3318
18904TIP3    H178127   3.207   6.475   1.328  1.5797 -0.8372 -0.0089
18904TIP3    H278128   3.204   6.514   1.182 -0.1897 -1.0146 -0.0418
18905TIP3   OH278129   4.168   3.353  13.469  0.0519 -0.2311  0.3337
18905TIP3    H178130   4.151   3.277  13.414  0.6361  0.0086 -0.1898
18905TIP3    H278131   4.149   3.428  13.413 -0.1708  0.0129  0.7322
18906TIP3   OH278132   4.578   6.488  16.005  0.3161 -0.2725  0.2493
18906TIP3    H178133   4.620   6.412  15.965 -0.7801 -0.6850 -0.1525
18906TIP3    H278134   4.497   6.499  15.955  0.5830  1.3214  0.1291
18907TIP3   OH278135   2.136   2.919  12.578  0.0738  0.5766 -0.0249
18907TIP3    H178136   2.111   2.920  12.486 -0.7103  0.1399  0.1735
18907TIP3    H278137   2.217   2.970  12.582 -0.5763  1.7103 -0.7513
18908TIP3   OH278138   2.773   5.001   0.411 -0.1028  0.2776  0.7072
18908TIP3    H178139   2.722   4.991   0.491  1.4817 -1.9677  1.5324
18908TIP3    H278140   2.709   5.001   0.340 -1.3061 -2.6195  1.6734
18909TIP3   OH278141   4.071   2.386  11.817  0.0698  0.4051  0.1597
18909TIP3    H178142   4.040   2.353  11.733  1.0626  1.5713 -0.7054
18909TIP3    H278143   3.999   2.438  11.851 -1.2867 -2.0061  1.2594
18910TIP3   OH278144   2.719   5.727  15.928  0.7501  0.2142 -0.3763
18910TIP3    H178145   2.771   5.700  16.004  2.6798 -1.4471 -2.1519
18910TIP3    H278146   2.781   5.772  15.871 -0.3861  0.4773 -1.4506
18911TIP3   OH278147   5.913   3.478  15.116  0.0906 -0.4290  0.0040
18911TIP3    H178148   5.856   3.406  15.089  1.0481 -1.1080 -0.2502
18911TIP3    H278149   5.955   3.507  15.035 -1.8905  1.8989 -0.2993
18912TIP3   OH278150   6.356   6.116  11.701  0.0049  0.1192  0.2972
18912TIP3    H178151   6.262   6.115  11.679 -0.3429 -2.7484  1.4432
18912TIP3    H278152   6.369   6.036  11.752  3.1944  0.2167 -0.1800
18913TIP3   OH278153   6.777   5.116   2.419  0.3788 -0.3705 -0.6457
18913TIP3    H178154   6.821   5.081   2.341  0.4978  1.3677 -1.4019
18913TIP3    H278155   6.823   5.074   2.492  0.2067 -2.1095 -1.4663
18914TIP3   OH278156   5.449   0.425  16.970 -0.1280 -0.4495  1.0067
18914TIP3    H178157   5.461   0.391  16.882 -1.3000 -0.8382  0.9893
18914TIP3    H278158   5.440   0.520  16.958  1.8558 -0.2204  0.9407
18915TIP3   OH278159   1.523   2.853  15.033 -0.3044  0.3240 -0.0037
18915TIP3    H178160   1.583   2.852  14.958 -0.2117 -0.1026  0.0743
18915TIP3    H278161   1.580   2.843  15.109 -0.3355  1.3922  0.1730
18916TIP3   OH278162   1.014   3.430  10.658  0.3868 -0.1481 -0.2319
18916TIP3    H178163   1.106   3.441  10.635 -0.0303  1.2214 -1.4119
18916TIP3    H278164   0.968   3.493  10.602 -1.0543  0.8238  1.9372
18917TIP3   OH278165   1.231   0.029   5.769 -1.2776 -0.8034 -0.0547
18917TIP3    H178166   1.324   0.014   5.784 -1.3455 -1.1861  0.0053
18917TIP3    H278167   1.228   0.101   5.706 -0.9251 -1.1607 -0.4871
18918TIP3   OH278168   5.174   5.086  16.991  0.4029  0.0551  0.3222
18918TIP3    H178169   5.141   5.019  16.931  0.2625 -0.4660  0.9669
18918TIP3    H278170   5.254   5.049  17.027  1.0753  0.8162 -0.3278
18919TIP3   OH278171   5.068   5.424  11.535  0.6199 -0.1862  0.6428
18919TIP3    H178172   5.011   5.407  11.611  0.5016  2.5638  1.3017
18919TIP3    H278173   5.137   5.359  11.542 -0.4138 -1.2172  2.0152
18920TIP3   OH278174   1.398   5.027  15.568 -0.2002  0.4000  0.0399
18920TIP3    H178175   1.418   5.059  15.656  0.4195 -1.0857  0.4684
18920TIP3    H278176   1.478   4.982  15.540 -0.4336  0.7357 -1.2430
18921TIP3   OH278177   2.534   3.752   5.043 -0.4815 -0.2588  0.3936
18921TIP3    H178178   2.508   3.710   5.125 -0.8906 -0.0719  0.3614
18921TIP3    H278179   2.513   3.687   4.975  1.5640 -1.1842  0.5609
18922TIP3   OH278180   1.481   3.720   1.844 -0.2436 -0.2804 -0.1212
18922TIP3    H178181   1.463   3.814   1.838  1.0927  0.2525  2.6230
18922TIP3    H278182   1.497   3.693   1.753  0.2112  2.3197 -0.8968
18923TIP3   OH278183   1.891   4.094   3.677  0.1609 -0.6618  0.4001
18923TIP3    H178184   1.940   4.176   3.676  0.5111 -0.8747  0.0939
18923TIP3    H278185   1.957   4.026   3.690 -0.3507 -0.7535  3.0216
18924TIP3   OH278186   2.662   2.890   3.182 -0.0336  0.0687  0.5755
18924TIP3    H178187   2.729   2.945   3.142 -1.5155  0.5949 -1.3246
18924TIP3    H278188   2.621   2.946   3.249  1.2688 -0.2213  1.6717
18925TIP3   OH278189   5.633   3.543   3.553 -0.5812 -0.0188  0.8782
18925TIP3    H178190   5.630   3.456   3.514  0.3841 -0.1558  1.0871
18925TIP3    H278191   5.639   3.603   3.478  3.1627 -0.3630  0.7258
18926TIP3   OH278192   5.690   0.567   2.391 -0.4084 -0.5155 -0.1426
18926TIP3    H178193   5.776   0.589   2.355 -0.8010  1.5704  0.0538
18926TIP3    H278194   5.630   0.628   2.348 -1.3384  0.0061  1.8018
18927TIP3   OH278195   5.453   0.893   0.677 -0.1471  0.1560 -0.7357
18927TIP3    H178196   5.479   0.847   0.756 -0.6519  1.2565  0.0928
18927TIP3    H278197   5.364   0.923   0.694  0.6504  2.6924 -0.6179
18928TIP3   OH278198   0.850   2.794  14.157 -0.2772  0.4757  0.7169
18928TIP3    H178199   0.785   2.865  14.153 -0.8542 -0.0905 -0.2407
18928TIP3    H278200   0.799   2.715  14.174  0.1259 -0.0042 -0.2113
18929TIP3   OH278201   1.958   3.244   3.652  0.3739  0.2411  0.0986
18929TIP3    H178202   1.942   3.336   3.668 -2.3524  0.0317 -0.9739
18929TIP3    H278203   1.980   3.208   3.738  0.5280  1.6870  0.6942
18930TIP3   OH278204   2.985   4.429  12.157 -0.0551  0.3024  0.0614
18930TIP3    H178205   2.924   4.438  12.231  0.2696  0.5360  0.3042
18930TIP3    H278206   3.041   4.355  12.181 -0.6295 -0.3120 -0.4440
18931TIP3   OH278207   6.045   0.899  12.519 -0.6672  0.6284  0.4396
18931TIP3    H178208   6.094   0.834  12.470  0.2622  1.2414  0.5398
18931TIP3    H278209   6.081   0.895  12.608  0.5612  2.3772  0.0844
18932TIP3   OH278210   4.341   6.277   2.437  0.5075  0.0832 -0.1643
18932TIP3    H178211   4.363   6.331   2.513  1.9024  1.2136 -1.3107
18932TIP3    H278212   4.252   6.303   2.414 -0.6090 -1.5028  2.0449
18933TIP3   OH278213   1.388   6.656   2.503 -0.6663 -0.4337 -0.1648
18933TIP3    H178214   1.482   6.650   2.521 -0.6345 -1.3436 -0.5627
18933TIP3    H278215   1.359   6.734   2.551 -0.1036 -1.2963  1.6583
18934TIP3   OH278216   3.531   5.759   4.895  0.2192  0.0542  0.2533
18934TIP3    H178217   3.610   5.814   4.891  0.3457 -0.2033 -1.1192
18934TIP3    H278218   3.467   5.814   4.940  1.2158  0.1960  1.5891
18935TIP3   OH278219   5.866   6.638   0.927 -0.0480 -0.6746  0.4232
18935TIP3    H178220   5.836   6.622   1.017 -0.0082 -1.0417  0.3717
18935TIP3    H278221   5.843   6.729   0.911 -0.5852 -0.7711  0.6045
18936TIP3   OH278222   4.643   0.968  15.835  0.0639  0.0770 -0.0473
18936TIP3    H178223   4.690   0.950  15.916 -0.0590  0.4843  0.1175
18936TIP3    H278224   4.630   0.882  15.795 -0.6565 -0.2227  0.8034
18937TIP3   OH278225   0.191   3.373   1.069 -0.2254  0.1522  0.7309
18937TIP3    H178226   0.189   3.279   1.051  0.7423  0.0267  1.2167
18937TIP3    H278227   0.240   3.380   1.151  0.8127  1.1653  0.0476
18938TIP3   OH278228   5.649   3.638   3.880 -0.3220 -0.0034  0.7498
18938TIP3    H178229   5.663   3.722   3.924 -1.1742  0.3779  0.3136
18938TIP3    H278230   5.575   3.654   3.822 -0.7817 -1.1923  0.9985
18939TIP3   OH278231   4.617   2.547   2.504  0.7380  0.3111  0.1697
18939TIP3    H178232   4.697   2.598   2.494  0.9109 -0.1134 -0.7390
18939TIP3    H278233   4.630   2.498   2.585  0.2520  2.2190  1.4719
18940TIP3   OH278234   1.804   4.382  13.261  1.1152 -0.1398 -0.2128
18940TIP3    H178235   1.891   4.341  13.253  1.8723  1.4103 -0.3222
18940TIP3    H278236   1.797   4.405  13.354  0.1198 -1.6812  0.1212
18941TIP3   OH278237   3.711   2.631  11.513 -0.0002 -0.0575 -0.1346
18941TIP3    H178238   3.734   2.575  11.586  0.4725 -0.3918 -0.5417
18941TIP3    H278239   3.790   2.636  11.459 -0.4367 -0.0824 -0.7961
18942TIP3   OH278240   1.178   6.614   1.974  0.0638  0.0875  0.3549
18942TIP3    H178241   1.160   6.520   1.978  0.8376 -0.0715  0.1556
18942TIP3    H278242   1.132   6.650   2.050  0.1577 -0.5137  0.7036
18943TIP3   OH278243   2.559   4.292  10.867  0.8194 -0.0465 -0.1480
18943TIP3    H178244   2.571   4.286  10.962 -0.5540  0.3909  0.0691
18943TIP3    H278245   2.517   4.210  10.842 -0.3015  0.5031 -0.1167
18944TIP3   OH278246   1.848   1.291   2.463  0.1217 -0.5220 -0.2652
18944TIP3    H178247   1.845   1.269   2.370  0.4632  0.7640 -0.5994
18944TIP3    H278248   1.850   1.206   2.508  1.9551 -1.1843 -1.4835
18945TIP3   OH278249   2.807   0.212   1.471  0.9863 -0.8746 -0.3332
18945TIP3    H178250   2.728   0.160   1.455  0.6299 -0.2806 -0.5363
18945TIP3    H278251   2.834   0.188   1.559 -0.6372  0.4652  0.5835
18946TIP3   OH278252   2.905   0.570   2.274 -0.2535 -0.2025 -0.5143
18946TIP3    H178253   2.843   0.560   2.200 -0.8233  1.6796 -0.3317
18946TIP3    H278254   2.974   0.626   2.240 -0.1352  0.0649  0.1557
18947TIP3   OH278255   2.016   4.394   3.360  0.2420  0.4567  0.0624
18947TIP3    H178256   1.977   4.431   3.439  0.3866  2.5096 -0.7853
18947TIP3    H278257   1.959   4.423   3.289 -0.4520 -2.1471 -0.5854
18948TIP3   OH278258   4.294   4.413  17.128  0.1761 -0.4053 -0.3925
18948TIP3    H178259   4.271   4.407  17.221 -1.7024  3.8627 -0.3246
18948TIP3    H278260   4.383   4.380  17.123 -0.0600 -1.8635  2.6705
18949TIP3   OH278261   3.655   0.216  11.554 -0.0699  0.5413  0.5216
18949TIP3    H178262   3.727   0.169  11.596  1.0655  0.1398 -1.6915
18949TIP3    H278263   3.608   0.149  11.505 -1.0158  1.0645  0.6863
18950TIP3   OH278264   3.708   4.580  13.939 -0.7349  0.3165 -0.0974
18950TIP3    H178265   3.658   4.628  13.874  1.3350 -0.4723 -2.4365
18950TIP3    H278266   3.667   4.493  13.942 -0.4717  0.1656 -0.8164
18951TIP3   OH278267   4.234   3.583   0.755 -1.0991 -0.1738 -0.6443
18951TIP3    H178268   4.293   3.621   0.690  0.8281  0.1101  1.1495
18951TIP3    H278269   4.161   3.646   0.761 -0.4424  0.6688 -1.2854
18952TIP3   OH278270   4.976   3.235   5.356  0.5608  0.5474  0.0828
18952TIP3    H178271   4.960   3.202   5.268  0.2221  0.6837  0.0920
18952TIP3    H278272   5.057   3.191   5.384  0.3905  0.1126 -0.0970
18953TIP3   OH278273   6.723   4.198  12.330 -0.1418  0.1004  0.0089
18953TIP3    H178274   6.685   4.123  12.284 -2.5781  1.2581 -0.0115
18953TIP3    H278275   6.741   4.165  12.418 -0.3642 -0.7376 -0.2500
18954TIP3   OH278276   3.779   1.247  15.467 -0.0748  0.0985  0.3148
18954TIP3    H178277   3.782   1.174  15.529 -0.7217  1.9158  2.6174
18954TIP3    H278278   3.695   1.235  15.421 -0.1813 -0.5889  0.6697
18955TIP3   OH278279   1.664   6.681   1.044 -0.1798 -0.0967  0.6287
18955TIP3    H178280   1.593   6.668   1.107  1.2082 -2.4155  1.8566
18955TIP3    H278281   1.671   6.598   0.998  1.1714  0.3741 -0.0647
18956TIP3   OH278282   1.370   4.507   0.970  0.2171  0.3254 -0.4791
18956TIP3    H178283   1.315   4.496   0.893  0.0645  0.6383 -0.4172
18956TIP3    H278284   1.446   4.555   0.939  0.9821 -1.0331 -0.7931
18957TIP3   OH278285   6.254   1.267   2.361  0.0074  0.6414  0.6496
18957TIP3    H178286   6.310   1.282   2.285  0.1198 -0.5271  0.4755
18957TIP3    H278287   6.173   1.233   2.325  0.3756 -0.7564  1.0800
18958TIP3   OH278288   4.199   1.629   1.844  0.3657 -0.9698 -0.2606
18958TIP3    H178289   4.157   1.715   1.839 -0.0808 -1.2067 -0.6888
18958TIP3    H278290   4.132   1.568   1.813  0.8530 -1.4124 -0.4552
18959TIP3   OH278291   0.124   0.068   3.846  0.0525  0.2207  0.3802
18959TIP3    H178292   0.097  -0.013   3.889 -1.3081  1.0009  1.0710
18959TIP3    H278293   0.195   0.101   3.900  0.2883 -0.2596  0.3711
18960TIP3   OH278294   0.719   3.001   4.404  0.0988  0.4031  0.2876
18960TIP3    H178295   0.812   3.003   4.426 -0.1043 -2.2889  1.8262
18960TIP3    H278296   0.679   2.949   4.473 -2.4142  0.6324 -0.8768
18961TIP3   OH278297   4.650   3.367   5.686 -0.2237 -0.8018 -0.4046
18961TIP3    H178298   4.674   3.372   5.778 -1.0088 -1.7334 -0.1396
18961TIP3    H278299   4.717   3.313   5.646 -0.2689 -0.9778 -0.2421
18962TIP3   OH278300   4.887   0.119  16.018  0.6493 -0.5145  1.0850
18962TIP3    H178301   4.955   0.075  15.967 -0.0045 -1.3850  0.9507
18962TIP3    H278302   4.818   0.054  16.028 -0.3361  0.4811  0.9099
18963TIP3   OH278303   2.935   4.815  11.807  0.2570  0.4379  0.5519
18963TIP3    H178304   2.967   4.903  11.826 -0.8072  0.5300  2.0157
18963TIP3    H278305   2.840   4.822  11.808  0.1470 -0.7668  0.9326
18964TIP3   OH278306   1.197   2.968   5.142 -0.1600 -0.1512 -0.3373
18964TIP3    H178307   1.251   3.045   5.164  0.9617 -0.8906 -0.4023
18964TIP3    H278308   1.139   2.999   5.073 -1.0240  1.1389  0.9149
18965TIP3   OH278309   0.705   2.406  16.090  0.3875  0.0402 -0.1058
18965TIP3    H178310   0.779   2.371  16.041  0.7580  0.9864 -0.2233
18965TIP3    H278311   0.682   2.487  16.045 -0.9180 -0.3868 -0.2560
18966TIP3   OH278312   5.061   1.333  13.704  0.0364 -0.1145 -0.0500
18966TIP3    H178313   4.974   1.300  13.725  0.4702 -0.9742  0.4595
18966TIP3    H278314   5.071   1.317  13.610  0.1914 -1.3653  0.1587
18967TIP3   OH278315   1.418   3.963  16.540  0.0296  0.4259  0.4593
18967TIP3    H178316   1.464   3.891  16.583  1.6095  0.7824 -0.5425
18967TIP3    H278317   1.375   3.922  16.465  0.5006  0.4229  0.1849
18968TIP3   OH278318   4.191   2.325  16.575 -0.5666  0.0024  0.3486
18968TIP3    H178319   4.116   2.376  16.544 -1.1491 -1.2992 -0.4944
18968TIP3    H278320   4.171   2.235  16.548  1.2830 -0.3902  0.1407
18969TIP3   OH278321   5.575   0.978   1.630  0.1398 -0.1798  0.1890
18969TIP3    H178322   5.620   1.022   1.558 -0.8266  1.1830  0.3869
18969TIP3    H278323   5.505   0.928   1.587 -0.6011  0.8412  0.1826
18970TIP3   OH278324   3.233   4.209  15.297  0.2726  0.4571  0.5542
18970TIP3    H178325   3.226   4.275  15.365 -0.7475  1.7488 -0.7469
18970TIP3    H278326   3.240   4.259  15.215 -0.0853 -1.0363 -0.4324
18971TIP3   OH278327   3.093   6.266   4.136 -0.4387 -0.1299 -0.2150
18971TIP3    H178328   3.160   6.221   4.085  0.7812 -0.1755  1.3398
18971TIP3    H278329   3.102   6.230   4.224 -1.6632  0.7875  0.3126
18972TIP3   OH278330   1.941   6.581  14.578 -0.0074  0.5477 -0.3656
18972TIP3    H178331   1.954   6.671  14.607 -1.2822  0.5007  0.4580
18972TIP3    H278332   1.864   6.551  14.627  2.1773 -2.0314  1.8859
18973TIP3   OH278333   4.511   5.017  15.453 -0.1074 -0.2332  0.7116
18973TIP3    H178334   4.434   4.960  15.455  0.0163 -0.6064 -1.5925
18973TIP3    H278335   4.484   5.092  15.400  1.8897 -1.8860 -3.0585
18974TIP3   OH278336   2.670   5.627  11.874  0.0392 -0.2276 -0.0699
18974TIP3    H178337   2.601   5.575  11.915  0.6321 -0.4760  0.6507
18974TIP3    H278338   2.630   5.664  11.796 -0.8864 -0.4133  0.3064
18975TIP3   OH278339   0.184   6.668   3.603 -0.4594  0.3287  0.1276
18975TIP3    H178340   0.110   6.691   3.546 -0.8444 -0.6102  0.2357
18975TIP3    H278341   0.160   6.583   3.640  0.2966  0.4131  0.8259
18976TIP3   OH278342   1.687   0.163   3.583 -0.1764  0.5013  0.4172
18976TIP3    H178343   1.634   0.097   3.538  1.4367 -1.8727  1.7727
18976TIP3    H278344   1.769   0.166   3.533  0.3280  0.3540  1.2109
18977TIP3   OH278345   1.674   2.628   1.781  0.6707  0.0943 -0.0510
18977TIP3    H178346   1.742   2.694   1.772 -0.1425  0.9508 -0.1609
18977TIP3    H278347   1.617   2.662   1.851 -0.4257  0.1427 -0.9255
18978TIP3   OH278348   2.977   6.114   0.983 -0.3019 -0.0806 -0.1092
18978TIP3    H178349   3.065   6.147   0.966  0.6015 -2.0601  0.4522
18978TIP3    H278350   2.930   6.190   1.018  1.7083  0.5986  1.3504
18979TIP3   OH278351   0.790   1.067   4.611  0.0539 -0.4934  0.1162
18979TIP3    H178352   0.696   1.076   4.595  0.2176 -0.5844 -1.0029
18979TIP3    H278353   0.826   1.153   4.588  0.0406  0.2117  2.4586
18980TIP3   OH278354   5.202   2.025   2.204 -0.4433 -0.0211  0.3877
18980TIP3    H178355   5.227   1.969   2.131  0.3025  0.0319  0.5899
18980TIP3    H278356   5.202   1.967   2.280 -3.2454 -0.5621  0.0857
18981TIP3   OH278357   3.624   5.676  12.203 -0.2345 -0.1158 -0.0067
18981TIP3    H178358   3.700   5.712  12.158 -1.1623  0.6393 -1.0504
18981TIP3    H278359   3.588   5.611  12.142 -0.4654 -0.4229  0.4448
18982TIP3   OH278360   5.231   5.473  14.172  0.1175  0.5981 -1.0118
18982TIP3    H178361   5.225   5.523  14.090 -0.3391  1.0070 -0.7369
18982TIP3    H278362   5.140   5.449  14.191 -0.0745  2.2630  0.4418
18983TIP3   OH278363   5.167   5.354  15.924  0.0885  0.0336  0.2662
18983TIP3    H178364   5.191   5.406  15.848  1.1315 -0.4606  0.2351
18983TIP3    H278365   5.097   5.403  15.966 -0.5683  0.2725 -1.0527
18984TIP3   OH278366   5.969   2.818  16.766 -0.2343  0.0920 -0.0383
18984TIP3    H178367   5.985   2.905  16.729  1.1231 -0.2853 -0.3896
18984TIP3    H278368   6.056   2.785  16.789 -0.6930 -1.2984 -0.2087
18985TIP3   OH278369   5.167   0.327   1.873 -0.4339  0.0340  0.3621
18985TIP3    H178370   5.179   0.359   1.783  0.1000 -0.5516  0.2158
18985TIP3    H278371   5.101   0.259   1.866  0.9466 -1.3347  0.0806
18986TIP3   OH278372   1.205   1.216  14.782 -0.5518  0.3258  0.4108
18986TIP3    H178373   1.273   1.261  14.732  1.2642  0.2364  2.6326
18986TIP3    H278374   1.169   1.283  14.840  0.1546 -0.3726  1.7093
18987TIP3   OH278375   2.608   6.405   2.930 -0.5079 -0.1548  0.0877
18987TIP3    H178376   2.582   6.344   3.000 -1.8223  0.2659 -0.0063
18987TIP3    H278377   2.528   6.451   2.907  0.3984  1.4650 -0.0121
18988TIP3   OH278378   0.733   2.281   0.326  0.2980  0.4981  0.3473
18988TIP3    H178379   0.728   2.358   0.383 -3.6448 -0.5966  1.8388
18988TIP3    H278380   0.750   2.208   0.386  2.5821 -0.0425 -0.8529
18989TIP3   OH278381   3.626   1.742   3.564  0.4023 -0.2910  0.2080
18989TIP3    H178382   3.708   1.779   3.531  0.6495 -0.7363  0.3162
18989TIP3    H278383   3.652   1.660   3.606 -0.0634 -0.3022  0.4837
18990TIP3   OH278384   3.203   3.096   5.225  0.0199  0.6557 -0.3876
18990TIP3    H178385   3.265   3.162   5.194  0.0513  1.2861  0.9341
18990TIP3    H278386   3.152   3.072   5.147  1.0996  1.0236 -1.2312
18991TIP3   OH278387   3.082   1.594  11.704  0.3045  0.1812  0.7575
18991TIP3    H178388   3.101   1.522  11.645  0.3402 -0.1048  1.1138
18991TIP3    H278389   2.990   1.584  11.726 -0.8394  2.5193 -2.2638
18992TIP3   OH278390   0.942   4.369   4.379 -0.5044  0.0476 -0.4115
18992TIP3    H178391   0.921   4.292   4.326  0.4529  0.9466 -2.2077
18992TIP3    H278392   0.864   4.424   4.373 -0.1178  0.5074 -1.6514
18993TIP3   OH278393   6.552   4.894  13.184 -0.3518 -0.5930 -0.3464
18993TIP3    H178394   6.610   4.968  13.204  0.6542 -0.7649 -2.4325
18993TIP3    H278395   6.611   4.823  13.159 -1.4188 -1.0572 -1.6434
18994TIP3   OH278396   0.539   1.657   0.605  0.5650 -0.1967  0.7387
18994TIP3    H178397   0.497   1.622   0.684  0.2953  0.2064  0.7772
18994TIP3    H278398   0.468   1.699   0.556  0.8757  0.2745  0.6830
18995TIP3   OH278399   1.531   5.949  10.940 -0.2978  0.0836  0.3596
18995TIP3    H178400   1.537   5.953  10.845 -0.2308 -1.0040  0.3092
18995TIP3    H278401   1.475   6.023  10.963 -0.5305  0.2019 -0.5464
18996TIP3   OH278402   3.084   2.436  16.272 -0.6453  0.2234  0.4859
18996TIP3    H178403   3.111   2.457  16.361 -1.5502  2.0932  0.3643
18996TIP3    H278404   3.132   2.356  16.250  1.9158  1.3571  1.5729
18997TIP3   OH278405   5.731   3.222  13.714  0.1347 -0.3315 -0.3664
18997TIP3    H178406   5.665   3.199  13.649 -1.1186 -1.1611  1.1311
18997TIP3    H278407   5.814   3.197  13.673 -0.5400 -0.2030 -1.8924
18998TIP3   OH278408   2.264   4.557  12.634 -0.3139  0.3603 -0.2855
18998TIP3    H178409   2.229   4.564  12.723 -0.0372  0.5806 -0.1942
18998TIP3    H278410   2.356   4.535  12.646 -0.2851  0.3540 -0.5194
18999TIP3   OH278411   1.697   2.966  12.041 -0.0353 -0.2381  0.6234
18999TIP3    H178412   1.736   2.995  11.959  2.1738 -0.2994  1.5778
18999TIP3    H278413   1.605   2.951  12.020  0.6727 -1.2797 -2.0770
19000TIP3   OH278414   2.236   2.754   4.740 -0.1191 -0.2751  0.0842
19000TIP3    H178415   2.266   2.686   4.800 -0.6259 -0.5208  0.0639
19000TIP3    H278416   2.142   2.741   4.734 -0.4737  1.4020  1.2907
19001TIP3   OH278417   5.323   2.778  13.425 -0.0156  0.0758  0.2241
19001TIP3    H178418   5.314   2.823  13.509 -0.2546  2.2922 -0.9115
19001TIP3    H278419   5.268   2.700  13.434 -0.5102  0.5734  1.9116
19002TIP3   OH278420   3.939   2.370  11.588 -0.0656 -0.1792  0.1472
19002TIP3    H178421   3.870   2.306  11.571  0.4547 -1.3552  2.1859
19002TIP3    H278422   4.010   2.346  11.527 -0.4563 -0.5794 -0.1550
19003TIP3   OH278423   4.438   2.096  14.935 -0.1283 -0.0216  0.2271
19003TIP3    H178424   4.517   2.137  14.899  0.4117 -2.0900 -1.0477
19003TIP3    H278425   4.367   2.154  14.908  0.5743 -0.0151 -1.7884
19004TIP3   OH278426   0.469   2.740  10.292 -0.5781 -0.1736 -0.1518
19004TIP3    H178427   0.474   2.667  10.230  2.7238  0.4909 -0.8087
19004TIP3    H278428   0.553   2.784  10.285 -0.8272  1.1711  3.3686
19005TIP3   OH278429   6.078   3.658  17.154 -0.0098 -0.1735  0.0255
19005TIP3    H178430   6.107   3.749  17.163  0.5869 -0.4106  0.6584
19005TIP3    H278431   6.040   3.637  17.239 -0.6490 -0.3522 -0.3000
19006TIP3   OH278432   4.716   1.120  16.614  0.2065  0.2447 -0.2779
19006TIP3    H178433   4.638   1.176  16.614 -0.4043 -0.5856 -0.4334
19006TIP3    H278434   4.692   1.045  16.668  1.6968  1.0108  1.5650
19007TIP3   OH278435   2.683   5.427   5.354 -0.1559 -0.1389  0.0305
19007TIP3    H178436   2.612   5.419   5.417 -1.2752  0.6324 -1.0935
19007TIP3    H278437   2.752   5.370   5.388 -0.4283  0.8080  2.3264
19008TIP3   OH278438   3.645   0.159  15.011 -0.1589  0.5159 -0.9551
19008TIP3    H178439   3.667   0.237  15.061 -2.3297  2.0084 -2.1968
19008TIP3    H278440   3.550   0.161  15.002 -0.3226 -2.3743 -0.9189
19009TIP3   OH278441   6.752   2.150  12.662  0.0804 -0.3450 -0.2624
19009TIP3    H178442   6.777   2.139  12.754  1.7686 -1.5486 -0.7975
19009TIP3    H278443   6.660   2.124  12.658 -0.1641  0.2295  1.1554
19010TIP3   OH278444   3.067   4.753  13.945 -0.2149 -0.1460  0.2176
19010TIP3    H178445   3.028   4.675  13.984 -0.4819 -1.5207 -2.5434
19010TIP3    H278446   3.153   4.759  13.985  0.3650 -2.7365 -0.4464
19011TIP3   OH278447   5.854   1.599   1.789  0.3848 -0.1897 -0.1336
19011TIP3    H178448   5.818   1.515   1.759 -0.8518  1.0067 -2.2626
19011TIP3    H278449   5.785   1.662   1.771  1.4397  1.3628  1.0660
19012TIP3   OH278450   0.902   1.273  11.088  0.3390  0.5352  0.1204
19012TIP3    H178451   0.893   1.243  11.178 -0.7200  0.8824  0.1448
19012TIP3    H278452   0.878   1.197  11.034  0.7939  0.3835  0.1254
19013TIP3   OH278453   1.333   4.110  11.948  0.2175 -0.5962 -0.2820
19013TIP3    H178454   1.280   4.041  11.987  0.3297  0.1327  1.2717
19013TIP3    H278455   1.422   4.074  11.944  0.4234 -0.3236  1.2201
19014TIP3   OH278456   3.377   6.149  10.865 -0.3227 -0.3051  0.0976
19014TIP3    H178457   3.285   6.175  10.868 -0.2174  1.0134 -3.6642
19014TIP3    H278458   3.379   6.072  10.809  0.8885 -0.2813  0.0876
19015TIP3   OH278459   6.471   0.002   3.261  0.2446 -0.5236  0.0491
19015TIP3    H178460   6.489   0.053   3.340  1.3287 -2.3466  1.0674
19015TIP3    H278461   6.395  -0.051   3.284  2.0936 -3.0029  0.9815
19016TIP3   OH278462   4.135   5.971  15.205 -0.1321 -0.1114 -0.5028
19016TIP3    H178463   4.097   5.884  15.223 -1.1933  0.4365  0.0055
19016TIP3    H278464   4.064   6.032  15.226  0.9570  0.9450  0.2183
19017TIP3   OH278465   3.276   1.982   3.990 -0.2259 -0.3272  0.2730
19017TIP3    H178466   3.326   2.040   3.933 -2.2206  0.4990 -0.7513
19017TIP3    H278467   3.291   2.017   4.078  0.0180  0.6601 -0.1414
19018TIP3   OH278468   5.933   4.551  13.544 -0.2946  0.2744 -0.1752
19018TIP3    H178469   5.896   4.637  13.562  0.8310  0.8936 -0.7447
19018TIP3    H278470   5.929   4.506  13.629 -1.9291  0.4520 -0.1237
19019TIP3   OH278471   1.345   2.880  12.914  0.0925 -0.2204  0.0951
19019TIP3    H178472   1.440   2.876  12.924 -0.0298 -1.1157  1.0438
19019TIP3    H278473   1.332   2.900  12.821  1.2121  1.7291  0.2954
19020TIP3   OH278474   3.788   4.816   5.589  0.4496  0.1313 -0.1544
19020TIP3    H178475   3.723   4.758   5.549 -0.6567  0.6295  0.8672
19020TIP3    H278476   3.826   4.864   5.515  0.3649 -0.8688 -0.8614
19021TIP3   OH278477   3.462   2.102   5.062  0.3998  0.7831  0.3516
19021TIP3    H178478   3.412   2.123   4.982 -0.1359  0.4776  0.5985
19021TIP3    H278479   3.483   2.009   5.053 -1.1925  0.2914  1.3714
19022TIP3   OH278480   1.775   1.720  12.283  0.4852  0.4200 -0.1124
19022TIP3    H178481   1.747   1.782  12.216  1.9051  1.3934  0.1536
19022TIP3    H278482   1.785   1.637  12.237 -0.6457  0.5650 -0.6455
19023TIP3   OH278483   6.411   2.241  11.636 -0.0980  0.9902  0.3008
19023TIP3    H178484   6.341   2.248  11.700 -1.6138  0.6165 -1.2172
19023TIP3    H278485   6.369   2.262  11.552  0.9407 -1.7912 -1.0444
19024TIP3   OH278486   5.953   5.673   6.319 -0.4290 -0.0604 -0.3669
19024TIP3    H178487   6.028   5.622   6.352  1.1094  1.7201 -0.9061
19024TIP3    H278488   5.889   5.670   6.390  1.1526  0.3335  1.1516
19025TIP3   OH278489   3.899   0.593   0.966  0.3497  0.2765  0.4802
19025TIP3    H178490   3.965   0.646   1.012 -0.6527  1.5931  0.4614
19025TIP3    H278491   3.886   0.638   0.883  0.9745 -1.1959 -0.4458
19026TIP3   OH278492   5.287   1.331  16.237 -0.7153  0.1325  0.4929
19026TIP3    H178493   5.314   1.366  16.322  0.0838 -1.0790  0.7698
19026TIP3    H278494   5.367   1.333  16.185 -0.6886 -1.0919  0.4670
19027TIP3   OH278495   3.203   4.903   5.746  0.1781 -0.1624  0.2135
19027TIP3    H178496   3.167   4.981   5.788  0.1764  1.1071 -2.0337
19027TIP3    H278497   3.195   4.920   5.652  1.8453 -2.1066 -0.3450
19028TIP3   OH278498   2.857   5.962   0.354  0.0938  0.2129  0.0381
19028TIP3    H178499   2.804   6.014   0.294 -1.1390 -1.8141 -0.7637
19028TIP3    H278500   2.843   6.000   0.440 -0.0269  1.7155 -0.6240
19029TIP3   OH278501   6.057   1.539   2.775  0.4952 -0.5257  0.3369
19029TIP3    H178502   6.111   1.585   2.711 -1.8014 -1.4789 -2.5722
19029TIP3    H278503   5.976   1.590   2.779  0.5197 -0.5591  2.5221
19030TIP3   OH278504   2.006   0.259  16.650  0.8313  0.6731 -0.7871
19030TIP3    H178505   1.946   0.263  16.576  0.6074  0.0552 -0.6406
19030TIP3    H278506   2.031   0.350  16.665 -0.8883  1.0829 -0.1698
19031TIP3   OH278507   4.545   0.660   3.038  0.5652  0.1486  0.5323
19031TIP3    H178508   4.479   0.723   3.066  0.1934 -0.2478  0.5535
19031TIP3    H278509   4.495   0.586   3.004  0.9722 -0.7088  1.7417
19032TIP3   OH278510   0.710   5.464   5.458  0.3728 -0.1119  0.3343
19032TIP3    H178511   0.691   5.371   5.468  0.4113 -0.1443  0.1115
19032TIP3    H278512   0.785   5.480   5.515  0.1629 -0.1479  0.6228
19033TIP3   OH278513   6.551   5.952  11.554  0.0792 -0.2022 -0.1916
19033TIP3    H178514   6.598   5.925  11.633 -0.8222 -0.0880  0.3908
19033TIP3    H278515   6.473   5.996  11.586  1.0255  2.3220 -1.1141
19034TIP3   OH278516   2.273   6.665  13.803 -0.5535 -0.1836  0.2186
19034TIP3    H178517   2.355   6.631  13.838 -1.0844 -0.2542  1.4364
19034TIP3    H278518   2.266   6.753  13.840 -1.3238 -0.4117  0.6285
19035TIP3   OH278519   5.057   4.274   2.173 -0.1507  0.9775 -0.0526
19035TIP3    H178520   5.069   4.180   2.158  1.0029  1.2116 -0.7229
19035TIP3    H278521   4.962   4.286   2.172 -0.3261 -0.2320  0.4180
19036TIP3   OH278522   5.472   3.017   4.983  0.1784 -0.3545 -0.1341
19036TIP3    H178523   5.515   2.957   5.044  0.4159  0.8467  0.9173
19036TIP3    H278524   5.518   3.100   4.995 -1.6746  0.6786  0.1678
19037TIP3   OH278525   6.228   3.741  13.572  0.1243  0.4065 -0.0994
19037TIP3    H178526   6.250   3.754  13.480  1.7241  1.0482  0.3453
19037TIP3    H278527   6.132   3.735  13.573 -0.1627  3.2636 -1.4611
19038TIP3   OH278528   3.744   4.902  14.506 -0.3390 -0.2968 -0.0999
19038TIP3    H178529   3.818   4.843  14.517 -0.0482 -0.2109 -1.5294
19038TIP3    H278530   3.783   4.989  14.497 -0.4112 -0.4838 -3.0433
19039TIP3   OH278531   2.830   4.672   5.213  0.1201  0.3809 -0.0194
19039TIP3    H178532   2.830   4.768   5.216  2.0912  0.4183  3.3390
19039TIP3    H278533   2.788   4.645   5.295  1.1570 -1.5918 -0.0847
19040TIP3   OH278534   6.655   4.070   4.427  0.7287  0.1515 -0.6569
19040TIP3    H178535   6.577   4.107   4.471  1.4144 -0.1103  0.8539
19040TIP3    H278536   6.620   4.005   4.367 -0.3616  1.6070 -1.6863
19041TIP3   OH278537   6.436   3.338  15.023  0.1702  0.3919  0.2533
19041TIP3    H178538   6.510   3.289  14.988 -0.7542  0.4118 -1.8555
19041TIP3    H278539   6.392   3.277  15.082  0.7765 -0.2590  0.0371
19042TIP3   OH278540   6.179   6.503   1.726 -0.1095  0.6909  0.0835
19042TIP3    H178541   6.273   6.493   1.738 -0.2375  1.2326  1.8785
19042TIP3    H278542   6.170   6.556   1.647  0.9756 -1.3128 -1.4684
19043TIP3   OH278543   0.972   3.056  12.036  0.5983  0.0993 -0.3573
19043TIP3    H178544   0.994   3.142  12.071 -1.7021  1.6848 -2.4142
19043TIP3    H278545   0.892   3.031  12.082  2.1577 -1.8550  1.4649
19044TIP3   OH278546   6.180   5.405  16.548 -0.0893 -0.3177  0.4394
19044TIP3    H178547   6.116   5.470  16.576 -0.6375 -0.4047 -0.5715
19044TIP3    H278548   6.131   5.323  16.544  0.4473 -0.6839  1.0995
19045TIP3   OH278549   3.444   2.926  13.327 -0.1648 -0.4605 -0.0400
19045TIP3    H178550   3.435   2.871  13.405 -1.6873 -0.2571 -0.0327
19045TIP3    H278551   3.370   2.987  13.332  0.2562  0.1720 -1.1563
19046TIP3   OH278552   6.028   0.441   1.582 -0.3062  0.0328  0.2696
19046TIP3    H178553   5.997   0.351   1.593 -2.6367  0.5881 -0.9435
19046TIP3    H278554   5.967   0.494   1.634 -0.7193  1.1030 -1.2201
19047TIP3   OH278555   5.307   4.580   0.733  0.1322 -0.2565 -0.2979
19047TIP3    H178556   5.372   4.596   0.665 -0.8823 -1.5854 -1.6696
19047TIP3    H278557   5.260   4.663   0.742  0.6881  0.1127 -0.7788
19048TIP3   OH278558   6.415   2.608  12.683 -0.4434 -0.0788 -0.3681
19048TIP3    H178559   6.433   2.552  12.758 -1.3704  0.6738  0.4619
19048TIP3    H278560   6.320   2.623  12.687 -0.3743  0.6764 -1.1767
19049TIP3   OH278561   5.166   6.616  12.254  0.0986 -0.3508  0.1734
19049TIP3    H178562   5.099   6.611  12.186  0.1809 -0.0043  0.0640
19049TIP3    H278563   5.249   6.604  12.207  0.1694  0.0875  0.1766
19050TIP3   OH278564   4.976   1.931  12.557  0.0032  0.0225  0.3213
19050TIP3    H178565   5.015   1.850  12.589  0.2191 -0.1834 -0.4312
19050TIP3    H278566   4.887   1.931  12.592  0.9029  0.9339  2.8228
19051TIP3   OH278567   1.759   4.424  14.688  0.4062 -0.0953  0.5495
19051TIP3    H178568   1.817   4.422  14.764 -0.6467  0.7293  1.4037
19051TIP3    H278569   1.678   4.382  14.718  0.3677 -0.7643 -0.4611
19052TIP3   OH278570   0.653   4.859  14.369  0.3283  0.2496  0.5965
19052TIP3    H178571   0.595   4.797  14.413 -0.0559 -0.7177 -1.1969
19052TIP3    H278572   0.615   4.945  14.386  0.6913  0.0378  2.8565
19053TIP3   OH278573   2.458   3.618   5.721 -0.4738 -0.1541 -0.3346
19053TIP3    H178574   2.439   3.709   5.696 -0.4570  0.6385  2.2658
19053TIP3    H278575   2.527   3.591   5.661  0.9968  2.2917  0.1253
19054TIP3   OH278576   3.086   1.474   0.615 -0.8068  0.0528  0.2666
19054TIP3    H178577   3.024   1.543   0.591 -0.6735 -0.0084 -0.2805
19054TIP3    H278578   3.165   1.522   0.643 -0.2389  0.1476 -1.3811
19055TIP3   OH278579   4.514   3.129  11.166  0.1001  0.3523 -0.4465
19055TIP3    H178580   4.526   3.220  11.139  2.3632  0.0087 -0.8375
19055TIP3    H278581   4.496   3.134  11.260 -0.5212  1.2354 -0.6059
19056TIP3   OH278582   5.577   1.357   5.429  0.2174  0.2329  0.6063
19056TIP3    H178583   5.580   1.262   5.424  1.0419  0.3080 -1.3840
19056TIP3    H278584   5.493   1.377   5.470 -0.7927 -1.3431 -0.5762
19057TIP3   OH278585   1.950   1.909  16.510 -0.1047  0.0877 -0.4527
19057TIP3    H178586   2.017   1.853  16.550 -0.8290 -0.3243  0.2107
19057TIP3    H278587   1.995   1.953  16.438  1.8226  2.3055  1.8947
19058TIP3   OH278588   4.288   3.291   0.711 -0.0743  0.7528  0.1746
19058TIP3    H178589   4.288   3.382   0.742 -2.1402  1.1473 -0.8662
19058TIP3    H278590   4.268   3.297   0.618  0.8303 -0.7343 -0.1531
19059TIP3   OH278591   5.047   2.577  17.057 -0.2367 -0.0510  0.8018
19059TIP3    H178592   5.011   2.651  17.106  0.4173  0.6848  0.1747
19059TIP3    H278593   5.012   2.500  17.103 -1.3280  0.6309  1.1619
19060TIP3   OH278594   0.939   5.389   1.137 -0.0426 -0.0442 -0.5059
19060TIP3    H178595   0.915   5.442   1.214  2.6437  2.1540 -1.0511
19060TIP3    H278596   0.861   5.336   1.120 -2.3740  2.5967  1.0546
19061TIP3   OH278597   0.274   1.201  12.088 -0.2439  0.1068  0.0447
19061TIP3    H178598   0.210   1.138  12.054 -0.3344  0.1361  0.1580
19061TIP3    H278599   0.276   1.184  12.182  1.7868 -1.5984 -0.2460
19062TIP3   OH278600   6.726   0.356   5.867  0.5746  0.0107  0.2508
19062TIP3    H178601   6.788   0.285   5.886  0.7470  0.2971  0.7893
19062TIP3    H278602   6.672   0.362   5.945  1.7320  1.6594  0.9876
19063TIP3   OH278603   0.575   4.457  15.437  0.0392  0.3566  0.0830
19063TIP3    H178604   0.578   4.383  15.376  0.1321  0.0649  0.4386
19063TIP3    H278605   0.558   4.417  15.522  1.2430  0.6381  0.4609
19064TIP3   OH278606   1.679   1.748  16.847  0.3017 -0.4057 -0.2671
19064TIP3    H178607   1.763   1.704  16.839 -0.0965 -0.9002 -2.2966
19064TIP3    H278608   1.661   1.783  16.759 -2.3761 -1.8483 -0.4298
19065TIP3   OH278609   5.997   4.197   5.774  0.1687  0.0048 -0.1950
19065TIP3    H178610   6.054   4.167   5.844  1.6108  0.6915 -1.0330
19065TIP3    H278611   5.949   4.118   5.747  0.8570 -0.6360  0.4073
19066TIP3   OH278612   0.811   6.398  17.092  0.6410 -0.3497 -0.3522
19066TIP3    H178613   0.865   6.330  17.132  0.7085  0.2794  0.6496
19066TIP3    H278614   0.872   6.470  17.075  0.1838  0.2719  0.5617
19067TIP3   OH278615   0.506   1.079   3.228 -0.2428 -0.5268  0.1301
19067TIP3    H178616   0.583   1.082   3.170 -0.1117  2.2276  0.3168
19067TIP3    H278617   0.460   1.161   3.210 -2.4818 -1.5438  0.9629
19068TIP3   OH278618   0.552   4.233  16.258  0.2472 -0.2352 -0.3428
19068TIP3    H178619   0.548   4.328  16.273 -1.7665 -0.3808  0.4012
19068TIP3    H278620   0.645   4.214  16.247  0.5457  2.4160 -4.7120
19069TIP3   OH278621   3.275   4.053  13.709  0.2778  0.5132  0.6070
19069TIP3    H178622   3.261   4.008  13.793  1.2614 -1.2443 -0.1109
19069TIP3    H278623   3.253   4.144  13.727  1.5132  0.4218  3.0927
19070TIP3   OH278624   1.944   1.798   2.398 -0.4289  0.1549  0.5942
19070TIP3    H178625   1.881   1.727   2.391 -0.9817  0.6861  0.0242
19070TIP3    H278626   2.001   1.773   2.471 -0.3728 -1.0475  0.1587
19071TIP3   OH278627   0.817   6.807  15.231  0.1678 -0.1783  0.9713
19071TIP3    H178628   0.809   6.901  15.213  1.2582  0.2440  2.5526
19071TIP3    H278629   0.747   6.768  15.178 -2.0884  1.7681  2.2976
19072TIP3   OH278630   2.149   5.546  15.945 -0.0377 -0.1853 -0.1289
19072TIP3    H178631   2.173   5.458  15.916  1.3817  0.3609 -0.7228
19072TIP3    H278632   2.079   5.573  15.886  0.0756 -0.6033 -0.4559
19073TIP3   OH278633   2.644   4.994   4.811  0.1312  0.1377  0.2004
19073TIP3    H178634   2.583   5.021   4.880 -0.7009 -2.2083  0.4833
19073TIP3    H278635   2.675   4.908   4.839  0.9095 -0.2360 -1.6483
19074TIP3   OH278636   4.550   6.545  15.110  0.4011 -0.5791  0.4042
19074TIP3    H178637   4.493   6.622  15.107 -0.5265 -1.2957 -1.2615
19074TIP3    H278638   4.638   6.580  15.092 -0.1615 -0.0076 -1.4690
19075TIP3   OH278639   1.476   4.429   1.367  0.3885 -0.1007  0.2685
19075TIP3    H178640   1.472   4.415   1.272  0.7755 -0.2341  0.2677
19075TIP3    H278641   1.514   4.516   1.378 -1.8140  0.9142  0.2790
19076TIP3   OH278642   6.798   6.664  12.796  0.2621  0.5775 -0.3610
19076TIP3    H178643   6.853   6.734  12.834  2.4971 -0.9451 -0.5961
19076TIP3    H278644   6.848   6.584  12.812 -1.0324 -0.6821 -2.3102
19077TIP3   OH278645   1.639   2.984   2.511  0.0767 -0.1475 -0.6071
19077TIP3    H178646   1.692   2.912   2.547  1.2289 -0.4551 -2.7627
19077TIP3    H278647   1.623   3.041   2.586 -0.4956 -2.3792  1.0938
19078TIP3   OH278648   4.815   3.133  16.074 -0.3555  0.1171 -0.9116
19078TIP3    H178649   4.791   3.205  16.133  1.8117  0.4608 -0.3326
19078TIP3    H278650   4.845   3.063  16.133  0.4651 -0.0886 -1.5565
19079TIP3   OH278651   0.045   0.728   0.285  0.9036  0.2193  0.0455
19079TIP3    H178652  -0.007   0.776   0.220  0.9574  1.6535  1.0276
19079TIP3    H278653   0.035   0.636   0.259 -0.4238  0.6194 -1.0129
19080TIP3   OH278654   4.545   5.975   5.530  0.0906 -0.4850 -0.4195
19080TIP3    H178655   4.592   5.893   5.543  1.0583  0.2048  0.6756
19080TIP3    H278656   4.610   6.034   5.491 -0.8536 -0.4835 -2.0699
19081TIP3   OH278657   0.853   6.325   3.705 -0.1452  0.1921  0.0704
19081TIP3    H178658   0.932   6.299   3.657  0.0820  1.1045 -0.0692
19081TIP3    H278659   0.831   6.411   3.669  0.7434  1.4880  2.4629
19082TIP3   OH278660   4.577   1.674  11.706  0.1562  0.3996 -0.0209
19082TIP3    H178661   4.648   1.716  11.659  0.8094  1.8129  2.0495
19082TIP3    H278662   4.497   1.708  11.666  0.6494  0.1273 -1.2508
19083TIP3   OH278663   2.566   3.211  15.602 -0.2613 -0.2151 -0.0371
19083TIP3    H178664   2.592   3.144  15.665  0.5604  0.8949  0.8487
19083TIP3    H278665   2.642   3.220  15.544  0.0195  0.6060  0.4397
19084TIP3   OH278666   6.071   6.634   4.710  0.7708 -0.2911 -0.5811
19084TIP3    H178667   6.038   6.684   4.636 -0.8587 -0.6427 -0.1303
19084TIP3    H278668   6.114   6.699   4.766  0.5919  0.2296 -1.0452
19085TIP3   OH278669   5.438   0.320   1.877  0.3302  0.1055 -0.3607
19085TIP3    H178670   5.450   0.245   1.935  1.2322  1.6156  1.5226
19085TIP3    H278671   5.344   0.319   1.856  0.2999 -1.4246 -0.2769
19086TIP3   OH278672   1.376   1.847   5.490  0.0433  0.0192  0.6122
19086TIP3    H178673   1.325   1.820   5.414  1.0779 -0.3575  0.0365
19086TIP3    H278674   1.456   1.886   5.453  0.2415  0.4819  1.4923
19087TIP3   OH278675   0.809   0.280   1.303 -0.5638 -0.2517 -0.1786
19087TIP3    H178676   0.823   0.353   1.243  1.1290  0.3000  0.8002
19087TIP3    H278677   0.714   0.275   1.313 -0.7374  2.2655  0.2313
19088TIP3   OH278678   3.200   4.494  14.022  0.0763  0.2644 -0.3347
19088TIP3    H178679   3.114   4.485  14.064  0.1727 -0.7237 -0.3161
19088TIP3    H278680   3.261   4.505  14.095  0.3372 -2.1929 -0.1066
19089TIP3   OH278681   6.375   5.903  12.094  0.3194 -0.0771 -0.2345
19089TIP3    H178682   6.390   5.833  12.158  1.0087  0.0498 -0.2538
19089TIP3    H278683   6.435   5.883  12.022  1.2354  1.0613  0.1796
19090TIP3   OH278684   5.093   6.175   5.859 -0.2384  0.3498  0.1516
19090TIP3    H178685   5.182   6.156   5.888 -0.7388  0.2750  1.6857
19090TIP3    H278686   5.075   6.106   5.794  0.7688  0.3122 -0.1174
19091TIP3   OH278687   2.960   1.923  10.469  0.2572  0.6654  0.3816
19091TIP3    H178688   3.024   1.943  10.537 -0.3433 -1.1810  1.5736
19091TIP3    H278689   3.005   1.860  10.412 -0.2808 -0.2298  0.9201
19092TIP3   OH278690   4.823   2.582   1.361 -0.6177 -0.2261 -0.3878
19092TIP3    H178691   4.824   2.624   1.275 -1.3725 -2.3503 -1.4905
19092TIP3    H278692   4.915   2.578   1.386 -0.2492 -0.8138 -1.7443
19093TIP3   OH278693   5.315   4.947   3.543  0.1963 -0.7219  0.2771
19093TIP3    H178694   5.322   5.042   3.534  1.5354 -0.8034  0.2268
19093TIP3    H278695   5.222   4.929   3.533  0.2274  0.2791 -2.7779
19094TIP3   OH278696   5.763   5.471   5.746 -0.3620 -0.1281  0.0644
19094TIP3    H178697   5.733   5.477   5.836  2.4006 -0.0941  1.0680
19094TIP3    H278698   5.781   5.562   5.721 -1.7580 -0.0667 -0.7889
19095TIP3   OH278699   5.303   4.646   4.572 -0.3144 -0.3454 -0.1801
19095TIP3    H178700   5.328   4.619   4.483 -1.4041 -1.8345 -0.0871
19095TIP3    H278701   5.208   4.661   4.566 -0.4298 -0.6623  0.7719
19096TIP3   OH278702   1.516   0.835  13.405  0.3240 -0.2498  0.4858
19096TIP3    H178703   1.498   0.917  13.359  0.4373  0.6216  1.9365
19096TIP3    H278704   1.488   0.767  13.345  0.8531  0.8241 -1.0423
19097TIP3   OH278705   2.461   1.395   5.868 -0.0532 -0.1207 -0.0887
19097TIP3    H178706   2.537   1.389   5.926  1.0756 -0.2448 -1.5347
19097TIP3    H278707   2.455   1.308   5.828  0.0847  0.3798 -1.2316
19098TIP3   OH278708   6.191   3.465   5.352 -0.6338  0.5034  0.3563
19098TIP3    H178709   6.169   3.385   5.304 -0.4322  0.1869  0.7842
19098TIP3    H278710   6.106   3.504   5.374 -0.8231  2.3008 -2.8825
19099TIP3   OH278711   1.772   5.935  16.928  0.4330  0.2240  0.5327
19099TIP3    H178712   1.704   5.989  16.888  1.5173  1.0417 -0.2786
19099TIP3    H278713   1.737   5.846  16.925 -1.1730  0.7930  1.4253
19100TIP3   OH278714   4.822   0.329   3.834 -0.0299 -0.3504  0.0390
19100TIP3    H178715   4.881   0.404   3.831 -0.8248  0.3932  1.7326
19100TIP3    H278716   4.849   0.279   3.911 -1.3761 -0.1658  0.6614
19101TIP3   OH278717   0.591   3.920  15.575 -0.0861  0.3079 -0.1058
19101TIP3    H178718   0.561   3.896  15.663 -1.5628  1.2730 -0.3020
19101TIP3    H278719   0.653   3.991  15.589 -0.5018  0.6280  0.1645
19102TIP3   OH278720   6.151   5.832  15.640  0.2207  0.1768  0.0309
19102TIP3    H178721   6.120   5.798  15.724 -3.1880  1.7542 -0.3955
19102TIP3    H278722   6.187   5.918  15.660 -0.0045  0.2876 -0.0357
19103TIP3   OH278723   2.931   5.755   1.988  0.0813 -0.4238  0.5432
19103TIP3    H178724   2.860   5.802   2.030 -0.1285 -1.2802  1.1558
19103TIP3    H278725   3.001   5.753   2.053  0.6612  0.3487 -0.0266
19104TIP3   OH278726   4.813   3.948  14.488 -0.0985  0.2133 -0.1469
19104TIP3    H178727   4.792   3.926  14.398 -3.8913 -2.7379  1.2063
19104TIP3    H278728   4.861   3.872  14.521 -0.0063  0.6411  0.7392
19105TIP3   OH278729   5.543   0.770  14.102  0.1320  0.4084  0.0091
19105TIP3    H178730   5.476   0.752  14.037  0.8078 -0.5499 -0.4579
19105TIP3    H278731   5.544   0.865  14.111 -1.1796  0.4477 -0.0677
19106TIP3   OH278732   1.293   0.912   2.500 -0.0919  0.0166  0.1419
19106TIP3    H178733   1.282   0.988   2.444 -1.8147 -0.0183  0.3971
19106TIP3    H278734   1.243   0.843   2.457  1.3651 -0.9860 -0.0376
19107TIP3   OH278735   2.898   4.050   3.164  0.0589 -0.0166 -0.3022
19107TIP3    H178736   2.908   4.102   3.085  0.4304  0.7129  0.2152
19107TIP3    H278737   2.840   4.102   3.220  0.3400 -0.2106  0.1727
19108TIP3   OH278738   2.285   0.105  13.907  0.1085  0.4470  0.6202
19108TIP3    H178739   2.247   0.158  13.837 -0.2876  0.3846  0.7803
19108TIP3    H278740   2.249   0.144  13.987  1.0184  0.8837  0.8211
19109TIP3   OH278741   0.218   2.560  12.248  0.1413  0.2456 -0.4712
19109TIP3    H178742   0.147   2.622  12.231 -0.1167  0.2450  0.5595
19109TIP3    H278743   0.177   2.488  12.296  0.7180 -0.0349 -0.3889
19110TIP3   OH278744   6.751   3.827  12.471  0.0600  0.5932 -0.1279
19110TIP3    H178745   6.662   3.850  12.445  0.3593 -1.0070 -3.0041
19110TIP3    H278746   6.740   3.760  12.539 -1.1349 -1.9660 -2.6425
19111TIP3   OH278747   1.747   2.357  10.918 -0.5157 -0.0049  0.5555
19111TIP3    H178748   1.803   2.279  10.914  0.0168  0.4014 -0.8884
19111TIP3    H278749   1.689   2.348  10.842  1.6395  2.4495 -1.5652
19112TIP3   OH278750   0.413   0.876  16.279  0.0080 -0.2536 -0.3049
19112TIP3    H178751   0.340   0.937  16.265 -0.0847 -0.6678 -1.8108
19112TIP3    H278752   0.401   0.809  16.212  0.0559 -2.0152  1.3571
19113TIP3   OH278753   0.454   4.347  12.501  0.0395 -0.5004  0.4200
19113TIP3    H178754   0.364   4.375  12.484  0.1649  1.2458  2.2891
19113TIP3    H278755   0.508   4.422  12.474  0.9532 -1.4339 -0.4560
19114TIP3   OH278756   0.661   0.170   5.566  0.2648 -0.7099 -0.1065
19114TIP3    H178757   0.648   0.189   5.473 -1.8554 -0.7654  0.1500
19114TIP3    H278758   0.624   0.245   5.612  1.3750 -0.6437  0.7323
19115TIP3   OH278759   6.456   4.104  12.169 -0.6362 -0.1789 -0.2638
19115TIP3    H178760   6.458   4.187  12.121  0.4364 -0.2698 -0.4140
19115TIP3    H278761   6.486   4.039  12.105  2.6919 -0.0349  0.9309
19116TIP3   OH278762   6.445   0.206   0.490  0.1345 -0.3959  0.1129
19116TIP3    H178763   6.496   0.141   0.539  1.3787  0.6787  0.3251
19116TIP3    H278764   6.355   0.194   0.519  0.3451 -1.9880  0.1603
19117TIP3   OH278765   6.771   2.667  14.085 -0.4544 -0.1959 -0.0826
19117TIP3    H178766   6.717   2.688  14.161 -0.9013 -0.9350 -0.1842
19117TIP3    H278767   6.710   2.664  14.012 -0.4266 -1.7751 -0.0769
19118TIP3   OH278768   1.913   0.010  16.077  0.1342  0.0318 -0.6736
19118TIP3    H178769   1.995   0.057  16.094 -0.4121  0.6286  0.4556
19118TIP3    H278770   1.847   0.079  16.073 -0.6306 -0.5702  0.6516
19119TIP3   OH278771   5.072   4.980   4.936 -0.1420 -0.3640 -0.7881
19119TIP3    H178772   5.163   5.008   4.933 -0.2730  0.0405 -1.2152
19119TIP3    H278773   5.023   5.060   4.958 -0.3192 -0.7696  0.3984
19120TIP3   OH278774   3.143   3.397   1.901  0.2975  0.3870  0.7829
19120TIP3    H178775   3.208   3.344   1.855 -0.0327 -1.4380  2.2839
19120TIP3    H278776   3.071   3.336   1.918 -3.1685  2.8096 -3.0364
19121TIP3   OH278777   5.987   0.536  12.382 -0.3579  0.3207 -0.4834
19121TIP3    H178778   5.990   0.456  12.434  1.3958  0.8748  0.3656
19121TIP3    H278779   6.033   0.514  12.301 -0.8622  0.1611 -0.7273
19122TIP3   OH278780   5.428   2.922  10.814 -0.4725  0.3895  0.5827
19122TIP3    H178781   5.440   2.974  10.893 -0.4700 -1.4888  1.8814
19122TIP3    H278782   5.398   2.985  10.748  0.3999  2.1690  1.8028
19123TIP3   OH278783   6.145   3.804   2.693 -0.2969  0.2582  0.0965
19123TIP3    H178784   6.187   3.889   2.682  0.5719 -0.2714 -0.7945
19123TIP3    H278785   6.209   3.741   2.661 -1.6646 -0.5969 -1.0894
19124TIP3   OH278786   3.710   5.849  13.116 -0.6158 -0.3828  0.3556
19124TIP3    H178787   3.715   5.809  13.029  0.7187 -0.0321  0.2448
19124TIP3    H278788   3.688   5.940  13.099  3.6605  0.8013 -0.0478
19125TIP3   OH278789   2.917   4.660   3.505 -0.0459 -0.5025 -0.6852
19125TIP3    H178790   2.867   4.742   3.500 -0.4348 -0.8056 -1.9763
19125TIP3    H278791   2.969   4.658   3.426 -2.3548 -2.9385 -2.3276
19126TIP3   OH278792   5.019   0.397   4.030  0.0062  0.1143  0.6006
19126TIP3    H178793   5.108   0.371   4.007  0.1098  0.1098  0.9990
19126TIP3    H278794   5.030   0.472   4.087 -0.2842  0.8627 -0.3038
19127TIP3   OH278795   2.989   2.521   1.397 -0.6426 -0.2540 -0.5183
19127TIP3    H178796   2.953   2.458   1.335 -1.4123 -1.6327  1.2613
19127TIP3    H278797   2.915   2.577   1.420 -0.0851  1.0210 -1.6829
19128TIP3   OH278798   1.070   5.383   1.955  0.0949  0.7653  0.1036
19128TIP3    H178799   1.105   5.458   1.906 -1.0676  0.2093 -1.6755
19128TIP3    H278800   1.121   5.308   1.926  0.0675  0.5829  0.5182
19129TIP3   OH278801   1.336   0.138  15.654 -0.1622  0.3577 -0.1010
19129TIP3    H178802   1.386   0.136  15.573  0.3319 -0.2894  0.2109
19129TIP3    H278803   1.376   0.071  15.709 -0.2320  1.0658  0.8355
19130TIP3   OH278804   1.190   6.070  14.547  0.1860 -0.1107  0.1054
19130TIP3    H178805   1.108   6.104  14.512 -0.0687  1.0222  1.7124
19130TIP3    H278806   1.205   5.989  14.498 -1.7440 -0.2063 -0.4039
19131TIP3   OH278807   1.016   2.299   5.171  0.2303  0.2648 -0.0675
19131TIP3    H178808   0.973   2.214   5.164  1.0123 -0.1971  0.5900
19131TIP3    H278809   1.106   2.283   5.140  0.4173  0.8171  0.1793
19132TIP3   OH278810   1.685   2.424   5.377 -0.1973  0.1994  0.2262
19132TIP3    H178811   1.680   2.476   5.457  0.3878  0.7726 -0.0912
19132TIP3    H278812   1.604   2.372   5.376 -0.9871  1.3953  0.3577
19133TIP3   OH278813   4.093   4.365  16.046  0.5614  0.1848  0.0398
19133TIP3    H178814   4.164   4.374  16.109 -0.6832 -3.0930  2.1751
19133TIP3    H278815   4.037   4.441  16.061  0.9238  0.0972  2.0973
19134TIP3   OH278816   2.619   1.208   4.857  0.4932  0.1584  0.5370
19134TIP3    H178817   2.601   1.170   4.771 -0.2040  0.3858  0.5710
19134TIP3    H278818   2.714   1.206   4.865  0.4911 -1.3763  0.4494
19135TIP3   OH278819   2.524   1.259  16.216  0.2696  0.2208 -0.0758
19135TIP3    H178820   2.603   1.304  16.246  0.1668 -0.0195  0.5749
19135TIP3    H278821   2.552   1.168  16.204  0.2050  0.2300 -0.2915
19136TIP3   OH278822   3.645   1.036   3.294 -0.2710 -0.1691 -0.0475
19136TIP3    H178823   3.683   1.057   3.380  0.2705 -0.3556 -0.2365
19136TIP3    H278824   3.574   1.099   3.284 -1.1444 -0.9353  1.0780
19137TIP3   OH278825   1.575   0.379  11.714 -0.5836 -0.3579  0.4274
19137TIP3    H178826   1.628   0.388  11.635  0.0732  0.4416  0.9406
19137TIP3    H278827   1.577   0.285  11.734  3.1269 -0.1252  2.0382
19138TIP3   OH278828   3.592   2.742   2.135  0.4479  0.4377 -0.3203
19138TIP3    H178829   3.663   2.715   2.076  1.7601  2.2654  0.3103
19138TIP3    H278830   3.536   2.665   2.142  1.8980 -0.8040 -1.5445
19139TIP3   OH278831   0.268   6.299   0.881 -0.3950  0.6593  0.1570
19139TIP3    H178832   0.244   6.389   0.901 -1.2715  0.4778 -0.0237
19139TIP3    H278833   0.355   6.305   0.842 -0.1360  1.3482  0.8142
19140TIP3   OH278834   1.503   0.693   1.485 -0.0319 -1.0777  0.0914
19140TIP3    H178835   1.459   0.778   1.482  0.9933 -0.5254  0.1048
19140TIP3    H278836   1.468   0.650   1.563 -0.6665 -0.7306 -0.0009
19141TIP3   OH278837   6.317   3.394   4.399  0.3286 -0.0870  0.3635
19141TIP3    H178838   6.311   3.466   4.461 -0.3619  1.1425 -1.0805
19141TIP3    H278839   6.226   3.372   4.378  0.4792  1.5626 -2.4458
19142TIP3   OH278840   3.504   1.836   2.150  0.1762  0.1529 -0.1799
19142TIP3    H178841   3.452   1.813   2.072  2.1439 -0.4310 -1.3925
19142TIP3    H278842   3.440   1.841   2.221 -1.2892 -2.4573 -1.1819
19143TIP3   OH278843   5.164   2.293  17.120  0.1577 -0.4556 -0.5716
19143TIP3    H178844   5.176   2.261  17.031 -0.1783  0.2669 -0.8832
19143TIP3    H278845   5.069   2.306  17.128  0.0944 -1.2130  0.1426
19144TIP3   OH278846   4.955   5.061   4.693 -0.2827 -0.2671  0.2854
19144TIP3    H178847   4.989   5.151   4.686 -0.5946 -0.0388  1.3975
19144TIP3    H278848   5.012   5.020   4.758 -1.3533 -0.2442  1.2741
19145TIP3   OH278849   1.623   1.756   2.064  0.1845 -0.5109  0.1685
19145TIP3    H178850   1.591   1.755   1.974 -0.8958 -0.4302  0.5305
19145TIP3    H278851   1.698   1.815   2.063 -0.3172  0.1321 -0.5179
19146TIP3   OH278852   5.992   4.144   1.346  0.0686  0.1164 -0.2128
19146TIP3    H178853   5.934   4.118   1.274 -0.9049 -3.0074  1.4845
19146TIP3    H278854   6.044   4.065   1.364  2.2970  1.6928  0.7375
19147TIP3   OH278855   3.839   3.144  10.607 -0.7558 -0.2761  0.1457
19147TIP3    H178856   3.868   3.053  10.603  0.3133  0.0272  0.5778
19147TIP3    H278857   3.821   3.159  10.700 -2.2153 -0.4069 -0.0849
19148TIP3   OH278858   0.174   3.753   2.694  0.1527 -0.6058  0.0573
19148TIP3    H178859   0.113   3.708   2.753 -0.8395  0.0906 -0.3985
19148TIP3    H278860   0.167   3.706   2.611 -2.1382  1.2387 -0.9342
19149TIP3   OH278861   4.728   3.946  10.683  0.2132  0.2738  0.2075
19149TIP3    H178862   4.747   3.871  10.739  0.2970  0.6666  0.7133
19149TIP3    H278863   4.742   3.915  10.594  0.2606 -0.3044  0.4178
19150TIP3   OH278864   0.810   0.365  12.689  0.0246  0.3161  0.0251
19150TIP3    H178865   0.798   0.392  12.598  0.0983  0.3946  0.0381
19150TIP3    H278866   0.840   0.444  12.734  0.9826  0.0346 -0.0887
19151TIP3   OH278867   2.265   0.721   4.135 -0.1440  0.0894  0.4789
19151TIP3    H178868   2.223   0.648   4.180  0.0524 -1.1311 -1.2209
19151TIP3    H278869   2.217   0.728   4.052  2.9318 -1.4289 -1.6057
19152TIP3   OH278870   4.597   1.685  13.565  0.2081 -0.4199  0.1421
19152TIP3    H178871   4.565   1.602  13.530  1.7207 -0.8747 -0.2186
19152TIP3    H278872   4.661   1.715  13.501  0.7366  0.2983  0.9870
19153TIP3   OH278873   6.281   6.680  16.498 -0.8412 -0.4095 -0.2643
19153TIP3    H178874   6.228   6.750  16.460  0.7607  0.1638 -1.5413
19153TIP3    H278875   6.314   6.631  16.423  0.5186 -0.6770  0.4767
19154TIP3   OH278876   6.465   1.541  16.313  0.0363  0.5606 -0.2751
19154TIP3    H178877   6.522   1.615  16.290  0.3514  0.1070 -0.9880
19154TIP3    H278878   6.412   1.526  16.235 -0.2198  0.2063 -0.0367
19155TIP3   OH278879   2.578   3.305  14.490 -0.3698  0.0093  0.0845
19155TIP3    H178880   2.593   3.255  14.571 -2.0803 -0.8441 -0.0873
19155TIP3    H278881   2.641   3.268  14.428  2.5614  2.1803  1.5322
19156TIP3   OH278882   6.350   2.457  13.683 -0.4153 -0.3338 -0.1223
19156TIP3    H178883   6.302   2.463  13.601  1.2146  1.9442 -1.0116
19156TIP3    H278884   6.310   2.523  13.740 -0.6553 -0.9554  0.4519
19157TIP3   OH278885   2.823   5.089   2.276 -0.7712 -0.1356  0.7751
19157TIP3    H178886   2.750   5.028   2.285 -1.3327  0.7701  3.2073
19157TIP3    H278887   2.797   5.147   2.204 -1.9761 -0.4683  0.9219
19158TIP3   OH278888   0.160   0.999   6.620  0.0706 -0.0618 -0.1349
19158TIP3    H178889   0.169   1.094   6.629 -0.3025 -0.0325 -0.0670
19158TIP3    H278890   0.074   0.979   6.657 -0.0859 -0.3558 -0.6347
19159TIP3   OH278891   6.421   2.789   1.314 -0.1896  0.1847 -0.3390
19159TIP3    H178892   6.411   2.842   1.235  0.6206  1.0303  0.1130
19159TIP3    H278893   6.439   2.701   1.282 -0.5963  0.3682 -1.0943
19160TIP3   OH278894   1.495   3.795  15.477  0.1467 -0.1457 -0.2589
19160TIP3    H178895   1.481   3.821  15.386  0.6600  0.8906 -0.0452
19160TIP3    H278896   1.586   3.819  15.495  0.0369 -0.3289  0.5424
19161TIP3   OH278897   4.714   2.385   2.706 -0.4717 -0.5237 -0.0408
19161TIP3    H178898   4.805   2.410   2.696 -0.1500 -1.6235 -0.0381
19161TIP3    H278899   4.714   2.322   2.778 -1.0171 -1.5091 -0.8599
19162TIP3   OH278900   1.193   5.356  13.018 -0.0808 -0.5613 -0.2850
19162TIP3    H178901   1.248   5.434  13.022 -0.3174 -0.2849 -1.8783
19162TIP3    H278902   1.236   5.293  13.075  1.1226  0.1115 -0.4233
19163TIP3   OH278903   4.258   0.313   5.064 -0.2219 -0.2547 -0.4413
19163TIP3    H178904   4.303   0.271   5.137 -0.4325  0.9931  0.4368
19163TIP3    H278905   4.182   0.356   5.104 -1.6410 -1.4332 -1.7302
19164TIP3   OH278906   6.564   3.255   0.060 -0.1724  0.3773  0.2364
19164TIP3    H178907   6.542   3.198   0.135 -0.3110 -0.5812 -0.5142
19164TIP3    H278908   6.545   3.201  -0.017 -0.5011  1.5243 -0.5042
19165TIP3   OH278909   0.871   6.494  10.507  0.1754  0.2498 -0.4589
19165TIP3    H178910   0.885   6.400  10.505  1.5770  0.4449 -1.5926
19165TIP3    H278911   0.957   6.531  10.528 -0.7311  1.2359  1.8339
19166TIP3   OH278912   2.577   3.235  12.269 -0.0530 -0.3927 -0.0906
19166TIP3    H178913   2.511   3.245  12.337 -0.9004 -0.2340 -0.9276
19166TIP3    H278914   2.531   3.253  12.187  0.9207 -0.7067 -0.7245
19167TIP3   OH278915   2.191   0.189  15.106 -0.4957  0.4121 -0.0507
19167TIP3    H178916   2.197   0.283  15.124  1.5126  0.3004  0.0820
19167TIP3    H278917   2.184   0.184  15.010  2.8743  0.6788 -0.4179
19168TIP3   OH278918   0.853   1.705   6.064  0.0222  0.0389 -0.2304
19168TIP3    H178919   0.929   1.686   6.009  0.4392  1.3389 -0.1421
19168TIP3    H278920   0.867   1.795   6.093 -1.6074  0.3267 -0.2743
19169TIP3   OH278921   2.984   5.534   5.238 -0.3925 -0.7884 -0.2736
19169TIP3    H178922   2.911   5.475   5.222 -0.0919 -1.2017 -0.1234
19169TIP3    H278923   3.012   5.514   5.327 -1.2481  0.6178  0.3400
19170TIP3   OH278924   1.285   6.359  13.406  0.2624  0.2734  0.4601
19170TIP3    H178925   1.316   6.447  13.388  1.3240  0.2568  2.0213
19170TIP3    H278926   1.272   6.319  13.320  0.0718  1.8304 -0.2572
19171TIP3   OH278927   1.268   1.649   3.403  0.5135  0.0157  0.6681
19171TIP3    H178928   1.314   1.711   3.459 -1.4121 -0.9115  3.5525
19171TIP3    H278929   1.286   1.564   3.442  0.4898 -0.9002 -1.2296
19172TIP3   OH278930   0.267   5.899  15.951 -0.0221  0.1040  0.1446
19172TIP3    H178931   0.191   5.912  15.894 -0.3081 -0.0670  0.4788
19172TIP3    H278932   0.231   5.855  16.028  0.4733 -0.2723  0.1656
19173TIP3   OH278933   4.351   5.015   1.954 -0.9174 -0.1675 -0.0334
19173TIP3    H178934   4.361   4.921   1.972 -1.3919 -0.3820 -0.8385
19173TIP3    H278935   4.257   5.031   1.964 -0.8110  0.2584  0.2725
19174TIP3   OH278936   1.554   3.704   4.697 -0.1680 -0.7696  0.2560
19174TIP3    H178937   1.492   3.773   4.720 -1.2368 -2.0566  1.3690
19174TIP3    H278938   1.591   3.733   4.613 -1.4633  0.5626  0.0993
19175TIP3   OH278939   6.075   0.356  13.737  0.0122  0.1198 -0.0760
19175TIP3    H178940   6.000   0.416  13.740  0.7496  1.0601  0.1501
19175TIP3    H278941   6.065   0.301  13.815 -1.4588 -1.0618 -1.0442
19176TIP3   OH278942   1.780   6.577  11.208  0.1647  0.6398  0.0797
19176TIP3    H178943   1.847   6.570  11.140 -0.6083  0.8751 -0.7260
19176TIP3    H278944   1.829   6.598  11.288  0.9590  1.8335 -0.6886
19177TIP3   OH278945   2.073   1.650   0.609 -0.4696  0.0606  0.2042
19177TIP3    H178946   2.089   1.741   0.635  1.1556 -0.2689  0.4513
19177TIP3    H278947   2.060   1.604   0.692 -0.2569 -0.1076  0.1450
19178TIP3   OH278948   1.638   0.350   3.117  0.2717 -0.6966  0.9648
19178TIP3    H178949   1.577   0.277   3.129  0.3084 -0.6452  1.4704
19178TIP3    H278950   1.723   0.315   3.142  0.4074 -0.6854  0.5255
19179TIP3   OH278951   4.866   4.977  14.035  0.1707  0.8960  0.3152
19179TIP3    H178952   4.789   5.014  14.079 -0.8020 -0.0685 -0.4898
19179TIP3    H278953   4.857   5.006  13.944  1.3744  1.6732  0.4249
19180TIP3   OH278954   1.127   0.832   0.273 -0.3067 -0.0139 -0.1707
19180TIP3    H178955   1.052   0.793   0.227 -0.9426  0.9941 -0.0110
19180TIP3    H278956   1.144   0.914   0.226  0.1947  0.1411  0.2811
19181TIP3   OH278957   4.458   2.764   1.273 -0.2184  0.1433 -0.8284
19181TIP3    H178958   4.502   2.746   1.356 -1.5093 -0.3461 -0.2168
19181TIP3    H278959   4.506   2.712   1.208 -0.7748 -1.6128  0.0742
19182TIP3   OH278960   3.081   5.708   3.331 -0.1556 -0.0899 -0.2497
19182TIP3    H178961   3.165   5.751   3.319  0.3377  0.6950  4.4088
19182TIP3    H278962   3.017   5.779   3.330  0.1175  0.2992  2.7124
19183TIP3   OH278963   2.510   0.142   5.386 -0.8402  0.1715  0.1261
19183TIP3    H178964   2.565   0.069   5.357 -2.0760 -0.6134 -0.3123
19183TIP3    H278965   2.462   0.107   5.462  0.4737  1.3873  1.5978
19184TIP3   OH278966   1.100   1.225   0.288 -0.4218  0.1489  0.0012
19184TIP3    H178967   1.096   1.318   0.264 -2.4056 -0.0940 -0.7858
19184TIP3    H278968   1.175   1.191   0.237  0.5382  1.3533  0.5591
19185TIP3   OH278969   0.754   0.280  16.416  0.3969 -0.1086  0.0122
19185TIP3    H178970   0.703   0.200  16.401  0.0506  0.1051  0.0482
19185TIP3    H278971   0.689   0.350  16.420  0.5446 -0.0263  1.5761
19186TIP3   OH278972   4.140   5.696   2.663  1.0033  0.1091 -0.0296
19186TIP3    H178973   4.209   5.653   2.613  0.9545  0.6386 -0.5656
19186TIP3    H278974   4.186   5.743   2.733  1.1174 -0.1686  0.0824
19187TIP3   OH278975   5.681   4.480   0.507 -0.1594  0.0912 -0.2060
19187TIP3    H178976   5.709   4.551   0.449  0.1736 -1.8894 -2.6481
19187TIP3    H278977   5.586   4.480   0.500 -0.1373  0.0367 -0.5199
19188TIP3   OH278978   0.055   5.202   0.989  0.2043  0.3057  0.3542
19188TIP3    H178979  -0.031   5.244   0.993 -0.2558 -0.4742 -0.7262
19188TIP3    H278980   0.118   5.272   1.004 -0.5369  1.4306 -1.4676
19189TIP3   OH278981   1.163   2.495   2.168 -0.5024  0.7663 -0.0185
19189TIP3    H178982   1.097   2.508   2.236 -0.7201  1.2748 -0.3200
19189TIP3    H278983   1.156   2.402   2.145 -0.9270  0.7548  0.1467
19190TIP3   OH278984   3.611   5.099  11.471  0.0536 -0.4562 -0.2393
19190TIP3    H178985   3.704   5.123  11.471  0.3020 -1.3475  0.8268
19190TIP3    H278986   3.582   5.115  11.381  0.6834  1.8574 -0.0933
19191TIP3   OH278987   4.797   3.836  14.235  0.8494 -0.5699 -0.3671
19191TIP3    H178988   4.754   3.768  14.286 -3.3750  0.6319 -1.8383
19191TIP3    H278989   4.823   3.792  14.154 -0.1811 -0.8821 -0.5541
19192TIP3   OH278990   3.843   4.880  13.045 -0.3741 -0.4528 -0.1891
19192TIP3    H178991   3.781   4.909  13.112 -1.6575 -0.9716 -1.1255
19192TIP3    H278992   3.805   4.800  13.009  0.2773 -0.1818 -1.5616
19193TIP3   OH278993   1.959   0.066   0.314  0.1008  0.0828  0.2869
19193TIP3    H178994   2.014   0.062   0.236 -1.6730 -2.2204 -0.9777
19193TIP3    H278995   1.980   0.151   0.353  2.0265  0.7656 -1.9412
19194TIP3   OH278996   1.669   1.391   1.902 -0.0450 -0.2163 -0.6500
19194TIP3    H178997   1.622   1.409   1.984  0.4541 -1.4184 -0.0717
19194TIP3    H278998   1.698   1.300   1.911 -0.2415 -0.4702 -2.3031
19195TIP3   OH278999   2.790   3.288  15.459 -0.4735 -0.4128  0.6040
19195TIP3    H179000   2.827   3.371  15.489 -0.0949 -1.0826  2.0932
19195TIP3    H279001   2.863   3.243  15.416 -0.1302 -0.7905  1.5553
19196TIP3   OH279002   6.237   0.893   1.799 -0.0337  0.7649 -0.1435
19196TIP3    H179003   6.296   0.911   1.725 -1.5888  0.4077 -1.5273
19196TIP3    H279004   6.161   0.950   1.783 -0.3642  0.7561  1.2565
19197TIP3   OH279005   3.279   3.556  16.505 -0.8707 -0.0296  0.7963
19197TIP3    H179006   3.290   3.637  16.557 -0.3620  1.4138 -1.4143
19197TIP3    H279007   3.185   3.540  16.505 -0.9594  0.4430  1.4258
19198TIP3   OH279008   4.464   3.232  15.007  0.0951 -0.0515 -0.0446
19198TIP3    H179009   4.534   3.170  15.028 -0.0807 -0.2969 -0.1787
19198TIP3    H279010   4.388   3.177  14.990  0.2644  0.1353 -1.4694
19199TIP3   OH279011   5.096   3.554   2.448 -0.0857  0.2049  0.1442
19199TIP3    H179012   5.104   3.623   2.514  0.7928  1.3859 -1.1371
19199TIP3    H279013   5.167   3.572   2.386  0.6670 -2.3546  0.1859
19200TIP3   OH279014   2.553   4.756  17.075 -0.2955 -0.2467  0.1041
19200TIP3    H179015   2.648   4.750  17.083 -0.1988  1.7622  1.2353
19200TIP3    H279016   2.519   4.712  17.153 -0.1974  0.4949  0.5793
19201TIP3   OH279017   6.787   1.480   5.864  0.1867 -0.6171  0.3882
19201TIP3    H179018   6.769   1.521   5.779 -1.5371  0.1412  1.0726
19201TIP3    H279019   6.825   1.550   5.917 -0.4338 -0.5761  0.7901
19202TIP3   OH279020   3.149   0.628  16.851  0.1575 -0.2317  0.2895
19202TIP3    H179021   3.199   0.566  16.903 -0.2444 -1.2407 -0.4957
19202TIP3    H279022   3.213   0.694  16.824  0.7218 -0.6351  0.6252
19203TIP3   OH279023   5.683   4.878   3.013 -0.4934  0.5005 -0.0760
19203TIP3    H179024   5.639   4.959   3.037  2.1002  1.9362  0.2323
19203TIP3    H279025   5.642   4.851   2.931 -2.7789  0.9581  0.8494
19204TIP3   OH279026   2.445   2.746   4.157 -0.2057 -0.1465 -0.2532
19204TIP3    H179027   2.412   2.729   4.068 -2.4877  1.8863  0.1114
19204TIP3    H279028   2.381   2.806   4.195  1.5601  0.2817  2.2469
19205TIP3   OH279029   4.884   5.412   4.643  0.4147 -0.2155 -0.1337
19205TIP3    H179030   4.967   5.381   4.679  0.6929 -2.3626 -2.3601
19205TIP3    H279031   4.817   5.360   4.686  0.1345  1.4436  1.5838
19206TIP3   OH279032   3.690   1.175   3.524 -0.6708 -0.1157  0.1816
19206TIP3    H179033   3.748   1.251   3.518 -0.1240 -0.3577  1.7651
19206TIP3    H279034   3.659   1.177   3.615 -0.2739 -2.0248  0.4011
19207TIP3   OH279035   4.938   3.419  13.095  0.0427  0.2915  0.1061
19207TIP3    H179036   4.909   3.360  13.025 -1.1130 -1.5631  2.0022
19207TIP3    H279037   4.864   3.423  13.155  1.6251  0.2179  2.1861
19208TIP3   OH279038   0.206   0.883  12.594 -0.2072 -0.5134 -0.0333
19208TIP3    H179039   0.280   0.896  12.653  0.5429  1.5975 -1.3270
19208TIP3    H279040   0.134   0.930  12.635 -0.0267 -0.1208 -0.1581
19209TIP3   OH279041   1.702   5.852   4.166  0.7945 -0.7539 -0.3263
19209TIP3    H179042   1.701   5.939   4.205 -0.3175 -1.5144  1.4134
19209TIP3    H279043   1.692   5.791   4.239  0.7455 -2.3371 -1.5743
19210TIP3   OH279044   4.197   5.669   3.507 -0.2188 -0.0236 -0.3511
19210TIP3    H179045   4.222   5.599   3.446  1.8158 -0.5392  0.9819
19210TIP3    H279046   4.268   5.671   3.571 -2.4040  0.2896  2.2098
19211TIP3   OH279047   0.673   4.323  14.576 -0.3194 -0.3994 -0.1137
19211TIP3    H179048   0.727   4.386  14.624  0.6109 -2.0133  1.0178
19211TIP3    H279049   0.714   4.238  14.591 -2.0919 -1.4465 -0.8054
19212TIP3   OH279050   4.308   5.044  11.540  0.3219 -0.0754  0.1928
19212TIP3    H179051   4.379   5.036  11.605  0.3872  2.3696  0.5174
19212TIP3    H279052   4.353   5.042  11.456  0.4691 -1.1895  0.2882
19213TIP3   OH279053   6.440   1.820  16.146 -0.1527  0.0391  0.1138
19213TIP3    H179054   6.515   1.793  16.198  0.1382 -1.0701 -0.8388
19213TIP3    H279055   6.477   1.844  16.061 -0.6908  1.1565  0.1708
19214TIP3   OH279056   4.353   0.760   4.606  0.4684  0.3952 -0.9079
19214TIP3    H179057   4.369   0.821   4.678 -0.8023 -0.6659  0.3217
19214TIP3    H279058   4.439   0.720   4.590  1.3045  2.3993 -1.6930
19215TIP3   OH279059   5.663   4.947  14.410 -0.3043  0.2692  0.3209
19215TIP3    H179060   5.569   4.928  14.401 -0.3552  0.0237  1.1857
19215TIP3    H279061   5.700   4.927  14.325 -0.8948 -0.5505  0.2374
19216TIP3   OH279062   1.935   1.905  17.146 -0.4131  0.3869  0.2158
19216TIP3    H179063   2.005   1.961  17.111  0.1114 -0.3766  0.0229
19216TIP3    H279064   1.857   1.932  17.098 -0.3311  1.4731  0.6601
19217TIP3   OH279065   2.347   5.611  15.723 -0.8736 -0.4026  0.3946
19217TIP3    H179066   2.384   5.593  15.636  0.6977 -0.4598  1.0556
19217TIP3    H279067   2.294   5.534  15.743 -1.4904 -0.2693 -0.6168
19218TIP3   OH279068   1.486   2.605  13.423  0.5090  0.2886 -0.0890
19218TIP3    H179069   1.546   2.539  13.389  1.4647  0.2379  1.5516
19218TIP3    H279070   1.469   2.577  13.513 -0.2580  1.4857  0.1611
19219TIP3   OH279071   0.427   3.292  14.517  0.0051 -0.2085  0.5140
19219TIP3    H179072   0.442   3.238  14.595  2.8258 -0.1403  0.1418
19219TIP3    H279073   0.344   3.336  14.534  0.2641 -0.5833  3.2786
19220TIP3   OH279074   6.614   2.972  14.881  0.1922  0.1349  0.3487
19220TIP3    H179075   6.692   2.968  14.825  0.5093 -0.9492  0.8380
19220TIP3    H279076   6.577   2.884  14.877 -2.0506  1.0691 -1.2832
19221TIP3   OH279077   4.981   4.955  13.160 -0.0087  0.2658 -0.0468
19221TIP3    H179078   4.970   4.914  13.074 -0.3430 -0.7816  0.4762
19221TIP3    H279079   5.054   5.016  13.149 -0.0737  0.1644 -1.0800
19222TIP3   OH279080   0.086   1.691  11.194  0.3769 -0.4836  0.1868
19222TIP3    H179081   0.118   1.626  11.131  0.0722 -1.2263  0.7925
19222TIP3    H279082   0.162   1.747  11.210  0.2182  0.2862 -1.5308
19223TIP3   OH279083   4.802   5.944   4.321  0.5113  0.5676 -0.3461
19223TIP3    H179084   4.891   5.922   4.349  0.4119 -0.5935 -0.8575
19223TIP3    H279085   4.779   5.875   4.258 -0.8345  0.7028 -0.0443
19224TIP3   OH279086   2.904   5.799  15.709 -0.6484 -0.2765  0.1634
19224TIP3    H179087   2.965   5.866  15.738 -1.0527 -0.3350  1.1934
19224TIP3    H279088   2.899   5.810  15.614 -1.0023  1.4059  0.3469
19225TIP3   OH279089   0.591   0.487  11.778  0.9550  0.5253  0.2677
19225TIP3    H179090   0.675   0.515  11.741 -0.1800  1.6552 -1.6228
19225TIP3    H279091   0.527   0.546  11.740 -1.1493 -2.3339 -1.0390
19226TIP3   OH279092   4.897   5.611  14.172  0.4375  0.2863 -0.4602
19226TIP3    H179093   4.909   5.609  14.077 -1.0251  0.8029 -0.6714
19226TIP3    H279094   4.804   5.594  14.185  0.7450 -0.4085  0.9237
19227TIP3   OH279095   1.948   2.747  12.687  0.1390 -0.4158 -0.2703
19227TIP3    H179096   1.879   2.748  12.621  0.8105 -1.2301 -0.9993
19227TIP3    H279097   2.022   2.791  12.645 -0.0821  0.9487  0.7011
19228TIP3   OH279098   3.533   6.093  14.511  0.3745  0.1102 -0.0519
19228TIP3    H179099   3.590   6.017  14.522  1.3916  0.8316 -0.1440
19228TIP3    H279100   3.586   6.155  14.459 -1.1553  0.0941 -1.7333
19229TIP3   OH279101   4.464   0.032  10.700 -0.4458  0.3264 -0.0688
19229TIP3    H179102   4.466   0.119  10.742  1.5049  0.6395 -0.7124
19229TIP3    H279103   4.525  -0.021  10.752  1.3005  0.4594 -1.8388
19230TIP3   OH279104   0.114   0.993  11.032 -0.0079  0.3897 -0.2163
19230TIP3    H179105   0.129   0.981  10.939  2.2640  0.9690  0.0103
19230TIP3    H279106   0.031   1.040  11.038 -0.6113 -0.4001 -1.8626
19231TIP3   OH279107   4.381   1.865  16.560  0.0785  0.4528 -0.2622
19231TIP3    H179108   4.303   1.867  16.616 -0.5597 -3.8870 -0.6528
19231TIP3    H279109   4.448   1.912  16.611 -1.3890 -0.2453  2.5297
19232TIP3   OH279110   2.049   5.265   3.117 -1.0565  0.0434  0.1049
19232TIP3    H179111   2.093   5.349   3.128 -0.8732  0.1511 -1.2080
19232TIP3    H279112   1.956   5.287   3.113 -0.9175  0.5301 -2.4657
19233TIP3   OH279113   0.679   1.355   1.679 -0.2806 -0.0013 -0.5959
19233TIP3    H179114   0.590   1.352   1.643 -0.3004  1.9141 -0.8032
19233TIP3    H279115   0.666   1.363   1.773 -0.3186 -0.1041 -0.5920
19234TIP3   OH279116   2.992   2.810   1.813 -0.3512  0.2055 -0.1432
19234TIP3    H179117   2.968   2.813   1.906  0.4026  0.1991  0.0592
19234TIP3    H279118   2.946   2.884   1.774 -2.3646 -1.0102 -0.1866
19235TIP3   OH279119   1.458   4.966   0.750  0.0017  0.4854 -0.1905
19235TIP3    H179120   1.516   4.890   0.742 -0.6254  0.0928 -1.0828
19235TIP3    H279121   1.441   4.994   0.660 -2.7435 -0.6168 -0.1126
19236TIP3   OH279122   0.244   5.978   3.394  0.0533 -0.1263  0.4559
19236TIP3    H179123   0.337   5.993   3.406  0.1225  0.3961 -0.6124
19236TIP3    H279124   0.240   5.899   3.340 -0.1289 -0.1401  0.4888
19237TIP3   OH279125   5.326   5.237   2.713 -0.0603  0.1506 -0.5567
19237TIP3    H179126   5.410   5.283   2.707 -0.4956  1.0934  0.2502
19237TIP3    H279127   5.302   5.220   2.622  0.7798  0.2753 -0.8165
19238TIP3   OH279128   1.397   5.975  11.325  0.2728 -0.6209  0.0728
19238TIP3    H179129   1.344   5.908  11.283  0.4921  0.9434 -2.9418
19238TIP3    H279130   1.451   5.927  11.388 -1.3481 -2.8744 -0.1442
19239TIP3   OH279131   0.354   6.328  12.135  0.1350 -0.3406  0.4871
19239TIP3    H179132   0.331   6.240  12.106 -1.4004 -0.0015  0.6040
19239TIP3    H279133   0.406   6.364  12.062  2.1238 -1.8341  1.0846
19240TIP3   OH279134   4.695   3.043  10.843  0.3076 -0.6280  0.2764
19240TIP3    H179135   4.671   3.132  10.814  1.2171 -0.2198  0.7589
19240TIP3    H279136   4.645   2.986  10.784 -0.6709  0.1920  0.2661
19241TIP3   OH279137   5.130   0.181   3.852  0.3015  0.3326  0.1435
19241TIP3    H179138   5.166   0.214   3.934 -2.7323  2.5350  0.7938
19241TIP3    H279139   5.166   0.240   3.785  0.6209  0.3174  0.3030
19242TIP3   OH279140   4.996   0.307   4.330  0.0002  0.4967  0.1249
19242TIP3    H179141   5.002   0.355   4.413  1.6789  0.2259  0.1999
19242TIP3    H279142   5.005   0.375   4.263 -0.3968  0.6101  0.1884
19243TIP3   OH279143   3.918   2.935  16.990  0.4927  0.4663  0.0715
19243TIP3    H179144   3.832   2.952  16.953  0.0452 -1.3263  0.1756
19243TIP3    H279145   3.980   2.977  16.930 -0.3577 -0.0354 -1.1901
19244TIP3   OH279146   0.730   4.604  14.581  0.3400 -0.1534  0.2944
19244TIP3    H179147   0.715   4.647  14.665 -0.4473 -1.2104  0.7100
19244TIP3    H279148   0.644   4.605  14.539  0.3212 -1.2594  0.2898
19245TIP3   OH279149   6.568   1.499   4.226 -0.0395  0.2098 -0.3651
19245TIP3    H179150   6.543   1.589   4.206 -1.3113 -0.0830 -0.1471
19245TIP3    H279151   6.630   1.475   4.157  0.7702  1.4283 -0.0958
19246TIP3   OH279152   5.569   2.198  15.734 -0.3313 -0.2356  0.1991
19246TIP3    H179153   5.530   2.244  15.659  2.7557 -1.5169 -2.4265
19246TIP3    H279154   5.642   2.254  15.760  0.3500 -1.1701  0.3380
19247TIP3   OH279155   4.635   3.488  15.953  0.6786 -0.5454  0.0972
19247TIP3    H179156   4.573   3.419  15.932 -1.0712  0.9322  0.1718
19247TIP3    H279157   4.719   3.457  15.918 -0.5619 -1.5389 -2.2017
19248TIP3   OH279158   4.720   2.332  16.659 -0.5398 -0.2789 -0.1394
19248TIP3    H179159   4.758   2.336  16.747 -1.3890  0.8556  0.2060
19248TIP3    H279160   4.780   2.277  16.609  1.1849  0.9052  0.5456
19249TIP3   OH279161   6.092   6.237  13.889  0.3028 -0.4245 -0.2439
19249TIP3    H179162   6.070   6.170  13.824 -1.1552 -0.4532  0.2408
19249TIP3    H279163   6.086   6.320  13.841  0.9573 -0.5623 -0.5638
19250TIP3   OH279164   0.889   2.132   0.579 -0.2139 -0.2270 -0.0034
19250TIP3    H179165   0.967   2.099   0.536  0.9369  2.0316  0.1791
19250TIP3    H279166   0.833   2.056   0.590  2.2757 -2.0994  0.5830
19251TIP3   OH279167   2.661   0.675  15.091  0.0037  0.8950 -0.2503
19251TIP3    H179168   2.672   0.770  15.099  1.2320  0.7627 -0.0461
19251TIP3    H279169   2.730   0.639  15.147  0.8369 -0.0980 -1.8341
19252TIP3   OH279170   1.845   1.723   0.462  0.1466 -0.1418 -0.1548
19252TIP3    H179171   1.875   1.814   0.457  0.9087 -0.3569  0.2731
19252TIP3    H279172   1.916   1.677   0.507  0.1534 -1.1259 -1.1225
19253TIP3   OH279173   6.551   0.373   1.122 -0.1532 -0.8487  0.5768
19253TIP3    H179174   6.596   0.329   1.195 -1.5917  2.0437  3.4906
19253TIP3    H279175   6.466   0.329   1.116  0.0296 -1.1987  0.5709
19254TIP3   OH279176   4.464   3.129  14.273 -0.6885 -0.0764  0.6922
19254TIP3    H179177   4.500   3.061  14.330  0.6185  0.0288  0.0340
19254TIP3    H279178   4.390   3.086  14.228 -1.8983 -0.0815  2.5922
19255TIP3   OH279179   6.006   4.308  12.596  0.7142  0.7829  0.3691
19255TIP3    H179180   6.041   4.230  12.638  0.3060  0.1892 -0.3631
19255TIP3    H279181   5.943   4.274  12.532 -0.8323  1.7828  1.2996
19256TIP3   OH279182   3.552   6.073  15.107  0.0680  0.5765  0.3637
19256TIP3    H179183   3.610   6.072  15.030 -0.8724  1.7910 -0.3981
19256TIP3    H279184   3.498   6.152  15.095 -2.3692 -0.9573  0.5787
19257TIP3   OH279185   6.385   3.120  13.144 -0.0271  0.0873 -0.3347
19257TIP3    H179186   6.363   3.212  13.154 -2.0490 -0.3637 -0.0813
19257TIP3    H279187   6.310   3.083  13.096  1.6858 -1.0345 -2.3139
19258TIP3   OH279188   4.006   0.335   0.187 -0.0530  0.4925  0.1878
19258TIP3    H179189   3.955   0.275   0.132 -0.6858 -0.8222  2.1226
19258TIP3    H279190   3.999   0.300   0.275  3.3434  0.8885  0.7569
19259TIP3   OH279191   2.229   4.821  12.575 -0.1415  0.1018 -0.5288
19259TIP3    H179192   2.251   4.728  12.565  1.1530  0.2809  0.3551
19259TIP3    H279193   2.224   4.834  12.670  0.0443  1.0094 -0.6378
19260TIP3   OH279194   6.658   4.801   6.040  0.3325 -0.3155 -0.1874
19260TIP3    H179195   6.618   4.873   5.991 -1.0530 -1.3381 -0.6564
19260TIP3    H279196   6.624   4.722   5.997  0.2444 -1.2561  1.5161
19261TIP3   OH279197   3.698   0.345  13.282 -0.0542  0.3172 -0.3874
19261TIP3    H179198   3.778   0.309  13.244  0.3230  0.3826  0.3422
19261TIP3    H279199   3.638   0.352  13.208  0.3700 -0.4086 -0.8129
19262TIP3   OH279200   1.441   2.566  13.708 -0.4128  0.1883  0.1330
19262TIP3    H179201   1.424   2.646  13.757  0.1577  0.0193  0.6102
19262TIP3    H279202   1.517   2.527  13.750 -0.0742 -0.0988 -0.7222
19263TIP3   OH279203   5.679   4.444   3.851 -0.3641 -0.2341 -0.7648
19263TIP3    H179204   5.641   4.404   3.773 -0.4545 -1.0395 -0.3200
19263TIP3    H279205   5.743   4.380   3.882  1.4235  1.1142 -1.5159
19264TIP3   OH279206   3.584   3.084   1.788  0.7563 -0.0462 -0.4579
19264TIP3    H179207   3.554   3.137   1.714 -0.8544  0.7060  0.6619
19264TIP3    H279208   3.670   3.052   1.762 -0.0829 -0.4364 -2.9557
19265TIP3   OH279209   0.692   2.615   3.754 -0.0357 -0.6812 -0.3381
19265TIP3    H179210   0.671   2.618   3.847 -1.9486 -0.0675 -0.7361
19265TIP3    H279211   0.708   2.522   3.736  0.7625 -0.7476  0.6661
19266TIP3   OH279212   6.444   5.665  14.340  0.3779 -0.0780  0.1228
19266TIP3    H179213   6.528   5.690  14.304 -0.6907 -0.9573 -3.3286
19266TIP3    H279214   6.458   5.578  14.378  0.7995 -0.7746 -1.5698
19267TIP3   OH279215   2.399   4.176  15.957  0.6732  0.0217 -0.2084
19267TIP3    H179216   2.470   4.160  15.895  0.0647  0.3863 -1.0227
19267TIP3    H279217   2.402   4.101  16.017  1.6267 -0.0499 -0.3345
19268TIP3   OH279218   6.161   4.118  12.146  0.0530  0.4864 -0.3131
19268TIP3    H179219   6.164   4.204  12.188 -0.9899 -0.2386  1.3515
19268TIP3    H279220   6.227   4.066  12.193  1.0305  0.4901 -1.6359
19269TIP3   OH279221   3.095   2.037  15.740 -0.0676  0.5372  0.6057
19269TIP3    H179222   3.058   2.072  15.821 -1.4210 -2.1036  1.2406
19269TIP3    H279223   3.160   2.102  15.714  0.2290  1.6307  3.6491
19270TIP3   OH279224   2.527   4.262   1.310 -0.0393 -0.1067  0.1979
19270TIP3    H179225   2.550   4.173   1.336  1.4994 -0.0863 -0.9897
19270TIP3    H279226   2.487   4.253   1.224  0.4643  0.3790 -0.0922
19271TIP3   OH279227   1.305   6.481  15.135  0.0535 -0.4632  0.7771
19271TIP3    H179228   1.370   6.551  15.143  0.8932 -0.9501 -1.1884
19271TIP3    H279229   1.223   6.521  15.163  1.0105  0.4543  2.4078
19272TIP3   OH279230   4.151   1.306  14.520 -0.2098  0.3507 -0.1720
19272TIP3    H179231   4.110   1.260  14.446  0.5796  1.2981 -1.2314
19272TIP3    H279232   4.245   1.291  14.508 -0.0538  0.7859  0.4619
19273TIP3   OH279233   6.086   0.348  14.678  0.0594  0.1836 -0.4935
19273TIP3    H179234   6.147   0.421  14.686 -0.7132  0.6849  1.2778
19273TIP3    H279235   6.039   0.364  14.596  0.4137  1.2730 -0.4890
19274TIP3   OH279236   2.956   5.712   4.390 -0.7572 -0.4309 -0.0678
19274TIP3    H179237   2.926   5.684   4.303  0.6148 -0.2609 -0.6115
19274TIP3    H279238   2.914   5.797   4.403  0.9704  0.7332 -1.6788
19275TIP3   OH279239   6.214   6.753   5.137  0.0222  0.4144  0.2253
19275TIP3    H179240   6.264   6.792   5.209  0.4385  0.6176 -0.1716
19275TIP3    H279241   6.280   6.726   5.074 -0.3098 -0.2844  0.1697
19276TIP3   OH279242   4.835   6.510   5.174  0.1680 -0.3535  0.2892
19276TIP3    H179243   4.843   6.538   5.083  1.5079  1.2364  0.8491
19276TIP3    H279244   4.924   6.486   5.200 -0.0811 -0.1152  1.3846
19277TIP3   OH279245   0.712   1.676   4.850 -0.5868  0.0687  0.0730
19277TIP3    H179246   0.627   1.698   4.888 -0.9127 -1.1123  0.0712
19277TIP3    H279247   0.725   1.583   4.871  0.4638  0.0944 -0.3776
19278TIP3   OH279248   4.717   5.366  14.109  0.6861 -0.0243  0.2816
19278TIP3    H179249   4.703   5.274  14.132  0.9400  0.1260  1.0854
19278TIP3    H279250   4.650   5.386  14.044  1.1380 -0.9981 -0.4942
19279TIP3   OH279251   1.054   4.717   3.353  0.1580  0.1716 -0.4502
19279TIP3    H179252   1.079   4.721   3.446  1.6692  1.9520 -0.8753
19279TIP3    H279253   1.115   4.655   3.314 -0.2919 -0.3555 -0.3395
19280TIP3   OH279254   5.938   5.603   1.802 -0.2826 -0.1211  0.8998
19280TIP3    H179255   6.005   5.665   1.772 -2.3191  0.7816 -2.3518
19280TIP3    H279256   5.881   5.655   1.859 -1.5910  0.9474 -1.2653
19281TIP3   OH279257   0.585   4.542  16.241 -0.1475  0.4218 -0.0406
19281TIP3    H179258   0.673   4.523  16.208  0.5990  0.2730  1.9123
19281TIP3    H279259   0.541   4.586  16.168  1.5764  0.6312 -1.0087
19282TIP3   OH279260   3.786   0.203   3.964 -0.4073  0.1066 -0.2905
19282TIP3    H179261   3.876   0.175   3.944 -0.0123 -0.5693  2.1428
19282TIP3    H279262   3.731   0.139   3.919  0.3307 -0.0606 -0.9982
19283TIP3   OH279263   2.235   5.583   5.301  0.3532 -0.0494  0.0472
19283TIP3    H179264   2.164   5.605   5.240  0.9089  0.5037 -0.4159
19283TIP3    H279265   2.224   5.644   5.374  1.0556  0.8438 -0.5814
19284TIP3   OH279266   6.312   2.658  11.757 -0.1437 -0.2048 -0.1327
19284TIP3    H179267   6.313   2.581  11.814  2.1326  0.4429  0.8375
19284TIP3    H279268   6.348   2.728  11.812 -4.0555  2.1902 -0.2436
19285TIP3   OH279269   6.808   1.050   4.697  0.5185  0.4787 -0.5530
19285TIP3    H179270   6.825   1.046   4.791 -0.4594  2.2324 -0.2720
19285TIP3    H279271   6.872   0.990   4.659  1.3326  0.1991  1.1673
19286TIP3   OH279272   1.482   4.784  16.298 -0.9028  0.0572 -0.0854
19286TIP3    H179273   1.461   4.697  16.263  1.8179 -1.6745  2.1005
19286TIP3    H279274   1.514   4.833  16.222 -1.2120 -1.3045 -1.1369
19287TIP3   OH279275   0.946   6.100   5.194  0.1556  0.1928 -0.1556
19287TIP3    H179276   0.855   6.110   5.220  0.2925  1.0822  0.0088
19287TIP3    H279277   0.961   6.005   5.196 -1.2918 -0.1171 -2.0481
19288TIP3   OH279278   0.121   0.452   1.891  0.3909  0.2600  0.0583
19288TIP3    H179279   0.087   0.480   1.806  1.4924  2.3199  0.2210
19288TIP3    H279280   0.098   0.524   1.951 -0.1162 -1.0176  1.4744
19289TIP3   OH279281   1.806   4.367   0.902  0.4480  0.5052  0.3311
19289TIP3    H179282   1.788   4.301   0.970 -1.1218 -0.4208 -0.9009
19289TIP3    H279283   1.729   4.365   0.846  1.4806  1.5905 -1.2159
19290TIP3   OH279284   6.229   0.592   0.028 -0.2841  0.1956  0.0262
19290TIP3    H179285   6.192   0.618   0.112 -0.0959  2.3731 -0.5071
19290TIP3    H279286   6.160   0.542  -0.015 -0.5156 -0.6231  1.3012
19291TIP3   OH279287   0.640   1.968  16.127 -0.0348 -0.2384 -0.3263
19291TIP3    H179288   0.708   2.000  16.186 -1.4951  0.8876  0.8312
19291TIP3    H279289   0.673   1.883  16.096  2.9974  1.3389 -1.8284
19292TIP3   OH279290   5.225   0.412   0.364 -0.2123  0.4531 -0.2374
19292TIP3    H179291   5.163   0.341   0.348 -1.1600  0.8946  1.2700
19292TIP3    H279292   5.182   0.490   0.331  1.7733  0.1425 -4.0255
19293TIP3   OH279293   2.841   0.860   6.074 -0.6715 -0.0072  0.4515
19293TIP3    H179294   2.782   0.931   6.101 -0.4089 -0.0127  1.0574
19293TIP3    H279295   2.873   0.887   5.988 -1.8713 -0.2046 -0.0791
19294TIP3   OH279296   1.550   2.390  17.104  0.1883  0.3150  0.8522
19294TIP3    H179297   1.461   2.423  17.090  0.8835  1.2362 -2.0708
19294TIP3    H279298   1.594   2.459  17.153  0.0393  1.1570 -0.1726
19295TIP3   OH279299   5.641   5.676  14.700 -0.0462 -0.5458 -0.1480
19295TIP3    H179300   5.609   5.657  14.611 -0.3905 -0.3516 -0.0679
19295TIP3    H279301   5.728   5.713  14.687  0.4872 -1.8142 -0.3363
19296TIP3   OH279302   4.658   6.225  11.720 -0.1304 -0.0296 -0.3355
19296TIP3    H179303   4.625   6.312  11.696 -2.7369 -1.1811 -1.2699
19296TIP3    H279304   4.731   6.209  11.660  1.3399  1.9950  0.7736
19297TIP3   OH279305   3.148   2.071  13.971  0.2638  0.2783 -0.0282
19297TIP3    H179306   3.222   2.113  13.928 -0.1994  0.3649 -0.7607
19297TIP3    H279307   3.159   2.093  14.063  2.4038 -1.6183  0.2562
19298TIP3   OH279308   5.137   4.614   2.381  0.1775  0.6537 -0.5312
19298TIP3    H179309   5.088   4.678   2.330 -0.0371  1.7085  0.9241
19298TIP3    H279310   5.105   4.625   2.471  1.0320 -0.6448 -0.0318
19299TIP3   OH279311   4.584   4.887   2.898 -0.3248 -0.0916  0.1683
19299TIP3    H179312   4.660   4.885   2.956  0.3045  0.1719 -0.6332
19299TIP3    H279313   4.508   4.885   2.957  0.2999  0.7771  1.0132
19300TIP3   OH279314   6.036   1.734   5.297  0.4384  0.2809  0.5698
19300TIP3    H179315   6.006   1.651   5.260 -1.3422  1.9148 -1.9800
19300TIP3    H279316   6.111   1.758   5.243  1.3719  0.0891  1.7284
19301TIP3   OH279317   2.641   6.134  12.320  0.0509 -0.2205  0.1803
19301TIP3    H179318   2.679   6.178  12.395  0.3565 -0.9020  0.4305
19301TIP3    H279319   2.614   6.205  12.261  1.7845  0.2852 -0.0456
19302TIP3   OH279320   0.769   4.187   0.991  0.2321 -0.3476 -0.2043
19302TIP3    H179321   0.861   4.203   1.013  0.1437  1.4216 -1.0000
19302TIP3    H279322   0.721   4.220   1.067  0.2224 -0.7978 -0.0117
19303TIP3   OH279323   6.690   0.555   3.001 -0.7495 -0.4635 -1.1265
19303TIP3    H179324   6.748   0.498   3.052  0.9185  1.5326 -0.6361
19303TIP3    H279325   6.636   0.599   3.067 -1.7591 -1.1331 -1.4744
19304TIP3   OH279326   3.501   0.037   1.283 -0.7336 -0.0217  0.5725
19304TIP3    H179327   3.521   0.130   1.294 -0.0584  0.1903 -1.8952
19304TIP3    H279328   3.523  -0.002   1.367 -0.8012  1.9992  1.5942
19305TIP3   OH279329   4.383   2.578  11.521 -0.2440 -0.8300  0.0615
19305TIP3    H179330   4.369   2.607  11.611  0.6833  1.1408 -0.3683
19305TIP3    H279331   4.475   2.551  11.518  0.3328  1.0782 -0.7369
19306TIP3   OH279332   5.769   0.843   1.004  0.1639 -0.1694  0.0023
19306TIP3    H179333   5.831   0.787   0.957 -0.0893  0.3130 -0.9248
19306TIP3    H279334   5.720   0.782   1.061  1.1986 -0.6072  0.4546
19307TIP3   OH279335   5.677   1.839  16.387 -0.5218 -0.0482 -0.1154
19307TIP3    H179336   5.685   1.892  16.467  0.4006  0.0269 -0.2496
19307TIP3    H279337   5.745   1.874  16.329 -1.6568  0.3895 -1.2214
19308TIP3   OH279338   2.862   3.185   2.843 -0.3284 -0.1181  0.2421
19308TIP3    H179339   2.866   3.281   2.850  0.5532 -0.2299  1.3347
19308TIP3    H279340   2.926   3.163   2.775 -1.4169  0.1368 -0.9155
19309TIP3   OH279341   4.056   3.775  14.119 -0.1997 -0.0888  0.2917
19309TIP3    H179342   3.987   3.713  14.093 -1.0806  0.7568  0.5694
19309TIP3    H279343   4.063   3.835  14.045  0.4402 -0.3382  0.1481
19310TIP3   OH279344   6.095   4.523  14.023 -0.4548  0.3989  0.1584
19310TIP3    H179345   6.036   4.567  13.962 -1.4834 -0.4864  0.4602
19310TIP3    H279346   6.060   4.544  14.110  0.3250  0.7354  0.4006
19311TIP3   OH279347   6.573   3.719   0.415  0.0096 -0.1623  0.1684
19311TIP3    H179348   6.653   3.771   0.414 -0.0863 -0.0303 -0.8191
19311TIP3    H279349   6.509   3.771   0.366 -0.8207 -0.0679  1.2976
19312TIP3   OH279350   1.758   4.538  15.045  0.0593  0.3775  0.2983
19312TIP3    H179351   1.675   4.497  15.024  0.3323  0.4733 -1.0666
19312TIP3    H279352   1.823   4.468  15.032  0.1777  0.1917  1.7288
19313TIP3   OH279353   5.533   5.304  13.070 -0.2879  0.0786 -0.2310
19313TIP3    H179354   5.626   5.325  13.062 -0.0313  0.1183  2.1693
19313TIP3    H279355   5.490   5.389  13.070 -0.0852  0.1970  0.8216
19314TIP3   OH279356   1.326   3.570  14.089  0.3780 -0.0651 -0.4460
19314TIP3    H179357   1.394   3.613  14.036  0.6701  0.2552  0.1766
19314TIP3    H279358   1.246   3.620  14.070  0.1408 -0.8636 -1.7072
19315TIP3   OH279359   5.610   3.431  14.883  0.4032 -0.4012 -0.0675
19315TIP3    H179360   5.544   3.427  14.813  1.0392 -0.9445 -0.6522
19315TIP3    H279361   5.559   3.444  14.963 -0.4649 -1.3704 -0.4338
19316TIP3   OH279362   1.327   1.432   5.966 -0.2975 -0.2882  0.8749
19316TIP3    H179363   1.411   1.412   6.008  0.5369  0.2502 -0.4834
19316TIP3    H279364   1.324   1.527   5.963 -0.8735 -0.3083  0.7306
19317TIP3   OH279365   2.428   0.827   5.790  0.4865 -0.0390 -0.1868
19317TIP3    H179366   2.419   0.744   5.836  1.2862 -0.1374 -0.1966
19317TIP3    H279367   2.519   0.829   5.761  0.1399  0.2788 -1.2773
19318TIP3   OH279368   1.352   6.104  15.724  0.5118  0.3132 -0.1480
19318TIP3    H179369   1.353   6.186  15.774  0.2754  1.1554 -1.4811
19318TIP3    H279370   1.266   6.067  15.742 -0.0048  1.1715 -0.7948
19319TIP3   OH279371   0.223   6.298   4.115 -0.1239  0.3545 -0.3977
19319TIP3    H179372   0.203   6.366   4.180  1.3564  0.6554 -0.2102
19319TIP3    H279373   0.318   6.288   4.120 -0.3939 -2.5613  0.3859
19320TIP3   OH279374   3.772   2.786   4.068  0.6735 -0.4351  0.4959
19320TIP3    H179375   3.803   2.877   4.062  1.3556 -0.7004 -0.1962
19320TIP3    H279376   3.803   2.757   4.154 -1.3863  0.6158  1.6853
19321TIP3   OH279377   6.633   5.370   4.697  0.2548  0.0508  0.4382
19321TIP3    H179378   6.623   5.444   4.758  0.4025  0.2779  0.1907
19321TIP3    H279379   6.724   5.342   4.708 -0.5107 -1.9469  2.6134
19322TIP3   OH279380   5.399   0.298  13.042 -0.3019 -0.6734  0.6532
19322TIP3    H179381   5.460   0.227  13.021  1.8845  1.6676 -1.6306
19322TIP3    H279382   5.323   0.283  12.986  0.1646 -1.1750  0.1468
19323TIP3   OH279383   5.645   2.734  10.794 -0.0311 -0.1956 -0.9549
19323TIP3    H179384   5.565   2.784  10.807  1.0047  1.4471 -0.5185
19323TIP3    H279385   5.702   2.761  10.867  1.0026 -1.1129 -1.3927
19324TIP3   OH279386   2.748   1.676   5.506  0.2282 -0.1164  0.0983
19324TIP3    H179387   2.741   1.584   5.532  0.5262  0.3964  2.1633
19324TIP3    H279388   2.824   1.709   5.555 -1.5050  1.8913  1.5973
19325TIP3   OH279389   4.191   6.110   5.086  0.2696 -0.3565 -0.6343
19325TIP3    H179390   4.219   6.172   5.154  3.5847  1.3009 -3.1759
19325TIP3    H279391   4.257   6.040   5.090  1.0758  0.2320 -2.5949
19326TIP3   OH279392   5.193   5.531   2.603 -0.2484 -0.1075 -0.3858
19326TIP3    H179393   5.227   5.574   2.682 -0.5385  2.2461 -1.4624
19326TIP3    H279394   5.243   5.569   2.531 -0.4532 -1.7113 -1.4204
19327TIP3   OH279395   5.655   3.063   4.066 -0.0542  0.0770  0.0295
19327TIP3    H179396   5.640   3.142   4.015  0.3951  1.2964  1.6979
19327TIP3    H279397   5.569   3.042   4.103  0.1862  1.0017  1.1948
19328TIP3   OH279398   1.581   0.093   3.191 -0.3280 -0.3217 -0.2698
19328TIP3    H179399   1.620   0.050   3.115 -0.9648 -1.2136 -0.1156
19328TIP3    H279400   1.587   0.028   3.261 -1.3047 -0.1705 -0.0249
19329TIP3   OH279401   0.583   0.926  14.181  0.1518  0.1425  0.4375
19329TIP3    H179402   0.570   0.914  14.275  0.2922  0.1406  0.4576
19329TIP3    H279403   0.640   1.003  14.174  1.7286 -0.9667  0.4473
19330TIP3   OH279404   4.233   2.784  14.263 -0.2666  0.2754 -0.1386
19330TIP3    H179405   4.248   2.692  14.285  0.3472 -0.0801 -1.8920
19330TIP3    H279406   4.226   2.828  14.348 -2.3996 -1.6321  0.7923
19331TIP3   OH279407   3.922   5.039  12.423  0.1622  0.5304  0.4659
19331TIP3    H179408   3.869   5.115  12.400  0.6915  0.9411  0.5634
19331TIP3    H279409   3.873   4.995  12.492  0.1443  1.1362  0.8523
19332TIP3   OH279410   3.791   4.278   5.462 -0.8773  0.0559  0.9297
19332TIP3    H179411   3.848   4.291   5.385 -0.5431 -0.1091  1.1449
19332TIP3    H279412   3.849   4.293   5.537 -1.6398  2.0855  1.1676
19333TIP3   OH279413   3.238   6.073  13.043 -0.7178 -0.4280  0.0647
19333TIP3    H179414   3.157   6.097  12.998 -0.9494 -2.0784 -0.4621
19333TIP3    H279415   3.242   5.978  13.037  1.2686 -0.3947  0.0875
19334TIP3   OH279416   5.209   5.645  15.768 -0.4717 -0.4736  0.0105
19334TIP3    H179417   5.235   5.733  15.794 -0.8347 -0.6704  1.0735
19334TIP3    H279418   5.173   5.656  15.680  0.2618  0.2926 -0.2077
19335TIP3   OH279419   3.220   0.266  15.377 -0.5342 -1.0356  0.0171
19335TIP3    H179420   3.129   0.291  15.392 -0.6415 -1.5225  0.1986
19335TIP3    H279421   3.269   0.314  15.444 -0.3242  1.3155 -1.7179
19336TIP3   OH279422   2.624   4.800   3.848 -0.4645 -0.1296 -0.1728
19336TIP3    H179423   2.618   4.732   3.781  0.2726 -0.8303  0.4602
19336TIP3    H279424   2.645   4.880   3.800 -0.6086 -0.4938 -0.8457
19337TIP3   OH279425   6.255   6.646  12.799  0.8675  0.3136  0.2623
19337TIP3    H179426   6.349   6.629  12.808  0.6965 -0.2486  1.0289
19337TIP3    H279427   6.238   6.720  12.857  0.4180 -1.0851  1.9992
19338TIP3   OH279428   5.227   4.886  15.481 -0.1229  0.5821 -0.0141
19338TIP3    H179429   5.245   4.792  15.472  0.5385  0.7028  0.0084
19338TIP3    H279430   5.143   4.898  15.436  0.9996  0.4036 -2.2970
19339TIP3   OH279431   2.154   0.637   3.636  0.4486 -0.3136  0.0641
19339TIP3    H179432   2.065   0.638   3.602 -0.0682 -0.5021  1.3615
19339TIP3    H279433   2.155   0.565   3.698  0.5232  1.7111  2.5718
19340TIP3   OH279434   5.643   2.044   0.075 -0.5808  0.0880 -0.5480
19340TIP3    H179435   5.721   2.089   0.108 -0.7896  0.5855 -0.7202
19340TIP3    H279436   5.573   2.109   0.084 -1.1019 -0.5540  0.1671
19341TIP3   OH279437   6.209   6.796   0.081  0.3133 -0.0201 -0.2034
19341TIP3    H179438   6.220   6.706   0.048 -2.0474  0.1093 -1.6002
19341TIP3    H279439   6.170   6.785   0.168 -0.4026 -0.3914 -0.5570
19342TIP3   OH279440   6.542   3.311  13.484  0.0104 -0.5418  0.6268
19342TIP3    H179441   6.555   3.346  13.396  1.2526 -0.8034  0.6888
19342TIP3    H279442   6.581   3.223  13.481 -2.9505 -1.9724  0.4954
19343TIP3   OH279443   2.415   5.121  11.247 -0.0358  0.0548 -0.3578
19343TIP3    H179444   2.372   5.173  11.316  0.7395  1.2571 -0.7474
19343TIP3    H279445   2.344   5.098  11.187 -0.1650  2.2325 -1.1292
19344TIP3   OH279446   3.734   2.776  16.677  0.0620 -0.0485  0.5434
19344TIP3    H179447   3.705   2.697  16.631  1.2032 -0.4022  0.3941
19344TIP3    H279448   3.763   2.745  16.762  0.6609  0.1834  0.4282
19345TIP3   OH279449   5.649   2.666  12.232 -0.0850 -0.9256  0.0472
19345TIP3    H179450   5.595   2.650  12.309  1.3110  1.2054  1.5820
19345TIP3    H279451   5.731   2.619  12.250  1.3657  1.8842  1.3459
19346TIP3   OH279452   5.597   5.794  15.018 -0.3295 -0.1708  0.9219
19346TIP3    H179453   5.621   5.763  14.930  0.7041  2.4405  0.1943
19346TIP3    H279454   5.658   5.749  15.076  0.4453 -0.2906  0.0495
19347TIP3   OH279455   3.809   3.229   3.122 -0.6548 -0.7927  0.1330
19347TIP3    H179456   3.755   3.289   3.173  0.1872 -0.4907  0.6915
19347TIP3    H279457   3.897   3.267   3.126 -0.1751 -1.8749  0.1955
19348TIP3   OH279458   4.009   6.065   2.474 -0.2158 -0.4606  0.1813
19348TIP3    H179459   3.964   6.098   2.397 -3.2918 -3.2275  0.5775
19348TIP3    H279460   4.069   5.998   2.441 -0.5795 -0.7324  0.0672
19349TIP3   OH279461   1.310   1.115   2.304 -0.2117  0.2442 -0.0296
19349TIP3    H179462   1.396   1.103   2.263 -1.3662 -3.1818 -1.8692
19349TIP3    H279463   1.256   1.154   2.235 -0.3999  1.6487  0.8656
19350TIP3   OH279464   4.704   0.119  13.704 -0.5076  0.7227 -0.3958
19350TIP3    H179465   4.794   0.143  13.682 -0.5896  0.3479 -1.1820
19350TIP3    H279466   4.704   0.023  13.703 -0.7433  0.7142  0.3234
19351TIP3   OH279467   3.396   1.291  13.882  0.2995 -0.0001  0.2543
19351TIP3    H179468   3.483   1.300  13.845  0.0815 -1.5776 -0.7454
19351TIP3    H279469   3.346   1.246  13.814 -0.8050 -0.7225  1.5027
19352TIP3   OH279470   1.491   5.401   4.530 -0.0969 -0.2431  0.3954
19352TIP3    H179471   1.582   5.374   4.526 -0.2202 -0.6315  0.2510
19352TIP3    H279472   1.441   5.328   4.493 -0.3381  0.6675 -1.1358
19353TIP3   OH279473   6.645   2.993  15.173  0.5178  0.4239  0.5491
19353TIP3    H179474   6.550   2.979  15.165  0.7335 -0.5565 -0.5928
19353TIP3    H279475   6.681   2.957  15.093  1.8132  1.4870  0.6275
19354TIP3   OH279476   0.908   0.080   5.658 -0.5113 -0.4093  0.3167
19354TIP3    H179477   0.835   0.099   5.600 -1.7696 -0.3677  1.8351
19354TIP3    H279478   0.939   0.165   5.688  0.6259 -0.3958 -0.8326
19355TIP3   OH279479   3.570   4.983   0.704  0.1661  0.3300  0.1104
19355TIP3    H179480   3.541   4.919   0.639 -0.6840 -0.3890  1.1597
19355TIP3    H279481   3.531   5.066   0.676  3.4496  1.1399 -2.8202
19356TIP3   OH279482   0.558   5.648  14.258  0.2948 -0.3195  0.2855
19356TIP3    H179483   0.615   5.626  14.184  0.7884  0.9158  0.2757
19356TIP3    H279484   0.573   5.577  14.320  2.4839  0.3438  0.6151
19357TIP3   OH279485   2.781   5.442   5.072  0.4063  0.0200  0.2394
19357TIP3    H179486   2.709   5.475   5.126 -0.3856  2.2973 -1.9965
19357TIP3    H279487   2.743   5.369   5.023 -0.5621  1.3852 -1.1351
19358TIP3   OH279488   2.831   1.157  12.048  0.6046 -0.0191  0.0823
19358TIP3    H179489   2.910   1.118  12.084  0.6787 -0.6255 -0.7356
19358TIP3    H279490   2.792   1.089  11.993 -0.7278  0.1047  0.8084
19359TIP3   OH279491   3.328   0.968   0.699 -0.2385  0.2641 -0.4200
19359TIP3    H179492   3.233   0.964   0.698 -0.2440  0.0679  0.3427
19359TIP3    H279493   3.354   0.940   0.611 -0.7879 -2.4099  0.1780
19360TIP3   OH279494   1.496   6.506  14.188 -0.0846 -0.5284  0.1527
19360TIP3    H179495   1.446   6.537  14.264 -2.1966  0.3185 -1.4780
19360TIP3    H279496   1.491   6.578  14.125  0.4401 -1.7161 -1.2964
19361TIP3   OH279497   5.806   4.874  14.937  0.9497  0.1685  0.3512
19361TIP3    H179498   5.821   4.865  14.843  1.4378 -0.2192  0.4643
19361TIP3    H279499   5.836   4.963  14.957  1.9455 -0.1508  0.3401
19362TIP3   OH279500   6.739   4.600  13.653 -0.6154 -0.0913  0.1488
19362TIP3    H179501   6.690   4.530  13.697 -0.5223  0.5439  1.3099
19362TIP3    H279502   6.828   4.591  13.686  0.0542 -1.0613 -1.7412
19363TIP3   OH279503   1.239   3.164   5.481 -0.3811 -0.1949  0.1062
19363TIP3    H179504   1.221   3.078   5.443  0.1477  0.1397 -0.9589
19363TIP3    H279505   1.286   3.145   5.563  0.8271 -0.9223 -0.7196
19364TIP3   OH279506   1.836   0.964  12.146  0.4836  0.4093 -0.0828
19364TIP3    H179507   1.895   0.904  12.192  0.9328  0.4311 -0.6154
19364TIP3    H279508   1.880   1.049  12.150  1.0272  0.2067 -1.4249
19365TIP3   OH279509   2.663   6.114   0.241 -0.5831  0.0360  0.5920
19365TIP3    H179510   2.614   6.051   0.294 -1.4396 -0.4364 -0.7208
19365TIP3    H279511   2.612   6.122   0.160  1.5863 -0.5678 -0.8975
19366TIP3   OH279512   0.093   2.556   6.054 -0.6447 -0.2882 -0.3906
19366TIP3    H179513   0.150   2.587   6.124  2.0401 -0.6576 -2.2996
19366TIP3    H279514   0.005   2.556   6.094  0.6207  0.1979  2.7034
19367TIP3   OH279515   0.105   6.286  14.549  0.2024 -0.2147  0.1878
19367TIP3    H179516   0.194   6.318  14.561  0.1291  1.1411 -2.2836
19367TIP3    H279517   0.052   6.337  14.610  0.9475 -0.1299  0.7672
19368TIP3   OH279518   0.416   0.896   5.802 -0.3484  0.9381 -0.3236
19368TIP3    H179519   0.464   0.973   5.768 -2.0733  2.3704  0.3299
19368TIP3    H279520   0.445   0.888   5.892  0.6090  0.1314 -0.6808
19369TIP3   OH279521   4.540   2.272  11.770 -0.0473 -0.0376 -0.0919
19369TIP3    H179522   4.601   2.221  11.823 -1.0579  0.8002  2.0013
19369TIP3    H279523   4.472   2.209  11.744  1.5081 -0.9375 -2.3043
19370TIP3   OH279524   1.697   4.295   4.354 -0.0535 -0.2049  0.2004
19370TIP3    H179525   1.704   4.387   4.329  2.8418 -0.0433  1.2238
19370TIP3    H279526   1.787   4.262   4.350 -0.9844 -2.9598  0.0496
19371TIP3   OH279527   1.068   4.538  13.135  0.2723 -0.0956 -0.9120
19371TIP3    H179528   1.131   4.567  13.201  0.3293  0.5098 -1.2309
19371TIP3    H279529   0.982   4.553  13.176  0.3245 -1.0020 -0.4439
19372TIP3   OH279530   4.937   2.212  13.522 -0.1229  0.5060 -0.6475
19372TIP3    H179531   4.870   2.269  13.559 -0.7993 -0.6997  0.0471
19372TIP3    H279532   4.995   2.192  13.595 -0.1185  0.0029 -0.7780
19373TIP3   OH279533   2.005   2.494   2.410 -0.0733 -0.1462 -0.2676
19373TIP3    H179534   1.972   2.581   2.388 -0.2774  0.0927  0.9050
19373TIP3    H279535   2.059   2.508   2.487 -2.5526 -1.4146  1.8634
19374TIP3   OH279536   3.414   4.841   1.780 -0.6139  0.4703 -0.2885
19374TIP3    H179537   3.476   4.901   1.822 -2.6026  1.4866  1.3440
19374TIP3    H279538   3.431   4.756   1.821  0.3007  0.5179 -0.5491
19375TIP3   OH279539   2.596   3.945  12.203 -0.1432 -0.9567  0.1897
19375TIP3    H179540   2.667   3.976  12.147  0.1032 -1.4697  0.2143
19375TIP3    H279541   2.621   3.856  12.228 -1.3101 -1.5836 -0.7244
19376TIP3   OH279542   2.068   1.482   0.832 -0.0292  0.4271 -0.3534
19376TIP3    H179543   2.035   1.410   0.778 -2.0862  0.6379  0.5539
19376TIP3    H279544   2.080   1.444   0.919 -1.0316  1.1304  0.1100
19377TIP3   OH279545   1.681   5.298  11.423 -0.3080 -0.1252 -0.2055
19377TIP3    H179546   1.591   5.267  11.427 -1.0026  1.3735 -2.4889
19377TIP3    H279547   1.704   5.317  11.514 -2.6603  0.4064  0.3406
19378TIP3   OH279548   6.329   1.296  12.331  0.1166 -0.2026 -0.1394
19378TIP3    H179549   6.379   1.314  12.252  1.4105 -0.0395  0.6856
19378TIP3    H279550   6.311   1.203  12.328 -1.0346  0.0371 -1.2851
19379TIP3   OH279551   1.301   2.936   6.040 -0.3617 -0.2343 -0.2582
19379TIP3    H179552   1.376   2.881   6.064  0.6209 -0.2122 -2.9448
19379TIP3    H279553   1.341   3.017   6.007 -1.7391  1.3974  1.7545
19380TIP3   OH279554   2.524   2.028  14.783  0.2323  0.7319 -0.4612
19380TIP3    H179555   2.613   2.017  14.752  0.2581  0.1896 -0.2123
19380TIP3    H279556   2.533   2.066  14.871  0.2565 -0.0664 -0.1079
19381TIP3   OH279557   3.102   1.171   4.465 -0.1427 -0.2798  0.0298
19381TIP3    H179558   3.157   1.132   4.397  0.5113 -0.6099  0.7287
19381TIP3    H279559   3.114   1.265   4.454  1.6474 -0.3491  0.9982
19382TIP3   OH279560   2.561   2.003   1.674  0.0701  0.1793  0.4793
19382TIP3    H179561   2.605   1.921   1.650  1.8721  1.2593 -0.1061
19382TIP3    H279562   2.574   2.059   1.598  0.1067  1.4769  1.4165
19383TIP3   OH279563   4.267   4.899  16.429  0.6630  0.0776 -0.3331
19383TIP3    H179564   4.214   4.971  16.465  0.6481 -1.0107  1.9843
19383TIP3    H279565   4.357   4.924  16.446  0.6372 -0.7143  1.1430
19384TIP3   OH279566   1.723   6.154  15.155 -0.4653  0.4990 -0.7361
19384TIP3    H179567   1.678   6.103  15.088 -0.6021  0.3199 -0.5129
19384TIP3    H279568   1.706   6.245  15.132 -0.5618  0.4362 -0.9111
19385TIP3   OH279569   1.883   2.574   0.676  0.0886 -0.0162 -0.4385
19385TIP3    H179570   1.968   2.617   0.681 -0.6661  1.4788  0.2283
19385TIP3    H279571   1.875   2.526   0.759 -0.2515  0.9150  0.0771
19386TIP3   OH279572   3.354   3.057  16.141  0.2681  0.4256  0.1264
19386TIP3    H179573   3.362   3.152  16.125 -1.6155  0.4923 -0.7036
19386TIP3    H279574   3.434   3.034  16.187  1.2693  2.2322 -0.5863
19387TIP3   OH279575   6.219   6.210  12.622  0.1082 -0.0631 -0.1681
19387TIP3    H179576   6.279   6.187  12.694  0.8496  0.3160 -0.6485
19387TIP3    H279577   6.149   6.146  12.628 -0.0942  0.2470  1.1941
19388TIP3   OH279578   5.701   6.330   0.522 -0.4073 -0.6942 -0.5570
19388TIP3    H179579   5.647   6.354   0.447  0.0764  0.0089 -0.6886
19388TIP3    H279580   5.672   6.387   0.592 -0.5446 -1.0364 -0.3311
19389TIP3   OH279581   1.233   1.949  10.642  0.2016  0.2343  0.2001
19389TIP3    H179582   1.230   2.020  10.707  1.2907  2.1234 -1.7138
19389TIP3    H279583   1.168   1.974  10.576 -2.5901 -2.7936  1.4707
19390TIP3   OH279584   2.583   3.634   4.785  0.0914 -0.2638 -0.6428
19390TIP3    H179585   2.631   3.551   4.787 -0.1938 -0.4156  0.9231
19390TIP3    H279586   2.491   3.608   4.793  0.0957  0.2477  1.4482
19391TIP3   OH279587   2.491   5.077   1.501 -0.3482  0.8987  0.6141
19391TIP3    H179588   2.543   5.144   1.457  0.3202  0.7005  1.0793
19391TIP3    H279589   2.501   4.999   1.447  0.1612  0.7581  0.9031
19392TIP3   OH279590   4.952   5.515  14.624  0.4896  0.3630  0.1950
19392TIP3    H179591   4.922   5.473  14.543  1.1738 -2.8500  1.4425
19392TIP3    H279592   5.028   5.567  14.597  1.2607 -1.3510 -1.1675
19393TIP3   OH279593   3.687   4.947   2.932 -0.1717 -0.5240 -0.1692
19393TIP3    H179594   3.648   4.946   3.019  2.5593  1.4295  1.2051
19393TIP3    H279595   3.770   4.901   2.942 -0.3534 -1.3680 -2.1003
19394TIP3   OH279596   4.970   3.966   3.005 -0.0515 -0.1802 -0.1076
19394TIP3    H179597   5.036   4.034   2.990 -0.1315 -0.3002 -1.0220
19394TIP3    H279598   4.931   3.950   2.919 -0.3277 -1.0887  0.1734
19395TIP3   OH279599   2.637   0.030   2.549 -0.5439  0.3882 -0.7390
19395TIP3    H179600   2.575   0.095   2.581 -0.2281 -0.5132  1.9524
19395TIP3    H279601   2.656  -0.024   2.626  1.9265 -0.6724 -2.0019
19396TIP3   OH279602   0.480   5.600   5.420  0.5106 -0.4410  0.6164
19396TIP3    H179603   0.442   5.546   5.350 -0.1664  0.5158  0.2277
19396TIP3    H279604   0.565   5.559   5.438  0.1334 -1.4710  0.1434
19397TIP3   OH279605   5.546   1.332  11.300 -0.6285  0.5720  0.2329
19397TIP3    H179606   5.468   1.281  11.278 -0.3600  0.3235 -0.1488
19397TIP3    H279607   5.540   1.345  11.395 -1.9000  1.8172  0.0180
19398TIP3   OH279608   4.975   4.888  12.102 -0.1921 -0.4456 -0.2033
19398TIP3    H179609   4.968   4.913  12.010  1.2023 -0.1052 -0.2377
19398TIP3    H279610   5.009   4.798  12.100 -0.4758 -0.5565 -0.0286
19399TIP3   OH279611   4.650   6.547   7.040  0.5634  0.4029  0.1133
19399TIP3    H179612   4.708   6.515   6.971 -0.7564  1.2022 -1.4416
19399TIP3    H279613   4.664   6.642   7.041 -1.1060  0.6953 -0.7351
19400TIP3   OH279614   6.515   5.948   1.726 -0.0474  0.0269 -0.1344
19400TIP3    H179615   6.493   5.928   1.635  0.3264 -0.6263 -0.0861
19400TIP3    H279616   6.599   5.904   1.740 -0.5064 -0.5716  0.7780
19401TIP3   OH279617   3.201   5.746   2.092 -0.6700 -0.1535 -0.2942
19401TIP3    H179618   3.201   5.777   2.002 -1.9364  0.4154 -0.1070
19401TIP3    H279619   3.209   5.651   2.084  0.9575 -0.0001 -0.9299
19402TIP3   OH279620   4.437   4.418  12.625 -0.7591  0.4254 -0.0929
19402TIP3    H179621   4.436   4.411  12.530 -0.3731  1.9209 -0.2383
19402TIP3    H279622   4.435   4.328  12.656  0.0766 -0.1188 -1.5268
19403TIP3   OH279623   3.522   0.693  15.477 -0.2442 -0.0818  0.4681
19403TIP3    H179624   3.570   0.618  15.512  0.4088 -0.6989 -1.6416
19403TIP3    H279625   3.565   0.769  15.516  0.5917 -0.7255  0.8233
19404TIP3   OH279626   1.272   0.735   2.282 -0.4543  0.2952 -0.4909
19404TIP3    H179627   1.214   0.673   2.236 -0.7228 -0.9510  1.4010
19404TIP3    H279628   1.326   0.773   2.213 -1.5148 -0.7238 -1.9480
19405TIP3   OH279629   0.725   6.050  15.832 -0.5683  0.0470  0.5541
19405TIP3    H179630   0.765   5.993  15.766 -1.2271  0.4784 -0.2344
19405TIP3    H279631   0.657   5.997  15.872 -1.8187  0.5369 -0.8307
19406TIP3   OH279632   2.695   5.526  16.376 -0.0169  0.1139 -0.1216
19406TIP3    H179633   2.675   5.443  16.420  0.0306 -0.4688 -1.1473
19406TIP3    H279634   2.612   5.574  16.376 -0.0507  0.0545  0.4631
19407TIP3   OH279635   2.140   6.063   2.812  0.0247 -0.1274 -0.0460
19407TIP3    H179636   2.227   6.050   2.774 -0.0919  1.6587 -1.0291
19407TIP3    H279637   2.081   6.067   2.737 -0.9813 -1.5581  0.6156
19408TIP3   OH279638   5.948   4.858   5.291  0.1172 -0.9034  0.5716
19408TIP3    H179639   5.881   4.790   5.297 -1.4068  0.6308  2.1449
19408TIP3    H279640   6.009   4.826   5.225 -1.3451 -3.0803  0.1770
19409TIP3   OH279641   5.458   3.689  10.738 -0.7838  0.4948 -0.3855
19409TIP3    H179642   5.440   3.604  10.699  0.0117 -0.1375  0.5758
19409TIP3    H279643   5.471   3.748  10.664  0.5844 -0.6469 -1.0949
19410TIP3   OH279644   3.494   2.375  12.790 -0.0161 -0.0519 -0.3749
19410TIP3    H179645   3.407   2.392  12.754 -0.8909 -1.3500  1.0363
19410TIP3    H279646   3.547   2.449  12.760 -2.3228  2.4494  1.2812
19411TIP3   OH279647   6.206   1.300  15.482  0.5703 -0.1031  0.0013
19411TIP3    H179648   6.238   1.272  15.568  0.5746  0.4764  0.1915
19411TIP3    H279649   6.227   1.393  15.478  2.8874 -0.6125 -1.6490
19412TIP3   OH279650   4.985   1.729   1.956  0.3206 -0.5118  0.0221
19412TIP3    H179651   4.975   1.651   2.011 -1.3565 -1.6094 -1.7214
19412TIP3    H279652   4.996   1.801   2.019 -1.0833 -1.7426  1.7887
19413TIP3   OH279653   6.346   3.367   6.098  0.1174  0.4079 -0.6007
19413TIP3    H179654   6.427   3.387   6.146 -0.0681 -0.7952  0.2654
19413TIP3    H279655   6.373   3.362   6.006  0.9893  0.2277 -0.3449
19414TIP3   OH279656   3.046   4.113   3.702  0.1300 -0.5257 -0.0419
19414TIP3    H179657   3.041   4.186   3.763  1.0859 -0.1906 -0.3490
19414TIP3    H279658   3.053   4.154   3.616 -1.3098 -0.9905 -0.4090
19415TIP3   OH279659   6.170   0.131   0.936  0.6333 -0.2152 -0.4648
19415TIP3    H179660   6.183   0.049   0.888 -2.7756 -1.3649  0.3124
19415TIP3    H279661   6.087   0.166   0.903  1.2930  2.2491  0.2293
19416TIP3   OH279662   3.406   6.632   2.505  0.2951 -0.5634  0.7347
19416TIP3    H179663   3.474   6.693   2.478 -0.8531  0.3115 -0.2962
19416TIP3    H279664   3.414   6.628   2.601  1.0457  0.4232  0.7283
19417TIP3   OH279665   3.553   6.114   4.395  0.2731 -0.0022  0.6036
19417TIP3    H179666   3.638   6.153   4.374  0.1132  1.3387  2.2075
19417TIP3    H279667   3.564   6.079   4.484 -0.0042 -2.5379 -0.2691
19418TIP3   OH279668   0.643   1.123  13.179  0.0506  0.5753 -0.3228
19418TIP3    H179669   0.596   1.203  13.203  0.1172  0.8558 -1.1065
19418TIP3    H279670   0.575   1.055  13.180 -0.3351  0.9418 -1.2516
19419TIP3   OH279671   0.803   0.195   3.940 -0.2419  0.3260  0.3118
19419TIP3    H179672   0.734   0.155   3.887 -0.5694  4.0526 -2.4184
19419TIP3    H279673   0.882   0.186   3.888  0.7594 -1.0035  1.9480
19420TIP3   OH279674   3.117   2.869   4.068 -0.0283  0.0992  0.1762
19420TIP3    H179675   3.069   2.867   3.985  0.8899  0.7304 -0.3924
19420TIP3    H279676   3.207   2.892   4.042  0.7882 -1.7747  1.0926
19421TIP3   OH279677   2.670   2.071   5.167  0.4917  0.8015  0.2894
19421TIP3    H179678   2.749   2.049   5.218  0.6953  1.3292  0.2059
19421TIP3    H279679   2.700   2.074   5.076 -0.2342 -1.9562 -0.1346
19422TIP3   OH279680   1.793   6.086  12.337 -0.4966  0.0943 -0.5690
19422TIP3    H179681   1.748   6.038  12.407 -2.4043 -0.1503 -1.8995
19422TIP3    H279682   1.735   6.160  12.318 -0.1546 -0.0033 -2.0656
19423TIP3   OH279683   1.551   4.680   1.325 -0.2939 -0.4558 -0.8578
19423TIP3    H179684   1.528   4.733   1.249 -0.0392 -0.0415 -0.6471
19423TIP3    H279685   1.640   4.708   1.348 -1.2401  1.1855  1.0832
19424TIP3   OH279686   2.362   0.422  14.510  0.3859  0.0884 -0.3574
19424TIP3    H179687   2.333   0.347  14.562  0.6115  0.0393 -0.3012
19424TIP3    H279688   2.301   0.492  14.532 -1.0426 -0.6104 -1.8637
19425TIP3   OH279689   3.086   6.727   4.696 -0.1044  0.0500  0.1004
19425TIP3    H179690   3.118   6.717   4.785 -1.2525  0.6744  0.6150
19425TIP3    H279691   3.060   6.639   4.669 -2.7489  0.2698  1.6205
19426TIP3   OH279692   2.802   1.727  17.097 -0.1400  0.3103  0.3710
19426TIP3    H179693   2.838   1.717  17.008 -1.6022 -1.3615 -0.0896
19426TIP3    H279694   2.851   1.663  17.149 -1.1731 -0.7426  0.1094
19427TIP3   OH279695   2.706   0.158  12.959 -1.1806 -0.8841 -0.0548
19427TIP3    H179696   2.694   0.064  12.974 -0.0290 -0.9300  0.6709
19427TIP3    H279697   2.732   0.164  12.867 -0.1149 -1.3988  0.1997
19428TIP3   OH279698   1.841   1.207  11.424  0.0116  0.7056  0.2278
19428TIP3    H179699   1.827   1.167  11.338 -0.8608  0.3755  0.5043
19428TIP3    H279700   1.756   1.246  11.446  0.2843  0.9661  0.8422
19429TIP3   OH279701   0.662   3.561   3.910 -0.5859 -0.3667  0.6745
19429TIP3    H179702   0.683   3.601   3.826 -0.8220  0.9877  1.2265
19429TIP3    H279703   0.589   3.502   3.891 -2.1632  1.5960  0.2559
19430TIP3   OH279704   5.811   0.032  16.882  0.0578  0.3035 -0.0416
19430TIP3    H179705   5.730   0.024  16.933 -0.5817  1.5298 -0.8060
19430TIP3    H279706   5.802   0.116  16.836  0.9306 -0.4057 -1.5958
19431TIP3   OH279707   2.074   6.544   5.205  0.0009  0.0224  0.3710
19431TIP3    H179708   2.046   6.593   5.128  1.7730 -0.3118 -0.5399
19431TIP3    H279709   1.994   6.534   5.257 -0.8235  2.0530 -0.3958
19432TIP3   OH279710   4.918   2.784   4.602 -0.0480  0.5705 -0.2065
19432TIP3    H179711   4.876   2.750   4.523 -1.8701  1.9688  0.1022
19432TIP3    H279712   4.898   2.719   4.669 -1.6136  1.0990 -0.1182
19433TIP3   OH279713   2.516   0.466   2.000 -0.0201 -0.2146  0.6558
19433TIP3    H179714   2.438   0.502   2.041 -0.3073 -1.0146  0.8310
19433TIP3    H279715   2.524   0.378   2.036  0.7312 -0.2884  0.3314
19434TIP3   OH279716   2.100   3.653   0.440  0.3135 -0.2314  0.7410
19434TIP3    H179717   2.150   3.719   0.393 -0.9751 -0.0329 -0.4203
19434TIP3    H279718   2.112   3.674   0.532 -1.6914  2.9547  0.4269
19435TIP3   OH279719   0.280   0.630  14.215  0.2989 -0.1565 -0.4511
19435TIP3    H179720   0.248   0.542  14.234 -1.2538  0.1768 -1.3411
19435TIP3    H279721   0.272   0.678  14.297  0.3942 -0.6317 -0.1642
19436TIP3   OH279722   4.898   3.416  11.821  0.3036 -0.3697  0.3400
19436TIP3    H179723   4.979   3.465  11.808 -0.6148  1.2813  0.6005
19436TIP3    H279724   4.921   3.349  11.886  1.2304  0.7038  1.1642
19437TIP3   OH279725   6.525   5.084   1.968  0.2877 -0.6212 -0.4191
19437TIP3    H179726   6.431   5.067   1.972 -0.1814  1.5429 -0.5914
19437TIP3    H279727   6.542   5.099   1.875 -0.0433  2.6168 -0.0934
19438TIP3   OH279728   3.891   2.140   6.180 -0.5163  0.2500  0.2763
19438TIP3    H179729   3.884   2.176   6.268 -0.3729 -1.1927  0.9161
19438TIP3    H279730   3.893   2.045   6.193  0.8883  0.0266 -1.1746
19439TIP3   OH279731   6.121   1.994  15.295  0.8174 -0.2055 -0.1251
19439TIP3    H179732   6.076   2.076  15.274 -1.9743 -1.5843  0.1422
19439TIP3    H279733   6.202   1.999  15.244  0.7111  2.6345 -0.2142
19440TIP3   OH279734   2.788   1.946  11.212  0.2005  0.8381 -0.0498
19440TIP3    H179735   2.833   1.951  11.296 -0.4304 -0.9744  0.4408
19440TIP3    H279736   2.858   1.932  11.148  0.7026  2.4170  0.1037
19441TIP3   OH279737   5.444   4.297  17.080 -0.5682  0.2505 -0.4984
19441TIP3    H179738   5.383   4.258  17.017  0.4012  0.2640 -1.4861
19441TIP3    H279739   5.469   4.225  17.138 -3.6250  0.8214  1.7455
19442TIP3   OH279740   0.068   6.771   0.837 -0.3808 -0.0133 -0.0719
19442TIP3    H179741   0.147   6.717   0.826 -0.2113  0.0486  0.7849
19442TIP3    H279742  -0.004   6.714   0.809 -0.2488 -0.8490  1.2230
19443TIP3   OH279743   2.823   2.073  15.316  0.6447  0.5805 -0.4355
19443TIP3    H179744   2.753   2.030  15.365  0.1759 -0.4283 -1.8909
19443TIP3    H279745   2.858   2.139  15.375  0.2264 -0.6629  1.2725
19444TIP3   OH279746   0.181   5.845   3.950 -0.0271 -0.3523 -0.5682
19444TIP3    H179747   0.271   5.866   3.973 -0.4467  0.2679  0.6273
19444TIP3    H279748   0.182   5.832   3.855  1.6690 -2.2343 -0.3665
19445TIP3   OH279749   5.063   3.563  12.513  0.9084 -0.7954  0.3972
19445TIP3    H179750   5.125   3.636  12.509  2.9156 -2.3737  1.0758
19445TIP3    H279751   5.111   3.488  12.478 -1.0962 -1.8381 -0.3004
19446TIP3   OH279752   3.772   6.624   6.069  0.1666 -0.9436 -0.1142
19446TIP3    H179753   3.686   6.656   6.043  0.4826  0.0935  0.0697
19446TIP3    H279754   3.765   6.529   6.062 -0.7720 -0.8457 -0.7905
19447TIP3   OH279755   5.409   6.639  12.114  0.0881  0.0682  0.0118
19447TIP3    H179756   5.477   6.616  12.177 -0.7969 -1.8556  0.3384
19447TIP3    H279757   5.452   6.698  12.052  1.7573 -0.3135  0.7598
19448TIP3   OH279758   0.473   6.123   0.342  0.3436  0.6341  0.0933
19448TIP3    H179759   0.477   6.049   0.403 -0.2824  0.4862 -0.0365
19448TIP3    H279760   0.559   6.165   0.350 -0.6207  2.3283  3.1527
19449TIP3   OH279761   3.260   6.782   6.793 -0.3325  0.0213 -0.3724
19449TIP3    H179762   3.260   6.741   6.706 -0.7142  0.3162 -0.5139
19449TIP3    H279763   3.316   6.725   6.846  0.2877  0.0968 -0.9299
19450TIP3   OH279764   5.717   0.424  14.615  0.4475  0.4011 -0.0923
19450TIP3    H179765   5.715   0.515  14.587  1.3713  0.7820  0.9655
19450TIP3    H279766   5.810   0.403  14.622  0.3286  0.4151  2.7420
19451TIP3   OH279767   6.378   6.505   2.941 -0.2559 -0.2505  0.4797
19451TIP3    H179768   6.385   6.599   2.920 -0.3102 -0.4696 -0.6032
19451TIP3    H279769   6.456   6.486   2.992  0.6426  0.0491 -0.7188
19452TIP3   OH279770   1.380   5.877  16.478 -0.7137 -0.4784 -0.0145
19452TIP3    H179771   1.364   5.968  16.503  3.1079 -0.0363  1.5292
19452TIP3    H279772   1.362   5.827  16.558  0.4341 -0.5787  0.2018
19453TIP3   OH279773   5.351   6.502   0.749 -0.1529  0.3216 -0.4325
19453TIP3    H179774   5.332   6.489   0.842 -0.3051  0.1770 -0.4825
19453TIP3    H279775   5.360   6.414   0.714 -1.0823  0.3347 -0.7500
19454TIP3   OH279776   6.175   0.818  14.890  0.3668  0.4122  0.1563
19454TIP3    H179777   6.263   0.817  14.927  0.2900  0.1701  0.3310
19454TIP3    H279778   6.117   0.813  14.965  0.2078  0.1208  0.0150
19455TIP3   OH279779   0.353   4.005  11.956  0.4763  0.7453  0.4174
19455TIP3    H179780   0.446   4.026  11.966  1.0589 -1.5812  0.2612
19455TIP3    H279781   0.323   3.987  12.044  0.9048 -1.2206  0.1987
19456TIP3   OH279782   0.998   2.460  10.654  0.0178 -0.1611 -0.7137
19456TIP3    H179783   0.916   2.417  10.679  0.3987 -0.8204 -0.5863
19456TIP3    H279784   0.970   2.533  10.598 -0.6190 -0.8408 -1.3117
19457TIP3   OH279785   2.673   4.326  14.786  0.1957  0.2836  0.1336
19457TIP3    H179786   2.648   4.383  14.713  2.6332  1.7459  0.3336
19457TIP3    H279787   2.761   4.296  14.764 -0.5293 -2.5028  0.6560
19458TIP3   OH279788   2.219   2.081  12.393 -0.1238  0.1579  0.1483
19458TIP3    H179789   2.140   2.031  12.374  1.2012 -1.1231 -2.6583
19458TIP3    H279790   2.199   2.170  12.363 -0.8187  0.1085  0.4463
19459TIP3   OH279791   0.069   5.092  13.465  0.1752 -0.0662  0.2601
19459TIP3    H179792   0.124   5.107  13.388  0.9053 -1.6369  0.4433
19459TIP3    H279793   0.068   4.997  13.476 -0.1127  0.1098  2.0624
19460TIP3   OH279794   0.142   4.763  11.961 -0.0522 -0.6494  0.1388
19460TIP3    H179795   0.073   4.827  11.976 -1.2595 -1.2247 -2.4517
19460TIP3    H279796   0.101   4.695  11.907  1.9186 -2.2269  0.5045
19461TIP3   OH279797   0.110   1.990   3.315  0.0914  0.1102  0.0121
19461TIP3    H179798   0.074   2.064   3.265  0.3731 -0.0355 -0.4047
19461TIP3    H279799   0.077   1.912   3.270  1.3599 -0.0321 -0.6976
19462TIP3   OH279800   5.348   1.607   3.204 -0.2862  0.0242  0.4620
19462TIP3    H179801   5.253   1.620   3.201 -0.9902 -3.7230  0.8150
19462TIP3    H279802   5.367   1.555   3.126  1.4340  0.3568  0.6234
19463TIP3   OH279803   1.922   0.134  13.267 -0.0741  0.4434 -0.1620
19463TIP3    H179804   1.996   0.160  13.322  0.6828 -2.3545  0.2577
19463TIP3    H279805   1.952   0.148  13.177  1.1774 -1.0790 -0.0103
19464TIP3   OH279806   5.293   4.228   1.992  0.2789  0.0005 -0.5235
19464TIP3    H179807   5.232   4.156   2.005  0.7862 -0.3811 -0.2335
19464TIP3    H279808   5.365   4.210   2.053 -0.2982  1.5367  0.6764
19465TIP3   OH279809   1.435   6.686   1.287 -0.0109  0.0828 -0.0791
19465TIP3    H179810   1.384   6.606   1.299  1.2115 -0.9341 -1.3027
19465TIP3    H279811   1.417   6.738   1.365 -0.4960 -1.5884  0.9680
19466TIP3   OH279812   0.797   0.164  15.561  0.0403  0.1266 -0.8416
19466TIP3    H179813   0.819   0.218  15.637 -0.2917 -0.1754 -0.5215
19466TIP3    H279814   0.879   0.122  15.537  0.1274  0.1435 -0.5816
19467TIP3   OH279815   1.223   0.204  16.291  0.7605  0.0349  0.4137
19467TIP3    H179816   1.205   0.264  16.363  1.3561 -1.6415  2.0399
19467TIP3    H279817   1.145   0.211  16.235  1.2153  2.9783 -0.0360
19468TIP3   OH279818   1.884   5.763  10.786 -0.4386  0.5889  0.6791
19468TIP3    H179819   1.972   5.728  10.799 -0.8184 -0.6043  0.1351
19468TIP3    H279820   1.891   5.817  10.708 -0.1002  0.8500  0.8843
19469TIP3   OH279821   1.774   4.036  16.882 -0.2428  0.2018 -0.1870
19469TIP3    H179822   1.741   3.958  16.836  0.9223 -0.6098  0.2985
19469TIP3    H279823   1.756   4.018  16.974  0.6813  0.1573 -0.0044
19470TIP3   OH279824   6.102   3.307  13.371 -0.3651 -0.0491  0.3045
19470TIP3    H179825   6.031   3.325  13.310 -1.1370 -1.2413  0.8014
19470TIP3    H279826   6.110   3.211  13.371  0.2139 -0.0219  1.3804
19471TIP3   OH279827   0.337   5.561  15.220 -0.6384 -0.2123 -0.0381
19471TIP3    H179828   0.416   5.594  15.178 -1.6460  3.2115  0.3830
19471TIP3    H279829   0.349   5.467  15.224  3.3877  0.1224  0.0239
19472TIP3   OH279830   0.028   6.116   1.840  0.2160 -0.2218  0.6738
19472TIP3    H179831   0.059   6.068   1.917  0.0293 -0.6925  0.4579
19472TIP3    H279832   0.007   6.048   1.776 -0.2513  0.1369  0.4377
19473TIP3   OH279833   0.139   4.531  13.134  0.0797  0.1584  0.4249
19473TIP3    H179834   0.179   4.575  13.209 -0.1661  0.2930  0.4794
19473TIP3    H279835   0.213   4.504  13.079  0.3720 -1.5034  1.5603
19474TIP3   OH279836   6.428   1.156   6.155 -0.4479  0.5826 -0.6311
19474TIP3    H179837   6.485   1.153   6.232 -0.7950  2.6128 -0.2407
19474TIP3    H279838   6.482   1.196   6.087 -0.6328  0.2064 -1.0026
19475TIP3   OH279839   4.501   4.263  14.607 -0.2431 -0.1666 -0.2065
19475TIP3    H179840   4.578   4.243  14.554 -0.1516 -1.2242  0.2894
19475TIP3    H279841   4.431   4.208  14.569 -0.6305  0.4071 -0.3373
19476TIP3   OH279842   3.602   5.163   5.158 -0.3211 -0.0376  0.3085
19476TIP3    H179843   3.556   5.150   5.241 -1.5959  1.4393 -0.1379
19476TIP3    H279844   3.694   5.147   5.180 -0.7288 -0.5916  1.7828
19477TIP3   OH279845   2.476   3.909   5.644  1.0719  0.0643  0.2011
19477TIP3    H179846   2.557   3.925   5.692  0.0652 -0.3996  2.1635
19477TIP3    H279847   2.472   3.979   5.579  2.2994  0.9804  1.0717
19478TIP3   OH279848   2.135   2.241  15.058  0.6655 -0.0067 -0.3618
19478TIP3    H179849   2.064   2.221  14.997  0.3693  1.1724 -0.4261
19478TIP3    H279850   2.212   2.198  15.019  0.4829  0.7197 -1.6026
19479TIP3   OH279851   2.406   5.983   2.174  1.0326 -0.3987 -1.0026
19479TIP3    H179852   2.311   5.985   2.179  1.0004  1.5128 -1.3632
19479TIP3    H279853   2.435   5.965   2.264  0.3592 -1.8289 -1.0510
19480TIP3   OH279854   2.736   1.404  14.754 -0.0623 -0.2934 -0.3869
19480TIP3    H179855   2.684   1.339  14.801  0.0674  0.0861  0.2978
19480TIP3    H279856   2.766   1.359  14.675 -1.2225 -0.5868 -0.6670
19481TIP3   OH279857   4.639   5.959  11.842  0.4223 -0.1065  0.5910
19481TIP3    H179858   4.549   5.992  11.837  0.4777  0.0736  0.7969
19481TIP3    H279859   4.684   6.001  11.769  0.8168  1.2659  1.5872
19482TIP3   OH279860   5.376   6.788  16.813  0.3360  0.5016  0.0391
19482TIP3    H179861   5.296   6.737  16.797  0.5452 -0.4321  1.7025
19482TIP3    H279862   5.394   6.832  16.730 -1.2185 -0.2447 -0.7306
19483TIP3   OH279863   5.546   4.246  14.942 -0.1659 -0.2440  0.0123
19483TIP3    H179864   5.586   4.175  14.892 -0.5418 -0.4538 -0.0014
19483TIP3    H279865   5.547   4.321  14.882 -1.2539 -0.6834 -0.5897
19484TIP3   OH279866   1.945   3.776  13.322  0.0095 -0.1298 -0.1741
19484TIP3    H179867   1.894   3.696  13.307  1.9151 -1.5810  0.6698
19484TIP3    H279868   2.010   3.751  13.388  0.6723  2.1373  0.1216
19485TIP3   OH279869   2.782   3.060  14.865  0.2855  0.1253  0.0751
19485TIP3    H179870   2.736   3.097  14.940 -1.0342  0.9671 -1.1032
19485TIP3    H279871   2.874   3.065  14.889 -0.0578  1.1669  1.3019
19486TIP3   OH279872   1.312   5.293   3.729  1.4248  0.3845 -0.2464
19486TIP3    H179873   1.344   5.287   3.639  2.3435  0.3988  0.0736
19486TIP3    H279874   1.388   5.273   3.784  0.2556 -2.4502  0.5306
19487TIP3   OH279875   6.432   6.275  12.411 -0.0823 -0.1676 -0.1096
19487TIP3    H179876   6.461   6.366  12.410 -0.1897 -0.1397 -0.9152
19487TIP3    H279877   6.365   6.272  12.480 -0.2715  0.4165 -0.2646
19488TIP3   OH279878   5.991   6.488   5.303  0.4843  0.3774 -0.0861
19488TIP3    H179879   5.980   6.402   5.262  0.3145 -0.3953  1.4822
19488TIP3    H279880   5.924   6.543   5.263  0.4420 -0.2868 -0.9457
19489TIP3   OH279881   1.917   4.930  11.638  0.5857  0.1527  0.2401
19489TIP3    H179882   1.937   4.886  11.721 -0.3937 -2.1429 -0.6763
19489TIP3    H279883   1.836   4.890  11.608  0.5771  1.3823 -1.5604
19490TIP3   OH279884   5.205   4.686   4.908  0.1206 -0.0840  0.0262
19490TIP3    H179885   5.121   4.645   4.891  0.8340 -2.0693  0.9608
19490TIP3    H279886   5.223   4.738   4.829 -1.9154  0.3733 -0.1970
19491TIP3   OH279887   4.092   4.286  12.824 -0.0406  0.0037  0.2301
19491TIP3    H179888   4.174   4.239  12.808 -0.2067 -0.2207  0.0304
19491TIP3    H279889   4.023   4.220  12.810 -0.3938  0.7294 -1.9509
19492TIP3   OH279890   4.802   3.456  14.777  0.2527 -0.0781  0.6842
19492TIP3    H179891   4.731   3.395  14.755  0.2187 -0.2176  1.1701
19492TIP3    H279892   4.863   3.449  14.704 -1.2773  1.6835 -0.8845
19493TIP3   OH279893   2.895   6.666  11.252 -0.3340 -0.2927  0.0900
19493TIP3    H179894   2.802   6.642  11.259 -0.3307 -0.0615  1.2057
19493TIP3    H279895   2.940   6.605  11.310  0.3320 -0.9395 -1.0679
19494TIP3   OH279896   3.363   0.790   4.395 -0.5334 -0.0032 -0.4657
19494TIP3    H179897   3.413   0.812   4.474  0.8891 -1.3648 -0.9204
19494TIP3    H279898   3.373   0.866   4.338  1.1892 -0.2694 -0.5800
19495TIP3   OH279899   3.569   6.734   5.919 -0.0726  0.0681 -0.3714
19495TIP3    H179900   3.658   6.732   5.885  0.2611 -3.4142  0.3131
19495TIP3    H279901   3.514   6.710   5.844 -0.0809 -0.7147 -0.1254
19496TIP3   OH279902   4.951   3.188   5.885 -0.3355 -0.5948  0.3256
19496TIP3    H179903   4.934   3.167   5.793 -1.5307 -1.8047  0.7778
19496TIP3    H279904   4.882   3.250   5.908 -1.1126 -1.5914  0.8138
19497TIP3   OH279905   0.418   2.468   3.893  0.0005  0.1736 -0.1848
19497TIP3    H179906   0.507   2.455   3.924 -0.3532 -0.2656  0.6815
19497TIP3    H279907   0.407   2.404   3.823  0.1154 -0.3183  0.2402
19498TIP3   OH279908   6.377   6.135   1.305 -0.5299 -0.0067  0.5577
19498TIP3    H179909   6.388   6.089   1.389  0.5829  0.3943  0.6453
19498TIP3    H279910   6.359   6.065   1.242 -0.8674 -0.3622  1.0443
19499TIP3   OH279911   1.175   5.927  13.210 -0.2745  0.1961  0.7810
19499TIP3    H179912   1.225   5.856  13.171  0.7097  0.3456  1.7210
19499TIP3    H279913   1.089   5.921  13.169  0.0670 -0.9680  0.1863
19500TIP3   OH279914   3.802   4.158   4.226  0.1112  0.4141  0.3205
19500TIP3    H179915   3.757   4.117   4.299  3.3559 -0.3768  2.0768
19500TIP3    H279916   3.830   4.084   4.171 -2.0481  0.9782 -1.7212
19501TIP3   OH279917   3.054   0.306  11.258  0.3893 -0.8733 -0.3948
19501TIP3    H179918   3.038   0.282  11.349 -0.6456 -0.8803 -0.5657
19501TIP3    H279919   3.014   0.236  11.206 -1.2624  0.3348 -0.8701
19502TIP3   OH279920   3.038   0.270  16.797  0.1869  0.1318 -0.2949
19502TIP3    H179921   3.124   0.310  16.789  1.0743 -1.6330 -0.0223
19502TIP3    H279922   3.046   0.210  16.871 -1.1201 -0.4557 -0.6069
19503TIP3   OH279923   3.079   1.809   5.920 -0.7180  0.2115 -0.5659
19503TIP3    H179924   3.166   1.848   5.908 -0.1764 -0.6616  0.3996
19503TIP3    H279925   3.053   1.835   6.008 -1.3092  0.2048 -0.7350
19504TIP3   OH279926   1.450   2.887  11.933 -0.0143  0.5608  0.3311
19504TIP3    H179927   1.395   2.884  11.854 -0.5733 -1.4670  0.7322
19504TIP3    H279928   1.388   2.879  12.005  0.7226 -2.1575  0.7799
19505TIP3   OH279929   1.905   0.039  11.080  0.4245 -0.6796  0.1533
19505TIP3    H179930   1.957  -0.034  11.047 -0.6999 -1.8268  0.7947
19505TIP3    H279931   1.947   0.063  11.162  0.1773 -1.3599  0.4892
19506TIP3   OH279932   1.517   2.234   4.090 -0.5847  0.2019 -0.1127
19506TIP3    H179933   1.558   2.191   4.015  0.1033  0.9036 -0.1585
19506TIP3    H279934   1.591   2.274   4.137 -1.0173 -0.1145  0.8669
19507TIP3   OH279935   6.253   3.315   5.755  0.5610 -0.6077  0.0879
19507TIP3    H179936   6.308   3.247   5.794  1.1300  0.7210  1.7125
19507TIP3    H279937   6.163   3.283   5.767  0.8458 -1.7784 -0.6330
19508TIP3   OH279938   2.582   6.801   1.039 -0.7554 -0.3293  0.2531
19508TIP3    H179939   2.670   6.827   1.011 -0.6353  0.6176  1.4201
19508TIP3    H279940   2.529   6.806   0.960 -0.1751  1.0396 -0.0796
19509TIP3   OH279941   6.619   6.756  14.051 -0.5389  0.1416  0.1277
19509TIP3    H179942   6.676   6.831  14.037  0.5514 -0.9644 -1.7763
19509TIP3    H279943   6.533   6.794  14.069  0.0171  1.8427 -0.6166
19510TIP3   OH279944   6.534   2.562   3.926 -0.1329 -0.5689  0.0158
19510TIP3    H179945   6.443   2.576   3.953 -0.1300 -0.9188  0.2028
19510TIP3    H279946   6.585   2.579   4.005 -0.0160 -0.1668 -0.1404
19511TIP3   OH279947   5.798   1.681  16.010 -0.0945 -0.1182 -0.2577
19511TIP3    H179948   5.849   1.606  15.980  2.2771  1.1624  0.3242
19511TIP3    H279949   5.765   1.721  15.929  0.8329 -0.3253 -0.7538
19512TIP3   OH279950   2.989   2.118  11.881 -0.4740 -0.2296 -0.0404
19512TIP3    H179951   2.920   2.180  11.905 -3.4510 -1.9531 -3.1004
19512TIP3    H279952   2.955   2.033  11.910  0.8241 -1.0259 -0.7886
19513TIP3   OH279953   6.339   3.639  11.745 -0.0597  1.1445  0.0626
19513TIP3    H179954   6.308   3.717  11.700 -1.3777 -1.0171 -3.1243
19513TIP3    H279955   6.295   3.641  11.830 -1.6829  2.8337 -0.7468
19514TIP3   OH279956   6.775   2.113   6.030 -0.3119 -0.3626 -0.2018
19514TIP3    H179957   6.762   2.208   6.032  0.2872 -0.2898  0.4734
19514TIP3    H279958   6.858   2.101   5.983  0.4915 -0.4372  1.1770
19515TIP3   OH279959   4.356   0.113   5.612 -0.0143  0.0588  0.9022
19515TIP3    H179960   4.438   0.092   5.568 -0.9070 -0.3351 -0.6701
19515TIP3    H279961   4.362   0.070   5.697  1.0781 -0.6477  0.4858
19516TIP3   OH279962   5.248   2.537   3.233 -0.0764 -0.2268  0.0498
19516TIP3    H179963   5.273   2.629   3.225  1.2855 -0.6665 -1.5000
19516TIP3    H279964   5.236   2.507   3.143 -1.2713 -1.3889  0.5532
19517TIP3   OH279965   3.056   6.426   2.583  0.8982 -0.4333  0.1238
19517TIP3    H179966   3.096   6.494   2.530  1.7337 -0.5218  0.6268
19517TIP3    H279967   3.026   6.472   2.662  0.8166 -0.5260  0.1476
19518TIP3   OH279968   5.076   1.036   4.255  0.6377  0.8291 -0.5359
19518TIP3    H179969   4.984   1.053   4.233  0.7581 -0.4685 -2.2484
19518TIP3    H279970   5.073   0.956   4.308  0.6244  2.1399  1.5331
19519TIP3   OH279971   5.083   5.485   0.298 -0.3405  0.2286  0.0949
19519TIP3    H179972   5.059   5.574   0.274  0.9819  0.4978 -0.2945
19519TIP3    H279973   5.102   5.490   0.392 -0.1860  0.3811  0.0564
19520TIP3   OH279974   5.667   5.273   1.411  0.2682  0.0524 -0.2754
19520TIP3    H179975   5.692   5.335   1.479 -1.1247  0.4939 -0.1464
19520TIP3    H279976   5.735   5.282   1.344  1.4672 -0.1403  0.8732
19521TIP3   OH279977   6.775   6.707   2.960 -0.1426  0.4135 -1.2322
19521TIP3    H179978   6.739   6.674   2.877 -0.1116  0.9942 -1.4802
19521TIP3    H279979   6.739   6.795   2.968  0.2469  0.5400 -0.8647
19522TIP3   OH279980   2.644   6.699   2.814  0.9409 -0.2582  0.1609
19522TIP3    H179981   2.646   6.781   2.864 -0.9910 -0.6467  0.9688
19522TIP3    H279982   2.690   6.636   2.870  2.2748  0.1951 -0.3830
19523TIP3   OH279983   4.322   3.990  13.141 -0.9780  0.0702  0.1842
19523TIP3    H179984   4.274   3.943  13.210 -0.7221 -0.7753 -0.2002
19523TIP3    H279985   4.259   4.051  13.105 -1.3178  0.0344  0.7122
19524TIP3   OH279986   5.128   4.482   1.986 -0.3058  0.7928 -0.0471
19524TIP3    H179987   5.133   4.392   2.020  1.0314  0.5673 -0.8043
19524TIP3    H279988   5.067   4.526   2.046  0.6648 -0.0493  1.6255
19525TIP3   OH279989   3.450   5.577  16.239  0.5182 -0.2845  0.0587
19525TIP3    H179990   3.471   5.505  16.298 -0.1482 -1.8285 -1.5145
19525TIP3    H279991   3.535   5.616  16.218  0.8596 -0.4138  1.1486
19526TIP3   OH279992   4.631   3.619   2.052 -0.7067 -0.1662  0.3543
19526TIP3    H179993   4.645   3.547   1.990  0.5322  1.2220 -1.0525
19526TIP3    H279994   4.539   3.642   2.042 -0.6041 -0.1804 -0.7536
19527TIP3   OH279995   5.255   5.220   0.790  0.0760 -0.2674 -0.3531
19527TIP3    H179996   5.190   5.151   0.776 -0.1660 -0.5269  1.7100
19527TIP3    H279997   5.323   5.202   0.725 -0.2319 -2.1650 -0.2089
19528TIP3   OH279998   3.806   6.522  14.231 -0.2928  0.4535 -0.2004
19528TIP3    H179999   3.768   6.588  14.289 -0.7580 -0.7659  0.9452
19528TIP3    H280000   3.758   6.530  14.149 -0.1956  1.6555 -0.1576
19529TIP3   OH280001   0.702   3.883   4.040  0.6282 -0.4800  0.6103
19529TIP3    H180002   0.709   3.795   4.078 -0.4294 -0.1200  1.6910
19529TIP3    H280003   0.791   3.903   4.009  0.6271 -2.4348 -0.8478
19530TIP3   OH280004   4.754   4.166   6.093 -0.3719  0.2691  0.3553
19530TIP3    H180005   4.811   4.133   6.023  0.2297 -0.7161  1.2690
19530TIP3    H280006   4.714   4.245   6.057  1.1225  0.6618 -0.5301
19531TIP3   OH280007   3.941   0.858   1.963 -0.3423  0.2232  0.2587
19531TIP3    H180008   3.918   0.939   2.008  0.8995  0.4658  0.5003
19531TIP3    H280009   4.031   0.872   1.932  0.0207 -1.1642  0.5845
19532TIP3   OH280010   5.263   0.056  12.912 -0.0715  0.8234  0.7454
19532TIP3    H180011   5.322   0.083  12.842  0.8167  0.0563  1.1711
19532TIP3    H280012   5.201  -0.004  12.870  0.5535  0.2446  0.6424
19533TIP3   OH280013   2.805   4.891  16.696 -0.2655 -0.0086  0.1988
19533TIP3    H180014   2.781   4.948  16.622 -0.7955 -2.7938 -1.9389
19533TIP3    H280015   2.764   4.932  16.772  0.5452  3.1565 -0.9316
19534TIP3   OH280016   0.888   3.357   4.901 -0.2293  0.2876  0.8228
19534TIP3    H180017   0.814   3.325   4.849 -1.3720  1.1637  1.8436
19534TIP3    H280018   0.945   3.400   4.837 -0.8844  0.0942  0.0876
19535TIP3   OH280019   0.830   4.479   2.215 -0.3440  0.3622  0.1092
19535TIP3    H180020   0.855   4.390   2.189 -1.0463  0.4371 -0.8473
19535TIP3    H280021   0.772   4.510   2.146 -0.7233  1.2928  0.8114
19536TIP3   OH280022   4.991   0.443  13.126 -0.0425  0.1880  0.2785
19536TIP3    H180023   5.045   0.364  13.129  0.4917  0.5353 -0.0872
19536TIP3    H280024   5.053   0.515  13.136 -0.5425  0.5593  0.7654
19537TIP3   OH280025   1.670   2.963  13.644  0.3327 -0.1338  0.1830
19537TIP3    H180026   1.745   2.958  13.703  0.7979  0.7916 -0.3129
19537TIP3    H280027   1.678   2.885  13.589  1.9693  0.8533 -1.0597
19538TIP3   OH280028   5.442   1.714  16.939  0.0455  0.1865 -0.0329
19538TIP3    H180029   5.507   1.748  17.000  0.5444 -0.3444 -0.2655
19538TIP3    H280030   5.417   1.629  16.974  0.0220  0.0653 -0.3415
19539TIP3   OH280031   1.402   4.619  15.748  0.0873  0.1542 -0.0462
19539TIP3    H180032   1.398   4.538  15.798  0.8452 -0.7057 -1.3489
19539TIP3    H280033   1.311   4.637  15.725 -0.2171  0.2986  1.1531
19540TIP3   OH280034   0.650   1.331  13.597  0.3275  0.2583 -0.0203
19540TIP3    H180035   0.631   1.237  13.596 -0.2305  0.3488  1.0489
19540TIP3    H280036   0.657   1.353  13.690  2.4033  0.9071 -0.2763
19541TIP3   OH280037   1.847   4.302  15.466  0.4793  0.2847 -0.9179
19541TIP3    H180038   1.894   4.363  15.410  0.1192  0.1323 -1.3976
19541TIP3    H280039   1.914   4.243  15.500  0.8025  0.8408 -0.5840
19542TIP3   OH280040   1.303   3.047  15.111  0.3250  0.2194 -0.8869
19542TIP3    H180041   1.371   2.983  15.089 -0.1241 -0.4034 -0.5238
19542TIP3    H280042   1.300   3.106  15.036  1.0267  0.0507 -1.0564
19543TIP3   OH280043   2.476   5.457  16.127 -0.2030  0.0418 -0.0331
19543TIP3    H180044   2.394   5.482  16.170  0.9775  2.1557  1.1603
19543TIP3    H280045   2.541   5.462  16.196  0.8006 -2.9694 -0.6132
19544TIP3   OH280046   6.353   6.467  12.122  0.4665 -0.3343 -0.8402
19544TIP3    H180047   6.420   6.525  12.156 -0.1013 -0.2785  0.2410
19544TIP3    H280048   6.375   6.381  12.159  0.0875 -0.3612 -0.6709
19545TIP3   OH280049   4.019   4.318   4.188 -0.1727  0.0227  0.1333
19545TIP3    H180050   3.944   4.265   4.214 -1.6690  2.7609  1.9133
19545TIP3    H280051   3.983   4.384   4.129  1.7736 -1.2097 -2.6594
19546TIP3   OH280052   1.459   3.471  16.728  0.3649  0.2243 -0.5063
19546TIP3    H180053   1.522   3.442  16.793 -0.5428 -0.9000 -0.0999
19546TIP3    H280054   1.379   3.424  16.749 -0.3220  0.8247 -1.6527
19547TIP3   OH280055   3.936   3.735   5.620  0.0474  0.1239 -0.1819
19547TIP3    H180056   3.968   3.646   5.630 -1.7475 -0.5528 -0.0607
19547TIP3    H280057   3.877   3.731   5.545  1.8309  1.8051 -1.7799
19548TIP3   OH280058   2.292   4.221   3.024  0.1261 -0.0293 -0.0807
19548TIP3    H180059   2.294   4.316   3.041  2.7218 -0.0324  0.0430
19548TIP3    H280060   2.225   4.188   3.083 -3.5343  2.0588 -2.6293
19549TIP3   OH280061   3.414   2.117   3.808 -0.8320 -0.1712  0.1894
19549TIP3    H180062   3.484   2.179   3.826 -0.4279 -0.2869 -0.8804
19549TIP3    H280063   3.375   2.148   3.726 -1.2392 -0.7877  0.1432
19550TIP3   OH280064   6.489   4.884  11.919 -0.1256 -0.3283 -0.0994
19550TIP3    H180065   6.430   4.960  11.912  0.6141  0.4759  1.8881
19550TIP3    H280066   6.431   4.809  11.905 -1.7497  0.4128  2.0527
19551TIP3   OH280067   2.195   6.809  13.169 -0.3997  0.8597  0.3190
19551TIP3    H180068   2.193   6.720  13.204 -0.5692  1.1304  1.0157
19551TIP3    H280069   2.225   6.863  13.241  0.3263  1.2942 -0.2917
19552TIP3   OH280070   0.177   6.573   2.687 -0.1694  0.3818  0.0938
19552TIP3    H180071   0.096   6.531   2.715 -0.2439 -0.0604 -0.7225
19552TIP3    H280072   0.157   6.666   2.683 -1.0849  0.1508 -1.4556
19553TIP3   OH280073   1.429   4.355  16.326 -0.4211 -0.0687  0.2236
19553TIP3    H180074   1.422   4.427  16.263 -0.9067 -0.6759 -0.4400
19553TIP3    H280075   1.521   4.353  16.351 -0.3820  0.7002  0.1445
19554TIP3   OH280076   5.753   5.886  15.453  0.1499  0.0436  0.0169
19554TIP3    H180077   5.726   5.977  15.441  1.8660  0.2821 -3.2651
19554TIP3    H280078   5.849   5.888  15.447  0.2231 -1.9496 -0.3286
19555TIP3   OH280079   5.556   2.352  17.079 -0.0070  0.0309  0.4513
19555TIP3    H180080   5.650   2.334  17.090  0.2279  1.6638  1.3739
19555TIP3    H280081   5.541   2.342  16.985  1.1679  0.0759  0.2338
19556TIP3   OH280082   4.508   0.314   4.693  0.2825 -0.6638 -0.4504
19556TIP3    H180083   4.523   0.352   4.779  0.7473 -1.2045 -0.2860
19556TIP3    H280084   4.419   0.278   4.697  0.6135 -1.4416  0.0939
19557TIP3   OH280085   1.290   0.720   3.212 -0.1397 -0.5524 -0.0167
19557TIP3    H180086   1.260   0.646   3.265  1.0721 -1.0030  0.0785
19557TIP3    H280087   1.367   0.686   3.166 -0.6538  0.0993 -1.3966
19558TIP3   OH280088   3.393   2.496  13.573  0.3668  0.3496 -0.1029
19558TIP3    H180089   3.481   2.482  13.538  0.3576  0.2151 -0.0728
19558TIP3    H280090   3.350   2.411  13.563  0.0985  0.5288 -0.5202
19559TIP3   OH280091   3.544   6.036   2.853 -0.0324 -0.5338 -0.2403
19559TIP3    H180092   3.498   6.109   2.895  0.0488 -1.1725  1.0080
19559TIP3    H280093   3.587   5.990   2.926  0.5079 -1.4068 -1.0892
19560TIP3   OH280094   3.301   0.624  15.346  0.1024 -0.2531  0.1851
19560TIP3    H180095   3.239   0.669  15.403  0.6613  0.6314  0.1197
19560TIP3    H280096   3.386   0.660  15.370  0.7290 -2.0842  0.8934
19561TIP3   OH280097   6.130   0.961  13.951 -0.3552 -0.8391 -0.1684
19561TIP3    H180098   6.184   1.030  13.913 -0.3269 -0.6598  0.1952
19561TIP3    H280099   6.169   0.880  13.918  0.2459 -0.7191  0.2265
19562TIP3   OH280100   3.828   3.507   2.906 -0.1958  0.2548 -0.1655
19562TIP3    H180101   3.867   3.500   2.819  0.9885  0.9543  0.2749
19562TIP3    H280102   3.755   3.568   2.896 -0.7850 -0.5577 -0.8827
19563TIP3   OH280103   6.197   2.692  13.768 -0.3389  0.3618 -0.1581
19563TIP3    H180104   6.117   2.744  13.766 -1.4119 -1.1492  1.1508
19563TIP3    H280105   6.260   2.747  13.816 -1.5743  0.3248  1.6012
19564TIP3   OH280106   5.578   0.576   3.420  0.7193  0.0090 -0.5874
19564TIP3    H180107   5.547   0.622   3.497  2.0757  0.0476 -0.0402
19564TIP3    H280108   5.503   0.523   3.391 -0.5362  1.7416 -0.6317
19565TIP3   OH280109   3.952   1.859   0.851  0.4282  0.1502 -0.3165
19565TIP3    H180110   3.969   1.926   0.917  0.8075 -0.0919 -0.1655
19565TIP3    H280111   4.033   1.808   0.847  0.0504 -0.4624 -0.2434
19566TIP3   OH280112   5.269   1.204  13.854  0.0441  0.0189 -1.0791
19566TIP3    H180113   5.305   1.241  13.774 -0.7736  1.2937 -0.8797
19566TIP3    H280114   5.195   1.260  13.876  0.8559  0.3313  1.1211
19567TIP3   OH280115   0.474   2.813  12.102  0.1063 -0.2976  0.2468
19567TIP3    H180116   0.423   2.893  12.088  0.2361  0.1213  1.9304
19567TIP3    H280117   0.434   2.748  12.044 -1.2309  0.4715  0.2716
19568TIP3   OH280118   0.063   5.279   3.334  0.6981  0.2816  0.0888
19568TIP3    H180119   0.142   5.263   3.282  0.3668  2.7403 -1.3532
19568TIP3    H280120   0.053   5.374   3.334 -0.3923  0.2751  3.1949
19569TIP3   OH280121   1.536   0.622   4.375 -0.6554  1.0255  0.1883
19569TIP3    H180122   1.473   0.570   4.426  1.0070 -0.3546  0.9601
19569TIP3    H280123   1.558   0.695   4.432  0.3479  0.0966  1.0338
19570TIP3   OH280124   1.525   2.220  15.988 -0.0830 -0.0982  0.0139
19570TIP3    H180125   1.557   2.238  15.900 -1.7950  0.4746 -0.5483
19570TIP3    H280126   1.555   2.131  16.007  1.5696  0.3225 -0.5249
19571TIP3   OH280127   3.464   6.312  14.903 -0.0867 -0.8220 -0.1013
19571TIP3    H180128   3.436   6.394  14.944  0.1264 -0.9450  0.2960
19571TIP3    H280129   3.532   6.338  14.840 -0.1161 -0.6809 -0.0743
19572TIP3   OH280130   3.206   4.660  11.759 -0.0020 -0.2065 -0.2139
19572TIP3    H180131   3.289   4.662  11.806 -1.1009  1.2763  1.8277
19572TIP3    H280132   3.150   4.722  11.806 -1.0846  1.8638 -3.8245
19573TIP3   OH280133   1.031   1.829  16.894  0.1409 -0.0427  0.1027
19573TIP3    H180134   0.997   1.881  16.821  0.0397 -0.6741 -0.3042
19573TIP3    H280135   1.126   1.839  16.888  0.2090 -1.1788 -0.9430
19574TIP3   OH280136   5.852   4.121  13.105 -0.1038 -0.1788  0.6167
19574TIP3    H180137   5.872   4.127  13.199  0.3945 -0.3416  0.5227
19574TIP3    H280138   5.757   4.132  13.100 -0.2364 -0.9639  1.2144
19575TIP3   OH280139   4.681   2.047   2.082 -0.1438  0.1752 -0.0038
19575TIP3    H180140   4.662   2.061   1.990 -0.2259 -2.7561 -0.5500
19575TIP3    H280141   4.596   2.022   2.120  0.1987 -0.2809  0.4707
19576TIP3   OH280142   4.581   3.922   2.890 -0.3462 -0.1464 -0.1751
19576TIP3    H180143   4.632   3.949   2.966  0.6260 -0.7985 -0.5725
19576TIP3    H280144   4.559   3.831   2.907 -0.7614 -0.0787 -0.3377
19577TIP3   OH280145   4.191   6.584  12.952 -0.4803  0.1276  0.4046
19577TIP3    H180146   4.244   6.548  13.023  1.8997  0.7312 -0.9889
19577TIP3    H280147   4.190   6.678  12.968 -0.0155  0.2553 -0.2973
19578TIP3   OH280148   4.011   2.010  13.976 -0.1690 -0.1380  0.0720
19578TIP3    H180149   4.067   1.935  13.955 -0.5366 -0.6504  0.8686
19578TIP3    H280150   3.986   1.996  14.068 -0.4175  0.8502  0.1631
19579TIP3   OH280151   6.214   6.308   4.084 -0.7561  0.5721  0.5042
19579TIP3    H180152   6.168   6.234   4.123 -2.7302  1.0640 -0.7737
19579TIP3    H280153   6.232   6.282   3.994 -0.9357  1.4183  0.2124
19580TIP3   OH280154   4.863   0.612   3.724  0.2351  0.4565  0.4330
19580TIP3    H180155   4.789   0.611   3.664  0.4473  1.2523  0.1413
19580TIP3    H280156   4.933   0.565   3.678  0.1079  0.2499  0.4505
19581TIP3   OH280157   1.041   3.272   4.367  0.3394 -0.3352 -0.8141
19581TIP3    H180158   0.988   3.244   4.441 -1.2404  0.9029 -1.4213
19581TIP3    H280159   1.129   3.241   4.387 -0.1141 -0.3188  1.4089
19582TIP3   OH280160   0.069   2.223   3.181 -0.4494  0.0759 -0.3089
19582TIP3    H180161   0.151   2.248   3.224 -0.4512 -2.1615  1.1228
19582TIP3    H280162   0.014   2.301   3.188  0.7910  0.9072  0.6443
19583TIP3   OH280163   0.802   0.608   4.342 -0.0234  0.4143 -0.3452
19583TIP3    H180164   0.889   0.573   4.321 -0.0110  1.0382 -1.4552
19583TIP3    H280165   0.817   0.668   4.415  0.0812 -1.2297  1.0243
19584TIP3   OH280166   2.909   5.824   3.000  0.6976 -0.4098  0.4144
19584TIP3    H180167   2.956   5.894   3.045  3.0785 -1.4914 -0.2266
19584TIP3    H280168   2.902   5.855   2.909  0.5449 -0.4477  0.4124
19585TIP3   OH280169   0.391   2.319  17.023 -0.2226  0.0860 -0.5885
19585TIP3    H180170   0.402   2.230  17.055  1.2117  0.9115  1.4243
19585TIP3    H280171   0.438   2.320  16.939 -0.3079 -1.0434 -0.6684
19586TIP3   OH280172   0.622   2.489   2.612  0.3820  0.5357 -0.1172
19586TIP3    H180173   0.600   2.573   2.652  0.3090  0.3292  0.2799
19586TIP3    H280174   0.610   2.504   2.518 -1.9204  0.3379  0.0752
19587TIP3   OH280175   0.855   3.946   0.366  0.9303 -0.4347 -0.0537
19587TIP3    H180176   0.924   3.903   0.316  0.3451  0.4838 -1.7240
19587TIP3    H280177   0.876   4.039   0.360 -0.9473 -0.0367 -1.4579
19588TIP3   OH280178   3.225   4.865  12.155  0.4880 -0.3349  0.7760
19588TIP3    H180179   3.308   4.824  12.182  1.2049  0.2009 -0.5310
19588TIP3    H280180   3.224   4.950  12.199  0.3087 -0.6164  1.3200
19589TIP3   OH280181   0.461   0.386  11.384  0.0209  0.7487  0.1181
19589TIP3    H180182   0.550   0.393  11.349  0.2291  0.3117  0.5447
19589TIP3    H280183   0.470   0.409  11.476  0.0524 -1.1222  0.6317
19590TIP3   OH280184   3.318   4.794   3.258 -0.1942  0.1039 -0.4483
19590TIP3    H180185   3.253   4.830   3.318 -0.6497 -1.0448 -0.2204
19590TIP3    H280186   3.280   4.807   3.171  0.3067  1.4486 -0.4845
19591TIP3   OH280187   3.924   4.757   0.197  0.4967  0.8005  0.3953
19591TIP3    H180188   3.960   4.779   0.284  0.1198  1.4136  0.4011
19591TIP3    H280189   3.974   4.680   0.170  0.5395  0.5330  1.2077
19592TIP3   OH280190   2.537   6.445  13.633  0.6489 -0.8191  0.1788
19592TIP3    H180191   2.618   6.476  13.592 -0.3631  1.4305 -0.2586
19592TIP3    H280192   2.501   6.382  13.571  1.6193 -1.2185  0.0002
19593TIP3   OH280193   4.952   0.009   0.507  0.4047 -0.3862 -0.0609
19593TIP3    H180194   4.933  -0.055   0.438  0.7106  0.4316 -0.9301
19593TIP3    H280195   4.866   0.043   0.533 -0.1017 -3.3064  2.6329
19594TIP3   OH280196   4.167   3.355   1.365 -0.9233 -0.3751 -0.5625
19594TIP3    H180197   4.184   3.435   1.316  1.2267 -1.1741 -1.2053
19594TIP3    H280198   4.078   3.330   1.339 -1.0831  1.0177 -1.4611
19595TIP3   OH280199   6.720   4.331   4.313  0.3328 -0.1020  0.3094
19595TIP3    H180200   6.745   4.338   4.221  1.6802  2.8783  0.7725
19595TIP3    H280201   6.761   4.250   4.343  0.1750 -0.9346 -1.6086
19596TIP3   OH280202   1.416   2.607   2.160  0.1679  0.2661 -0.0620
19596TIP3    H180203   1.428   2.672   2.090 -1.6884 -1.4476 -2.1181
19596TIP3    H280204   1.329   2.571   2.143  0.9279 -2.4095  1.2835
19597TIP3   OH280205   0.219   6.614   5.424 -0.3060  0.1416 -0.4683
19597TIP3    H180206   0.230   6.689   5.366 -0.2916 -1.8571 -3.2196
19597TIP3    H280207   0.124   6.605   5.433 -0.3072  1.1122  0.8409
19598TIP3   OH280208   3.494   6.281   5.623 -0.0357  0.0330  0.1313
19598TIP3    H180209   3.552   6.213   5.591  1.6778  0.8796  1.2868
19598TIP3    H280210   3.408   6.239   5.632  0.4634 -1.3364 -1.2881
19599TIP3   OH280211   2.038   6.333  16.003  0.0238 -0.4000  0.4435
19599TIP3    H180212   1.976   6.283  15.950 -0.5585  1.2068 -0.4802
19599TIP3    H280213   1.984   6.373  16.071  0.1150  0.5846 -0.0497
19600TIP3   OH280214   2.695   2.050  15.847 -0.3773 -0.1930 -0.3603
19600TIP3    H180215   2.761   2.057  15.916 -0.7668 -1.9754  0.2527
19600TIP3    H280216   2.709   1.963  15.809 -0.9556  0.2889 -1.7328
19601TIP3   OH280217   2.324   3.082  12.362  0.3890  0.5997 -0.7182
19601TIP3    H180218   2.279   3.164  12.343 -0.7787  0.3975  0.9666
19601TIP3    H280219   2.357   3.093  12.451  0.6434 -0.5660 -0.6535
19602TIP3   OH280220   5.926   2.665   0.329 -0.6201  0.5440  0.2497
19602TIP3    H180221   5.971   2.595   0.281  0.2673  0.1262  1.6239
19602TIP3    H280222   5.911   2.733   0.263  1.1801  0.2804 -0.4915
19603TIP3   OH280223   2.571   0.837  13.103 -0.4122  0.5286 -0.3638
19603TIP3    H180224   2.488   0.839  13.150 -0.2721 -2.4842  0.1998
19603TIP3    H280225   2.560   0.770  13.036  1.8704 -0.8811  0.5268
19604TIP3   OH280226   5.774   5.071   5.279 -0.0921  0.4204 -0.3380
19604TIP3    H180227   5.832   4.995   5.278 -0.4908  0.0956 -2.0103
19604TIP3    H280228   5.686   5.034   5.267 -0.5890  0.9660  1.3776
19605TIP3   OH280229   3.024   3.287   1.565 -0.3719 -0.0923 -0.0496
19605TIP3    H180230   3.095   3.282   1.628  0.0229 -0.1119 -0.4902
19605TIP3    H280231   2.958   3.343   1.607 -0.1941 -0.2553  0.4493
19606TIP3   OH280232   6.571   6.566  14.249 -0.2723 -0.5614 -0.4754
19606TIP3    H180233   6.566   6.612  14.165  1.5545  0.7847  0.1005
19606TIP3    H280234   6.484   6.528  14.260 -0.7109 -0.3535 -2.7327
19607TIP3   OH280235   3.100   4.749  12.371 -0.2944 -0.3362  0.6717
19607TIP3    H180236   3.010   4.781  12.367  0.2987  1.5937  1.7837
19607TIP3    H280237   3.135   4.766  12.283 -0.9069 -0.8118  0.3270
19608TIP3   OH280238   3.674   0.012   3.033 -0.5930  0.3834  0.2003
19608TIP3    H180239   3.697  -0.047   2.962 -2.2456 -0.5936  0.4276
19608TIP3    H280240   3.677   0.099   2.993  0.6729  0.0796 -0.4503
19609TIP3   OH280241   6.350   4.299  12.605 -0.4259 -0.1591 -0.7890
19609TIP3    H180242   6.414   4.307  12.534 -0.8026  1.6609 -0.9609
19609TIP3    H280243   6.304   4.217  12.586  0.3717 -0.3662 -1.9017
19610TIP3   OH280244   0.114   3.158  13.988 -0.1171 -0.0227 -0.3527
19610TIP3    H180245   0.122   3.151  14.083 -0.0414  1.2117 -0.2554
19610TIP3    H280246   0.024   3.186  13.973 -0.1992 -0.4402 -0.6646
19611TIP3   OH280247   6.196   2.736  12.989 -0.2121 -0.0423 -0.1716
19611TIP3    H180248   6.165   2.788  12.914 -0.0551 -0.3468 -0.4494
19611TIP3    H280249   6.249   2.666  12.950  0.7060  0.3765  0.2837
19612TIP3   OH280250   4.114   1.494   5.614 -0.0779  0.8809  0.1057
19612TIP3    H180251   4.019   1.488   5.602  0.1259  1.1249 -2.0888
19612TIP3    H280252   4.128   1.577   5.660 -1.0014  0.0076  2.0414
19613TIP3   OH280253   3.667   5.632  11.486  0.1843  0.3095  0.0272
19613TIP3    H180254   3.731   5.584  11.539  0.8298  1.7482  0.5838
19613TIP3    H280255   3.696   5.619  11.396 -0.4057 -1.4070  0.0362
19614TIP3   OH280256   6.635   4.258  16.248 -0.0068 -0.1684 -0.5643
19614TIP3    H180257   6.548   4.293  16.266  0.3278  0.2590  0.2853
19614TIP3    H280258   6.619   4.183  16.190 -0.9498 -0.1789 -0.3118
19615TIP3   OH280259   6.590   6.536  12.243  0.1195  0.0256  0.8729
19615TIP3    H180260   6.580   6.560  12.335 -0.0450  2.0668  0.3676
19615TIP3    H280261   6.668   6.583  12.213  0.0560 -0.4465 -0.1047
19616TIP3   OH280262   1.934   6.494  15.230  0.0359  0.4689  1.0005
19616TIP3    H180263   2.010   6.442  15.256  0.0440  1.0939  2.3561
19616TIP3    H280264   1.887   6.439  15.168  2.3544  0.6453 -1.0951
19617TIP3   OH280265   5.482   4.206  16.054 -0.2624  0.3746 -0.4101
19617TIP3    H180266   5.389   4.209  16.078  0.1250  0.8123  1.1282
19617TIP3    H280267   5.509   4.117  16.079  0.0791  0.7448  0.5741
19618TIP3   OH280268   5.960   4.368  11.008  0.5294  0.2342 -0.3493
19618TIP3    H180269   5.998   4.433  11.067  0.3553 -0.7667  0.9183
19618TIP3    H280270   6.030   4.303  10.996 -0.8928 -2.1212  2.7615
19619TIP3   OH280271   6.391   5.757   2.947 -0.2879  0.8076  0.4572
19619TIP3    H180272   6.351   5.713   3.022 -1.2971  0.3688 -0.3280
19619TIP3    H280273   6.451   5.821   2.987 -0.3753  0.1929  1.6271
19620TIP3   OH280274   5.839   3.435   3.377  0.6105 -0.1342  0.3607
19620TIP3    H180275   5.900   3.456   3.449 -0.7723 -0.3391  1.6446
19620TIP3    H280276   5.851   3.341   3.363  2.4408  0.2632 -1.2341
19621TIP3   OH280277   5.498   2.182   2.006 -0.3270 -0.0534 -0.1025
19621TIP3    H180278   5.546   2.186   2.089  0.9282 -1.3761 -0.7171
19621TIP3    H280279   5.511   2.093   1.975 -1.5202  0.1581 -1.3026
19622TIP3   OH280280   0.144   4.483  11.239 -0.2494 -0.5953 -0.2708
19622TIP3    H180281   0.220   4.500  11.295 -0.0711 -1.2643 -0.3008
19622TIP3    H280282   0.096   4.566  11.239 -0.7474 -0.8451  1.6387
19623TIP3   OH280283   6.618   5.401  13.966 -0.5891  0.3076  0.2237
19623TIP3    H180284   6.601   5.431  13.877 -0.9388  0.8589  0.4682
19623TIP3    H280285   6.680   5.329  13.956 -0.0247  0.8647 -0.4073
19624TIP3   OH280286   3.564   5.645   0.361  0.2520  0.9012  0.3007
19624TIP3    H180287   3.576   5.690   0.277  0.9856  2.4884  1.1913
19624TIP3    H280288   3.477   5.674   0.391  0.6596  1.6546  0.8021
19625TIP3   OH280289   3.012   6.512   4.096 -0.7138  0.6279 -0.2501
19625TIP3    H180290   3.049   6.437   4.142 -1.7217  0.5142  0.4014
19625TIP3    H280291   3.012   6.486   4.004  1.0072  0.7250 -0.3083
19626TIP3   OH280292   0.424   6.535  11.701  0.0951 -0.1022 -0.0936
19626TIP3    H180293   0.423   6.549  11.607 -0.1251  0.5054 -0.0030
19626TIP3    H280294   0.511   6.500  11.719  0.4203  0.5247 -0.4216
19627TIP3   OH280295   2.349   2.118  13.845  0.1609  0.6471  0.4207
19627TIP3    H180296   2.330   2.030  13.877  0.6444  0.8759  1.3883
19627TIP3    H280297   2.441   2.132  13.865  0.4355  0.8960 -0.9251
19628TIP3   OH280298   5.302   0.422  12.228 -0.5488 -0.2861  0.4220
19628TIP3    H180299   5.326   0.335  12.198  0.1003  0.0124  0.0602
19628TIP3    H280300   5.326   0.424  12.321 -0.4216 -0.4368  0.3916
19629TIP3   OH280301   2.312   1.428   6.275 -0.0265  0.2201 -0.0876
19629TIP3    H180302   2.323   1.478   6.194  0.3118 -0.4843 -0.4846
19629TIP3    H280303   2.264   1.349   6.248  0.9332 -0.4867  0.2072
19630TIP3   OH280304   5.738   1.863   0.282  0.5104  1.1663 -0.4827
19630TIP3    H180305   5.830   1.851   0.306  0.9339  1.3217 -1.8929
19630TIP3    H280306   5.741   1.881   0.188 -1.1371 -1.2150 -1.0907
19631TIP3   OH280307   4.826   6.051  12.438 -0.5393  0.3651 -0.3736
19631TIP3    H180308   4.839   5.957  12.444 -4.6868 -0.5915 -2.5913
19631TIP3    H280309   4.828   6.070  12.344 -1.5712  2.0956 -0.1032
19632TIP3   OH280310   0.949   3.946   3.970  0.2204  0.0197 -0.3421
19632TIP3    H180311   1.045   3.948   3.976  0.1486  0.5709  0.8851
19632TIP3    H280312   0.926   4.028   3.926  0.2354  0.5944  0.7127
19633TIP3   OH280313   1.913   0.698   0.188 -0.4203 -0.0139 -0.3128
19633TIP3    H180314   1.955   0.612   0.183 -0.3097  0.0556 -0.6257
19633TIP3    H280315   1.825   0.683   0.152 -0.6672 -0.1596  0.3431
19634TIP3   OH280316   1.582   4.376   0.720 -0.6821  0.4279  0.5560
19634TIP3    H180317   1.513   4.310   0.720 -0.8053  0.5531  0.8571
19634TIP3    H280318   1.582   4.411   0.631 -0.0304 -0.5816  0.1390
19635TIP3   OH280319   0.228   3.817  11.287 -0.8360  0.3477 -0.0825
19635TIP3    H180320   0.220   3.722  11.291  3.1709 -0.0903  1.6998
19635TIP3    H280321   0.204   3.847  11.374  0.0740  0.7333  0.0370
19636TIP3   OH280322   1.209   3.666  14.406  0.0710  0.2015  0.4331
19636TIP3    H180323   1.164   3.622  14.335 -0.4453  2.0260 -0.4365
19636TIP3    H280324   1.167   3.633  14.485 -1.8021  0.7471 -0.2928
19637TIP3   OH280325   1.002   4.187   3.131  0.0802 -0.2436 -0.2835
19637TIP3    H180326   0.917   4.222   3.159  0.6281  0.3371  0.7130
19637TIP3    H280327   0.990   4.170   3.037 -1.1732 -0.3043 -0.1398
19638TIP3   OH280328   5.156   6.055  11.680 -0.2545  0.1897 -0.3624
19638TIP3    H180329   5.223   6.070  11.613  0.1308  0.5174  0.0850
19638TIP3    H280330   5.162   6.132  11.737 -2.3512  1.2027 -1.4076
19639TIP3   OH280331   0.923   4.281   3.599  0.1685  0.4424 -0.0921
19639TIP3    H180332   1.015   4.307   3.587 -0.3719  1.6622 -2.3381
19639TIP3    H280333   0.874   4.361   3.579 -1.4158 -0.4305  0.1938
19640TIP3   OH280334   2.186   5.731   0.844 -0.3559 -0.1016  0.3238
19640TIP3    H180335   2.273   5.722   0.806 -0.4645 -2.5895  0.4823
19640TIP3    H280336   2.159   5.820   0.822  1.7596  0.3578 -0.6805
19641TIP3   OH280337   1.639   1.621   4.021 -0.2077  0.1896  0.6659
19641TIP3    H180338   1.614   1.552   4.082 -0.0747  0.1416  0.6669
19641TIP3    H280339   1.616   1.586   3.934  0.3158 -0.0627  0.6242
19642TIP3   OH280340   2.445   6.297  16.787  0.1211 -0.6654  0.1360
19642TIP3    H180341   2.471   6.316  16.877  1.0180 -0.2835 -0.1860
19642TIP3    H280342   2.372   6.357  16.770  0.2192 -0.4452  0.4859
19643TIP3   OH280343   3.878   1.859  11.855 -0.0177  0.2353 -0.2822
19643TIP3    H180344   3.969   1.872  11.881 -0.3826 -0.8141  1.7706
19643TIP3    H280345   3.830   1.930  11.897 -0.3512 -0.2202  0.1234
19644TIP3   OH280346   0.830   4.649  17.135  0.7372 -0.4430  0.1051
19644TIP3    H180347   0.819   4.588  17.062 -1.6618  1.1200 -0.9860
19644TIP3    H280348   0.760   4.713  17.123  2.0041  1.4966  2.2129
19645TIP3   OH280349   2.737   3.347  12.828  0.2423 -0.4977 -0.3843
19645TIP3    H180350   2.685   3.378  12.754  0.1572 -1.1977 -0.6265
19645TIP3    H280351   2.792   3.277  12.790  0.7594 -0.3248  0.0421
19646TIP3   OH280352   5.357   3.706   5.998  0.2486 -0.2120  0.1542
19646TIP3    H180353   5.268   3.692   6.030  0.0565  0.8184  0.1096
19646TIP3    H280354   5.365   3.801   5.991  1.2578 -0.3063 -0.1200
19647TIP3   OH280355   3.486   0.670  13.688 -0.2053  0.1326 -0.0651
19647TIP3    H180356   3.478   0.608  13.760  2.0107 -0.3632 -0.1470
19647TIP3    H280357   3.404   0.720  13.688 -1.3561 -1.6742  1.0499
19648TIP3   OH280358   3.584   1.219   0.610  0.0725 -0.0641 -0.2969
19648TIP3    H180359   3.648   1.271   0.659 -0.0920 -0.0889 -0.0590
19648TIP3    H280360   3.510   1.208   0.670 -0.3603  0.3719 -0.7386
19649TIP3   OH280361   1.589   6.089   0.276 -0.0919 -0.2626  0.1157
19649TIP3    H180362   1.674   6.118   0.242  0.7002 -1.8768  0.6179
19649TIP3    H280363   1.532   6.090   0.199  1.3617 -2.6870 -1.1352
19650TIP3   OH280364   3.496   5.286  14.959  0.4956 -0.2933  0.1858
19650TIP3    H180365   3.586   5.257  14.947 -0.1472 -3.0690  1.3336
19650TIP3    H280366   3.447   5.206  14.976 -2.5864  0.8494 -2.3270
19651TIP3   OH280367   5.390   4.662   3.612 -0.3832 -0.7277 -0.0603
19651TIP3    H180368   5.361   4.737   3.560  0.8699 -0.2749 -0.1319
19651TIP3    H280369   5.321   4.597   3.600 -0.5820 -0.2878 -1.5336
19652TIP3   OH280370   6.231   6.525  15.898 -0.7157  0.1601  0.9019
19652TIP3    H180371   6.145   6.524  15.940 -0.8720  0.2791  0.5903
19652TIP3    H280372   6.234   6.609  15.853 -1.1053 -0.5198 -0.4504
19653TIP3   OH280373   3.087   0.119  13.123 -0.3138  0.8678  0.1836
19653TIP3    H180374   3.005   0.168  13.117 -0.3114  0.7335 -1.1789
19653TIP3    H280375   3.131   0.156  13.200 -2.6461 -0.6311  2.4307
19654TIP3   OH280376   4.779   4.869   3.097 -0.2084  0.2072 -0.3601
19654TIP3    H180377   4.772   4.919   3.178 -0.3919 -0.9911  0.3837
19654TIP3    H280378   4.873   4.858   3.084 -0.1561  1.0471 -0.7263
19655TIP3   OH280379   3.371   5.304   5.560  0.5761 -0.2284 -0.3921
19655TIP3    H180380   3.401   5.338   5.644  0.1417 -0.7515 -0.0167
19655TIP3    H280381   3.449   5.303   5.505  0.6470  1.1553 -0.3529
19656TIP3   OH280382   5.048   4.185  13.920  0.1052 -0.8379 -0.2987
19656TIP3    H180383   5.043   4.247  13.993 -0.5671 -0.5610 -0.5683
19656TIP3    H280384   5.099   4.231  13.853  0.0847 -0.7925 -0.2829
19657TIP3   OH280385   0.842   1.344   0.133  0.0205  0.3913  0.2891
19657TIP3    H180386   0.916   1.404   0.138 -0.5398  1.2387 -1.0452
19657TIP3    H280387   0.866   1.271   0.190  1.6821  0.8587  0.2366
19658TIP3   OH280388   5.016   6.733  17.128 -0.1467 -0.2979  0.2831
19658TIP3    H180389   4.949   6.698  17.069  0.6362  0.3900 -1.0588
19658TIP3    H280390   5.010   6.828  17.117 -0.4574 -0.0932  1.8764
19659TIP3   OH280391   5.765   4.933   3.594 -0.1885 -0.2447 -0.2007
19659TIP3    H180392   5.784   5.004   3.656  0.1867 -0.2998 -0.2488
19659TIP3    H280393   5.769   4.854   3.647 -3.7071 -0.0779  0.5752
19660TIP3   OH280394   3.132   2.723  12.939  0.5448  0.1010 -0.1983
19660TIP3    H180395   3.225   2.742  12.923 -0.0288  1.1378 -2.7523
19660TIP3    H280396   3.117   2.640  12.895  0.7227 -1.3450  2.2865
19661TIP3   OH280397   5.605   2.257  10.628  0.6705 -0.3062  0.1375
19661TIP3    H180398   5.670   2.187  10.630  2.1023  0.9660  1.6765
19661TIP3    H280399   5.607   2.290  10.539  1.2194 -1.1200 -0.1587
19662TIP3   OH280400   2.551   2.949   5.625  0.5511  0.4876 -0.2554
19662TIP3    H180401   2.541   2.865   5.671  0.7665  1.3467  1.4373
19662TIP3    H280402   2.576   2.924   5.536 -0.6694 -1.2715 -0.1734
19663TIP3   OH280403   1.891   2.991   5.993  0.2423  0.0301 -0.4460
19663TIP3    H180404   1.925   3.033   5.914  2.3955 -0.3636  0.2208
19663TIP3    H280405   1.893   3.060   6.060 -0.7220  0.1099 -0.4732
19664TIP3   OH280406   1.491   2.107  14.372 -0.0093  0.4838  0.3017
19664TIP3    H180407   1.491   2.180  14.311 -0.3150 -0.7743 -1.2884
19664TIP3    H280408   1.503   2.030  14.316 -2.1154 -0.8971  1.6116
19665TIP3   OH280409   1.381   0.186   1.829 -0.2880 -0.5117  0.9743
19665TIP3    H180410   1.363   0.117   1.893  1.5433 -2.6052 -0.6012
19665TIP3    H280411   1.469   0.216   1.851  0.4780 -1.4497 -0.6118
19666TIP3   OH280412   3.052   0.222  16.499  0.0192 -0.3708 -0.1610
19666TIP3    H180413   3.127   0.237  16.556 -0.6112 -2.0678  1.2166
19666TIP3    H280414   2.996   0.299  16.512  1.1443  0.5454 -0.6185
19667TIP3   OH280415   5.985   4.484  12.793 -0.0650  0.0627  0.2584
19667TIP3    H180416   5.893   4.476  12.820 -0.0050  0.4288  0.5816
19667TIP3    H280417   5.998   4.413  12.731 -0.7412  0.3761 -0.2592
19668TIP3   OH280418   5.830   5.841  16.519 -0.4014 -0.7511 -0.3036
19668TIP3    H180419   5.895   5.786  16.562 -0.0493 -0.3053 -0.2691
19668TIP3    H280420   5.790   5.892  16.590 -1.2383 -1.4784 -0.2357
19669TIP3   OH280421   5.969   3.240   1.962  0.1123  0.0380 -0.3482
19669TIP3    H180422   5.882   3.269   1.989  1.2013  1.4698  2.0241
19669TIP3    H280423   5.964   3.144   1.962 -1.0179  0.0529  1.5386
19670TIP3   OH280424   4.539   4.097  12.176 -0.1273 -0.1685  0.3770
19670TIP3    H180425   4.580   4.012  12.197 -0.7282 -1.7753 -3.9620
19670TIP3    H280426   4.606   4.161  12.200  1.5900 -2.0922  1.1033
19671TIP3   OH280427   1.773   0.768   3.929  0.3655  0.0528  0.4851
19671TIP3    H180428   1.806   0.678   3.923  0.0041 -0.1062  0.8505
19671TIP3    H280429   1.789   0.805   3.842 -0.2152 -0.6190  0.0794
19672TIP3   OH280430   4.781   1.455  13.345  0.6482 -0.3426 -0.3018
19672TIP3    H180431   4.729   1.417  13.415 -0.7135 -0.5214 -1.3739
19672TIP3    H280432   4.795   1.545  13.372  1.6324 -0.8540  1.0003
19673TIP3   OH280433   5.745   2.952  11.207  0.5261 -0.2146  0.2188
19673TIP3    H180434   5.670   2.898  11.180  1.4545 -1.2113 -0.4330
19673TIP3    H280435   5.705   3.029  11.248 -0.8403 -1.0183  0.4531
19674TIP3   OH280436   6.114   1.605  12.556 -0.0711 -0.0424 -0.3929
19674TIP3    H180437   6.144   1.676  12.498 -1.1697 -0.2898 -1.3019
19674TIP3    H280438   6.020   1.618  12.562 -0.4902 -2.0741 -1.5142
19675TIP3   OH280439   3.253   5.438   1.020 -0.2061 -0.2279 -0.5279
19675TIP3    H180440   3.323   5.436   0.955 -0.3722 -0.8223 -0.6943
19675TIP3    H280441   3.176   5.465   0.970 -0.3906 -0.9467 -0.6384
19676TIP3   OH280442   3.500   4.031   5.630  0.2369 -0.4156 -0.0750
19676TIP3    H180443   3.593   4.043   5.651  0.1830 -0.4106  0.1643
19676TIP3    H280444   3.492   3.937   5.614 -0.0208 -0.6872  1.4540
19677TIP3   OH280445   3.480   2.975   4.869  0.9206 -0.3866  0.1609
19677TIP3    H180446   3.538   3.047   4.843  0.6119 -0.2135 -0.0533
19677TIP3    H280447   3.539   2.909   4.905  1.3998 -0.7501 -1.2136
19678TIP3   OH280448   3.746   1.920   4.151 -0.3296  0.3269 -0.0641
19678TIP3    H180449   3.798   1.997   4.130 -0.5842  0.1943 -1.3178
19678TIP3    H280450   3.801   1.846   4.125 -0.6687  0.1523 -0.3136
19679TIP3   OH280451   2.986   1.624   2.416 -0.8244  0.0363  0.0838
19679TIP3    H180452   3.043   1.548   2.411  0.6600  1.1778 -1.4754
19679TIP3    H280453   3.038   1.691   2.460 -0.5583  1.3500 -2.0579
19680TIP3   OH280454   1.471   5.745   0.161  0.8052 -0.1468 -0.6841
19680TIP3    H180455   1.556   5.732   0.205  0.7851 -1.8284 -1.0816
19680TIP3    H280456   1.493   5.791   0.080  1.2127  0.2734 -0.3432
19681TIP3   OH280457   5.622   2.632   2.126  0.2337  0.1435  0.2226
19681TIP3    H180458   5.606   2.720   2.093 -0.4749  0.0749  0.3687
19681TIP3    H280459   5.635   2.579   2.048  0.6753  0.3769  0.1349
19682TIP3   OH280460   3.395   6.782   6.203 -0.4831  0.6707 -0.2226
19682TIP3    H180461   3.383   6.687   6.201 -0.5537  0.6868 -0.7460
19682TIP3    H280462   3.441   6.799   6.285 -0.3581  0.1700 -0.1860
19683TIP3   OH280463   5.573   1.152  12.254 -0.8912  0.1457 -0.8755
19683TIP3    H180464   5.585   1.232  12.203 -0.4818 -0.0325 -1.0607
19683TIP3    H280465   5.487   1.119  12.228 -0.3548 -0.3717 -2.0455
19684TIP3   OH280466   5.600   3.910   0.240 -0.1236  0.0839 -0.0043
19684TIP3    H180467   5.668   3.976   0.238 -0.5374  0.5464  0.7246
19684TIP3    H280468   5.609   3.868   0.326  0.3319 -1.0318 -0.5695
19685TIP3   OH280469   2.616   6.187   1.308 -0.7509 -0.4218  0.3140
19685TIP3    H180470   2.580   6.128   1.374 -1.2481  0.3667  0.7607
19685TIP3    H280471   2.685   6.136   1.265 -2.5669 -2.0868 -0.7867
19686TIP3   OH280472   4.869   0.983   3.629 -0.0399  0.1195  0.1823
19686TIP3    H180473   4.800   1.009   3.690 -0.5066  0.6326 -0.5523
19686TIP3    H280474   4.897   1.065   3.589  0.9566 -0.0934  0.4175
19687TIP3   OH280475   4.868   3.201   5.616  0.4072  0.4778  0.4526
19687TIP3    H180476   4.823   3.117   5.628  2.0735 -0.2731  1.8745
19687TIP3    H280477   4.897   3.199   5.524 -0.4456 -0.0339  0.1799
19688TIP3   OH280478   2.818   6.423   5.174  0.5303  0.5468  0.4370
19688TIP3    H180479   2.779   6.363   5.111  0.7431 -0.1457  0.9511
19688TIP3    H280480   2.763   6.502   5.169 -0.4095 -0.0914  0.5211
19689TIP3   OH280481   5.630   6.481   2.401  0.2832 -0.8594 -0.0476
19689TIP3    H180482   5.560   6.526   2.354  0.5742 -0.1828  0.1544
19689TIP3    H280483   5.676   6.551   2.449 -0.4888 -1.6006  1.8887
19690TIP3   OH280484   3.103   0.388  14.865  0.3931  0.2415 -0.1029
19690TIP3    H180485   3.080   0.474  14.832 -0.0688 -0.1885 -0.9349
19690TIP3    H280486   3.020   0.347  14.888  0.4376 -0.5861 -1.2827
19691TIP3   OH280487   4.148   1.887  16.722  0.2134  0.3839  0.3581
19691TIP3    H180488   4.131   1.793  16.711 -0.0059  0.3832  0.6916
19691TIP3    H280489   4.140   1.902  16.817 -0.4011  0.8643  0.2328
19692TIP3   OH280490   0.769   6.779  11.076  0.8999 -0.0705  0.3021
19692TIP3    H180491   0.688   6.801  11.030  1.8011  0.0110 -1.3112
19692TIP3    H280492   0.740   6.753  11.164 -1.1348 -2.4083 -0.9154
19693TIP3   OH280493   3.061   0.851   4.206 -0.1115 -0.1191  0.2716
19693TIP3    H180494   3.087   0.765   4.174 -1.6574 -1.4462  2.3400
19693TIP3    H280495   2.988   0.877   4.149  1.0776  0.3978 -1.0709
19694TIP3   OH280496   2.700   2.687  13.044 -0.6058  0.5869 -0.5454
19694TIP3    H180497   2.743   2.683  12.959  0.9261  0.2157  0.2080
19694TIP3    H280498   2.727   2.772  13.080  0.5169 -0.1523  0.4274
19695TIP3   OH280499   4.252   6.260  13.994 -0.2639  0.6476 -0.3272
19695TIP3    H180500   4.196   6.191  13.957 -1.4380  0.8242  1.0555
19695TIP3    H280501   4.340   6.224  13.989 -0.7941 -0.7424 -0.1150
19696TIP3   OH280502   6.276   5.529   1.119 -0.2810  0.6895 -0.3439
19696TIP3    H180503   6.271   5.528   1.214 -0.5082 -0.4069 -0.3550
19696TIP3    H280504   6.227   5.607   1.093  0.2215  1.2812  0.4514
19697TIP3   OH280505   0.063   5.184  15.028 -0.2402 -0.2535  0.2997
19697TIP3    H180506   0.133   5.129  15.065  0.1228 -0.3002 -0.4433
19697TIP3    H280507   0.029   5.134  14.955 -1.5078 -0.5164  1.0380
19698TIP3   OH280508   2.643   0.671   3.302  0.0758 -0.1181 -0.0197
19698TIP3    H180509   2.655   0.660   3.396  1.4584 -0.3140 -0.2032
19698TIP3    H280510   2.548   0.683   3.292 -0.0423  0.4072  1.4337
19699TIP3   OH280511   5.617   1.261   4.004  0.4171  0.1315 -0.2235
19699TIP3    H180512   5.589   1.232   3.917  1.7571 -0.7049 -0.4115
19699TIP3    H280513   5.574   1.346   4.016 -0.3609 -0.0699 -1.3922
19700TIP3   OH280514   1.821   3.573   4.323 -0.0038  0.3182  0.4886
19700TIP3    H180515   1.863   3.498   4.365 -0.6326 -0.0140  0.5245
19700TIP3    H280516   1.739   3.539   4.288 -0.1764  0.9315  0.2771
19701TIP3   OH280517   0.562   6.175  11.482  0.1383  0.2177 -0.5151
19701TIP3    H180518   0.532   6.141  11.567  0.3110  1.6973  0.1681
19701TIP3    H280519   0.528   6.113  11.418 -0.5969 -0.5534  0.5823
19702TIP3   OH280520   2.264   1.266   0.086  0.1524  0.3344 -0.3632
19702TIP3    H180521   2.173   1.280   0.112 -0.0188  1.1459 -1.3229
19702TIP3    H280522   2.304   1.220   0.160 -1.0343 -0.0347  0.0672
19703TIP3   OH280523   0.333   2.026   0.984  0.1154 -0.2250  0.5578
19703TIP3    H180524   0.394   2.067   0.923  0.7727 -0.5577  0.9794
19703TIP3    H280525   0.254   2.079   0.978  1.1139  1.4305  1.4844
19704TIP3   OH280526   0.213   6.716  11.492 -0.2527 -0.1675  0.2472
19704TIP3    H180527   0.120   6.697  11.480 -0.3908 -1.6627  2.9592
19704TIP3    H280528   0.216   6.775  11.567  0.9738  0.6361 -0.3994
19705TIP3   OH280529   3.913   5.148  16.909 -0.3028  0.6398  0.2031
19705TIP3    H180530   3.852   5.078  16.886  1.6449 -0.6082 -1.4665
19705TIP3    H280531   3.991   5.102  16.940  0.4951  2.1294  0.4670
19706TIP3   OH280532   3.786   3.331   1.720  0.2678  0.3056 -0.2599
19706TIP3    H180533   3.879   3.322   1.700  0.1677  1.2640 -1.2653
19706TIP3    H280534   3.744   3.260   1.671  0.5164 -0.5771  0.7671
19707TIP3   OH280535   2.791   4.089   4.643  0.2499 -0.4463  0.1852
19707TIP3    H180536   2.810   4.017   4.583  0.7205 -1.2169  1.2337
19707TIP3    H280537   2.696   4.095   4.645  0.1098 -2.4934  1.7448
19708TIP3   OH280538   5.771   0.971  11.380  0.3775 -0.3592 -0.4043
19708TIP3    H180539   5.777   1.059  11.344  1.0498  0.0413  0.6287
19708TIP3    H280540   5.857   0.955  11.419  0.1830 -1.3751 -0.3597
19709TIP3   OH280541   2.458   6.350  12.505  0.6573  0.1180  0.1788
19709TIP3    H180542   2.366   6.369  12.483  0.2322  0.3485  2.0239
19709TIP3    H280543   2.505   6.428  12.476 -0.2316  1.4691  2.1379
19710TIP3   OH280544   1.467   3.754  10.254 -0.1561 -0.3899 -0.2964
19710TIP3    H180545   1.558   3.771  10.277 -0.4855  2.1566 -0.5300
19710TIP3    H280546   1.416   3.812  10.311 -1.5105 -0.5121 -1.3118
19711TIP3   OH280547   2.697   0.996  15.064 -0.3204 -0.2127  0.0238
19711TIP3    H180548   2.707   0.941  14.986  0.6848  0.6063 -0.4566
19711TIP3    H280549   2.616   1.044  15.049  0.4101  0.7493 -1.0808
19712TIP3   OH280550   3.592   1.819  12.502  0.0010  0.0089 -0.1990
19712TIP3    H180551   3.617   1.805  12.411 -1.0350  2.7728 -1.0162
19712TIP3    H280552   3.496   1.811  12.502 -0.0451  0.4820  0.5358
19713TIP3   OH280553   2.147   1.664  14.204  0.1949  0.5120 -0.7819
19713TIP3    H180554   2.183   1.681  14.292  0.2178  0.5358 -0.7955
19713TIP3    H280555   2.168   1.573  14.186 -0.4673  0.2900 -0.4519
19714TIP3   OH280556   6.712   1.734  10.983  0.1639 -0.4911  0.3922
19714TIP3    H180557   6.745   1.753  11.070  1.4620 -0.2142 -0.1355
19714TIP3    H280558   6.617   1.729  10.993  0.0082  2.4781  1.2888
19715TIP3   OH280559   0.773   0.461   2.716 -0.3547 -0.3355  0.3486
19715TIP3    H180560   0.741   0.545   2.748  0.3200 -0.6986  2.1179
19715TIP3    H280561   0.784   0.473   2.622 -0.7704  1.3780  0.4875
19716TIP3   OH280562   2.482   5.624  15.058  0.0560 -0.3846 -0.0127
19716TIP3    H180563   2.409   5.625  14.996 -0.8317 -1.3337  0.9824
19716TIP3    H280564   2.473   5.541  15.104 -0.1356  0.8708  2.3523
19717TIP3   OH280565   4.765   2.065  13.078 -0.9771  0.1514  0.3613
19717TIP3    H180566   4.823   2.113  13.136 -1.1825 -1.2232  1.7559
19717TIP3    H280567   4.709   2.133  13.039 -0.2713  1.1903  1.1028
19718TIP3   OH280568   0.919   4.586   1.230 -0.1969  0.7077 -0.1585
19718TIP3    H180569   0.887   4.672   1.253 -0.6983  0.5420 -0.2265
19718TIP3    H280570   0.989   4.603   1.167 -0.2812  1.0632 -0.1587
19719TIP3   OH280571   4.216   2.401   4.514 -0.4877 -0.2320 -0.3673
19719TIP3    H180572   4.263   2.480   4.539 -0.9590  1.2662 -3.7982
19719TIP3    H280573   4.267   2.364   4.442 -0.2915 -3.1356  1.1091
19720TIP3   OH280574   3.411   5.250   4.065  0.0446 -0.4066  0.0005
19720TIP3    H180575   3.488   5.290   4.105 -0.2293  0.4293 -0.2675
19720TIP3    H280576   3.362   5.214   4.138 -0.3737  0.9565  0.4266
19721TIP3   OH280577   3.382   3.487   3.284 -0.7183  0.2106 -0.0114
19721TIP3    H180578   3.398   3.550   3.214 -0.6473 -0.1164 -0.2940
19721TIP3    H280579   3.362   3.405   3.238 -1.9082  0.2875  0.3368
19722TIP3   OH280580   2.353   3.579  17.120 -0.3734 -0.1545  0.7553
19722TIP3    H180581   2.406   3.499  17.129  2.3130  1.2266 -1.2618
19722TIP3    H280582   2.289   3.557  17.052  0.4594 -0.5722  0.0878
19723TIP3   OH280583   3.130   3.554  14.263  0.2483 -0.4769 -0.4345
19723TIP3    H180584   3.038   3.558  14.289  0.0575  2.0606 -1.1928
19723TIP3    H280585   3.176   3.524  14.341 -1.1852 -1.7356 -0.0246
19724TIP3   OH280586   3.964   6.094   0.784  0.2469 -0.0352  0.0418
19724TIP3    H180587   4.053   6.128   0.791  0.4655 -0.5832 -0.0690
19724TIP3    H280588   3.955   6.068   0.693 -0.1858  0.4401 -0.0575
19725TIP3   OH280589   0.602   3.154   3.850  0.4631  0.1547 -0.1982
19725TIP3    H180590   0.656   3.082   3.817 -1.1656 -1.4279  0.4485
19725TIP3    H280591   0.539   3.113   3.908 -0.3935  2.1538  0.3901
19726TIP3   OH280592   6.004   6.528  13.724  0.1097 -0.1311 -0.2323
19726TIP3    H180593   5.983   6.437  13.703 -0.0388  0.0406 -0.8592
19726TIP3    H280594   5.953   6.547  13.803  0.3249 -0.6637  0.0347
19727TIP3   OH280595   2.542   1.456   1.197  0.2041 -0.1178  0.5496
19727TIP3    H180596   2.478   1.506   1.247 -1.2342 -1.1297 -0.2136
19727TIP3    H280597   2.573   1.517   1.130  0.1063  0.4062  0.9729
19728TIP3   OH280598   3.623   3.976   4.352  0.3258 -0.6914  0.0316
19728TIP3    H180599   3.541   4.016   4.381  1.6431  1.0032  1.6733
19728TIP3    H280600   3.667   3.952   4.434  2.8637  1.4249 -0.5807
19729TIP3   OH280601   2.846   4.417   6.613  0.2565 -0.2711 -0.2532
19729TIP3    H180602   2.936   4.394   6.592  0.1444 -3.3208  1.9773
19729TIP3    H280603   2.796   4.389   6.536  1.0979  0.6105 -1.1362
19730TIP3   OH280604   0.100   0.064   5.576 -0.0906 -0.0062 -0.1981
19730TIP3    H180605   0.133   0.078   5.488  1.5235 -0.5622  0.2888
19730TIP3    H280606   0.011   0.029   5.563  0.0415  0.1328 -1.5834
19731TIP3   OH280607   4.929   5.683  12.214  0.2335  0.3537  0.3144
19731TIP3    H180608   4.922   5.597  12.173  1.7342  0.4390 -0.1730
19731TIP3    H280609   5.022   5.694  12.231 -0.0657  1.4228  1.3954
19732TIP3   OH280610   1.551   2.215   0.276  0.3079 -0.0661 -0.2474
19732TIP3    H180611   1.580   2.137   0.324 -1.0165 -1.2014 -1.2254
19732TIP3    H280612   1.527   2.182   0.190 -1.3739  1.2234 -0.3068
19733TIP3   OH280613   1.201   6.425   4.686  0.0227 -0.7812 -0.3306
19733TIP3    H180614   1.228   6.365   4.756  1.1588 -1.7619 -1.5375
19733TIP3    H280615   1.262   6.498   4.692 -1.2549  0.2132  1.0362
19734TIP3   OH280616   0.305   4.439  16.403 -0.1796 -0.5234  0.0842
19734TIP3    H180617   0.225   4.387  16.398 -0.4301 -0.1951  0.5901
19734TIP3    H280618   0.341   4.436  16.314 -1.8500  1.0342 -0.7102
19735TIP3   OH280619   4.887   2.476   0.278 -0.6038 -0.2100 -0.2741
19735TIP3    H180620   4.888   2.387   0.314 -1.2409  0.7378  2.2910
19735TIP3    H280621   4.922   2.530   0.348  0.8046  1.4890 -2.1832
19736TIP3   OH280622   6.202   2.202  13.697 -0.3321 -0.1164 -0.5067
19736TIP3    H180623   6.174   2.111  13.687  2.0950 -1.2486  1.7285
19736TIP3    H280624   6.293   2.203  13.667  0.1221  1.2271  0.7601
19737TIP3   OH280625   3.752   3.416   2.019  0.2940  0.0605 -0.2131
19737TIP3    H180626   3.752   3.348   1.951 -0.4610 -0.1392 -0.0188
19737TIP3    H280627   3.767   3.497   1.972  0.6437 -0.1759 -0.5148
19738TIP3   OH280628   4.201   2.631  15.418  0.3881  0.8121  0.2854
19738TIP3    H180629   4.159   2.693  15.359 -0.4164 -0.3368 -0.3984
19738TIP3    H280630   4.294   2.634  15.396  0.1380  0.6495 -0.8077
19739TIP3   OH280631   1.835   5.490   4.167 -0.1754 -0.4985 -0.7605
19739TIP3    H180632   1.740   5.481   4.172 -0.1537 -0.3650 -0.0491
19739TIP3    H280633   1.849   5.547   4.092 -0.6277 -0.9704 -1.2154
19740TIP3   OH280634   0.795   0.699   0.552 -0.3066  0.3923 -0.0337
19740TIP3    H180635   0.726   0.686   0.617  0.6251 -0.2259  0.8780
19740TIP3    H280636   0.779   0.787   0.517 -1.3946  0.3528  0.3403
19741TIP3   OH280637   2.696   3.319  11.041  0.6171  0.1205 -0.2309
19741TIP3    H180638   2.774   3.372  11.028  1.0885 -0.3562  0.5553
19741TIP3    H280639   2.710   3.242  10.985 -0.0367  0.7816 -1.3198
19742TIP3   OH280640   4.295   0.306  14.110  0.5053  0.8065  0.3799
19742TIP3    H180641   4.271   0.222  14.070  0.5700  0.6435  0.6834
19742TIP3    H280642   4.379   0.289  14.152  1.1606  1.3668 -0.6528
19743TIP3   OH280643   5.094   4.589  11.083 -0.0138 -0.1850  0.1510
19743TIP3    H180644   5.169   4.642  11.058 -0.1897  0.1809  0.3882
19743TIP3    H280645   5.105   4.507  11.035  2.1437 -1.3709  2.4237
19744TIP3   OH280646   5.911   2.776  11.457 -0.0315 -0.1658  0.2121
19744TIP3    H180647   5.881   2.807  11.371 -1.1995  0.5078  0.8470
19744TIP3    H280648   5.918   2.856  11.510 -1.8139 -0.8057  1.4950
19745TIP3   OH280649   4.130   4.281   1.824  0.2002 -0.0920  0.4300
19745TIP3    H180650   4.217   4.301   1.788  1.2449  0.1775  2.8980
19745TIP3    H280651   4.107   4.197   1.784  1.8901 -0.4684  0.1563
19746TIP3   OH280652   4.103   3.099  16.825  0.8640  0.0357 -0.0005
19746TIP3    H180653   4.023   3.132  16.783  0.9505 -1.1448 -1.1205
19746TIP3    H280654   4.158   3.177  16.833  0.7469  0.3696 -1.8743
19747TIP3   OH280655   1.582   5.665   0.924  0.4075  0.4962  0.3586
19747TIP3    H180656   1.517   5.736   0.925  0.9159  0.9768  0.1113
19747TIP3    H280657   1.536   5.591   0.885  0.6008  1.4413 -1.8708
19748TIP3   OH280658   6.639   3.194  13.892  0.5377  0.2494 -0.7649
19748TIP3    H180659   6.635   3.099  13.900  1.1047  0.3363  1.0868
19748TIP3    H280660   6.573   3.216  13.827 -0.8632 -1.2891  0.0758
19749TIP3   OH280661   6.201   6.712  10.715 -1.0077 -0.1116 -0.2249
19749TIP3    H180662   6.153   6.782  10.759 -1.8766 -0.2120 -0.9756
19749TIP3    H280663   6.293   6.738  10.721 -1.4258  2.3750 -2.5490
19750TIP3   OH280664   3.205   2.281  13.232 -0.6922 -0.0124  0.4131
19750TIP3    H180665   3.129   2.283  13.174 -0.1865  0.2463 -0.2596
19750TIP3    H280666   3.275   2.320  13.180 -0.3484  0.7088  1.3890
19751TIP3   OH280667   0.305   6.028   6.174 -0.4174  0.0807 -0.4533
19751TIP3    H180668   0.366   5.999   6.243 -1.3967 -0.3591  0.2550
19751TIP3    H280669   0.254   6.097   6.215 -1.2861 -0.4667 -0.5874
19752TIP3   OH280670   1.213   5.530   6.506  0.1877 -0.1265 -0.0463
19752TIP3    H180671   1.276   5.543   6.435  2.1613 -0.0728  1.6203
19752TIP3    H280672   1.190   5.437   6.501  0.1251 -0.0688 -0.8848
19753TIP3   OH280673   5.582   4.750   4.638  0.0413 -0.3807 -0.2422
19753TIP3    H180674   5.557   4.830   4.592  0.2243 -1.4569 -2.3186
19753TIP3    H280675   5.509   4.733   4.697 -2.2353 -1.1086 -3.0641
19754TIP3   OH280676   2.903   1.839  15.837 -0.0284  0.1000  0.0837
19754TIP3    H180677   2.957   1.907  15.796 -0.6307  1.3691  1.3160
19754TIP3    H280678   2.827   1.831  15.779  0.0917  0.4149 -0.1218
19755TIP3   OH280679   3.091   1.446   2.028  0.3010 -0.1385 -0.6256
19755TIP3    H180680   3.056   1.357   2.037  0.0695  0.0244  0.1988
19755TIP3    H280681   3.023   1.502   2.064  0.7685  0.3071 -0.4172
19756TIP3   OH280682   6.702   3.647   3.150 -0.5062 -0.0763  0.2462
19756TIP3    H180683   6.722   3.599   3.070 -0.3300  1.0375 -0.4061
19756TIP3    H280684   6.786   3.683   3.178 -0.4628 -0.9314  1.2684
19757TIP3   OH280685   2.111   5.663   4.203  0.2950 -0.1685  0.0695
19757TIP3    H180686   2.100   5.735   4.140 -0.2384  0.1880  0.5581
19757TIP3    H280687   2.055   5.593   4.169  2.1992 -1.0672 -1.4059
19758TIP3   OH280688   4.149   2.095   3.170 -0.3128 -0.1324 -0.3323
19758TIP3    H180689   4.161   2.167   3.231 -0.6498 -2.0773  2.2321
19758TIP3    H280690   4.238   2.069   3.146 -0.0958 -0.2541  0.5503
19759TIP3   OH280691   6.616   1.621   5.603 -0.0879 -0.1920 -0.1554
19759TIP3    H180692   6.599   1.590   5.514 -0.3362 -0.4996 -0.0036
19759TIP3    H280693   6.638   1.714   5.592  0.1840 -0.3014 -0.5646
19760TIP3   OH280694   1.395   4.810  12.364  0.0159 -0.1292  0.3342
19760TIP3    H180695   1.333   4.882  12.354 -0.8660 -0.6592  1.8310
19760TIP3    H280696   1.458   4.824  12.293 -2.2971 -0.1097 -1.8416
19761TIP3   OH280697   1.671   4.572   4.338  0.5044 -0.9997 -0.9857
19761TIP3    H180698   1.609   4.559   4.409  0.8580 -2.2295 -0.8849
19761TIP3    H280699   1.667   4.666   4.320 -3.8067 -1.4163 -3.2365
19762TIP3   OH280700   2.635   4.618   2.772 -0.7489  0.6230 -0.4079
19762TIP3    H180701   2.617   4.532   2.810 -0.9637  0.6030 -0.5527
19762TIP3    H280702   2.584   4.679   2.825  2.2517  1.1910  2.1738
19763TIP3   OH280703   3.820   4.221  17.064  0.6233  0.7570  0.6297
19763TIP3    H180704   3.844   4.306  17.026 -3.1978  1.2126 -1.2430
19763TIP3    H280705   3.821   4.160  16.990  0.5723 -0.1864  1.3886
19764TIP3   OH280706   6.802   5.762  16.344  0.1881 -0.4350 -0.3758
19764TIP3    H180707   6.839   5.817  16.413  0.9508  1.0820 -1.9260
19764TIP3    H280708   6.870   5.758  16.276 -1.0151 -0.7966 -1.6205
19765TIP3   OH280709   6.157   0.728   4.712  0.2621  0.1292 -0.1197
19765TIP3    H180710   6.160   0.649   4.766  0.1119  1.4519  1.9602
19765TIP3    H280711   6.247   0.760   4.712 -0.1748  1.5610  1.7200
19766TIP3   OH280712   3.964   4.197  15.443 -0.3167  0.2714  0.3423
19766TIP3    H180713   4.010   4.115  15.421 -0.0102  1.1930 -2.8833
19766TIP3    H280714   3.886   4.168  15.491  0.6541 -1.7515  0.8183
19767TIP3   OH280715   5.593   3.269   5.035 -0.2053 -0.1750 -0.4954
19767TIP3    H180716   5.544   3.246   5.114  0.1696  1.3775  0.2302
19767TIP3    H280717   5.684   3.276   5.065 -0.1410  1.0350 -0.8979
19768TIP3   OH280718   5.120   2.854   1.249  0.0423 -0.0222  0.4838
19768TIP3    H180719   5.169   2.885   1.172  1.0528 -0.4379  0.9547
19768TIP3    H280720   5.042   2.813   1.212  0.0472  0.6217 -0.2785
19769TIP3   OH280721   6.486   0.668  15.414  0.1308 -0.5767 -0.1061
19769TIP3    H180722   6.464   0.648  15.505 -1.2758  0.8833 -0.0635
19769TIP3    H280723   6.482   0.584  15.369 -1.5400 -1.0009  0.7557
19770TIP3   OH280724   4.123   3.785   3.892  0.0584 -0.5509 -0.4561
19770TIP3    H180725   4.192   3.852   3.893  1.2661 -1.7592  0.9308
19770TIP3    H280726   4.067   3.810   3.818  0.9116  1.5205 -0.4819
19771TIP3   OH280727   5.677   6.312  12.579  0.1962 -0.3764  0.0624
19771TIP3    H180728   5.764   6.280  12.555  0.1612 -0.2505 -0.2254
19771TIP3    H280729   5.687   6.407  12.584  0.1655 -0.3879  0.3954
19772TIP3   OH280730   5.876   4.085   2.030 -0.6670  0.4334  0.4195
19772TIP3    H180731   5.884   3.990   2.028 -0.1646  0.4207  2.0683
19772TIP3    H280732   5.940   4.116   1.965  1.3649 -0.2707  1.9875
19773TIP3   OH280733   0.986   3.481   3.489 -0.7203 -0.0926 -0.1805
19773TIP3    H180734   0.947   3.547   3.432  1.6692  1.3517 -0.3159
19773TIP3    H280735   1.020   3.531   3.564 -0.4640 -1.4406  0.6433
19774TIP3   OH280736   2.757   4.859   3.127 -0.3613  0.2485 -0.3934
19774TIP3    H180737   2.793   4.947   3.131 -0.6247  0.4025 -1.1699
19774TIP3    H280738   2.789   4.816   3.206  0.4959  0.7591 -0.4501
19775TIP3   OH280739   1.381   6.522   0.751  0.3085 -0.2587  0.5580
19775TIP3    H180740   1.352   6.437   0.719 -0.0568 -0.4401  1.3470
19775TIP3    H280741   1.397   6.508   0.845 -0.0849  0.6212  0.7666
19776TIP3   OH280742   2.192   3.068  14.003  0.4745  0.0200  0.0130
19776TIP3    H180743   2.231   2.985  14.032 -0.7382 -0.8518 -0.7847
19776TIP3    H280744   2.209   3.128  14.076  1.7649 -0.7837  0.4241
19777TIP3   OH280745   1.442   3.777  16.165  0.4863 -0.2955  0.1530
19777TIP3    H180746   1.534   3.778  16.194  1.3187 -0.0650 -2.2930
19777TIP3    H280747   1.440   3.836  16.090 -1.2032 -1.9199 -1.1482
19778TIP3   OH280748   6.266   5.453  15.725 -0.2617 -0.0241  0.2736
19778TIP3    H180749   6.321   5.509  15.670  3.2335 -2.6262  0.7598
19778TIP3    H280750   6.232   5.387  15.664 -0.4710 -0.0563  0.4265
19779TIP3   OH280751   5.706   1.477  10.538 -0.5204 -0.4355  0.8015
19779TIP3    H180752   5.645   1.466  10.612 -0.6508 -0.7079  0.6588
19779TIP3    H280753   5.726   1.387  10.511 -0.2152 -0.3411  0.7162
19780TIP3   OH280754   4.086   0.937   0.846 -0.1819 -0.0268 -0.5505
19780TIP3    H180755   4.081   0.879   0.922 -0.9182 -1.0492 -1.3506
19780TIP3    H280756   4.017   0.906   0.787 -1.0288  2.0482 -0.7553
19781TIP3   OH280757   3.761   4.571  17.176  0.0957 -0.1775  0.0623
19781TIP3    H180758   3.850   4.553  17.206 -0.7488 -2.4124  1.4482
19781TIP3    H280759   3.758   4.666  17.166  1.7810  0.2691  2.8266
19782TIP3   OH280760   4.317   6.541   1.982  0.2328  0.0467  0.4602
19782TIP3    H180761   4.342   6.449   1.995  0.3139  0.1747  1.3020
19782TIP3    H280762   4.368   6.589   2.048 -1.5856  0.4218  1.6790
19783TIP3   OH280763   3.402   3.295   0.107 -0.5929 -0.1503  0.8461
19783TIP3    H180764   3.366   3.327   0.190 -1.9020  0.0078  0.2399
19783TIP3    H280765   3.332   3.310   0.043  0.2220 -0.6936 -0.2029
19784TIP3   OH280766   4.523   0.653  15.162 -0.4704  0.3166  0.4976
19784TIP3    H180767   4.501   0.723  15.101  1.8409  1.1674  0.5614
19784TIP3    H280768   4.529   0.696  15.247 -3.8260 -0.8823  1.5019
19785TIP3   OH280769   2.420   1.248   0.832  0.1114 -0.4693  0.2768
19785TIP3    H180770   2.411   1.153   0.823  0.1031 -0.2928 -2.0466
19785TIP3    H280771   2.354   1.272   0.897  1.8162 -2.2898  2.9223
19786TIP3   OH280772   6.530   2.912  12.841 -0.3133 -0.1664 -0.3097
19786TIP3    H180773   6.437   2.933  12.837 -0.4739 -0.8121 -0.0187
19786TIP3    H280774   6.571   2.995  12.868 -0.8849 -0.0748  0.3149
19787TIP3   OH280775   1.765   6.693   5.303  0.3928  0.2606 -0.2583
19787TIP3    H180776   1.725   6.657   5.224 -0.0219  0.6198 -0.2184
19787TIP3    H280777   1.770   6.620   5.364  0.2359  0.1005 -0.4374
19788TIP3   OH280778   1.696   6.371   4.632  0.2419 -0.9613 -0.3516
19788TIP3    H180779   1.777   6.366   4.581 -0.0587 -0.8943 -0.8468
19788TIP3    H280780   1.663   6.460   4.615  1.3879 -0.0100  1.9194
19789TIP3   OH280781   3.986   1.561   3.154 -0.1971 -0.0409 -0.4674
19789TIP3    H180782   3.921   1.571   3.223 -0.6856 -2.7523 -0.4542
19789TIP3    H280783   3.973   1.473   3.120  1.8362  0.2258 -2.1794
19790TIP3   OH280784   4.407   4.317  13.488  0.4019  0.0525  0.3881
19790TIP3    H180785   4.493   4.288  13.457 -0.0768 -0.6625 -0.3064
19790TIP3    H280786   4.414   4.314  13.584  0.6306 -1.6328  0.3567
19791TIP3   OH280787   4.124   1.053   3.034 -0.1656 -0.2621 -0.3838
19791TIP3    H180788   4.171   0.973   3.058  0.2916  0.5543  1.7316
19791TIP3    H280789   4.036   1.041   3.072  0.2985  0.7169  1.0720
19792TIP3   OH280790   0.888   3.173   2.921 -0.4825 -0.1383  0.4376
19792TIP3    H180791   0.812   3.144   2.972  0.7003 -0.3406  2.1904
19792TIP3    H280792   0.851   3.222   2.848 -2.2735  0.6719  1.8129
19793TIP3   OH280793   2.595   5.368  12.449 -0.2823  0.6029  0.2998
19793TIP3    H180794   2.512   5.415  12.442  0.1560  1.3636  0.1613
19793TIP3    H280795   2.592   5.326  12.535 -2.7620 -3.1422 -1.3311
19794TIP3   OH280796   4.218   1.955  14.770  0.7477  0.4694 -0.1171
19794TIP3    H180797   4.249   2.019  14.833 -2.0172  0.6206  1.2514
19794TIP3    H280798   4.155   1.902  14.819 -2.4764  1.3652 -2.9443
19795TIP3   OH280799   2.272   2.854  12.217  0.5158 -0.1353  0.4670
19795TIP3    H180800   2.262   2.940  12.258 -0.3307  0.8357 -1.5790
19795TIP3    H280801   2.197   2.804  12.248  0.0583  0.4717  0.3716
19796TIP3   OH280802   4.902   4.209   5.560  0.3923  0.1929  0.3188
19796TIP3    H180803   4.928   4.148   5.491  1.8050  0.0957  0.8873
19796TIP3    H280804   4.839   4.267   5.519  0.2863 -0.6290 -0.7017
19797TIP3   OH280805   2.178   6.725  14.447  0.1179 -0.3819 -0.0787
19797TIP3    H180806   2.167   6.679  14.531  0.9348 -0.0842  0.2065
19797TIP3    H280807   2.163   6.817  14.468 -0.1140 -0.3596 -0.3502
19798TIP3   OH280808   0.814   1.313   0.570 -0.7010 -0.2257 -0.2093
19798TIP3    H180809   0.732   1.286   0.529 -0.8330 -2.2984  1.2730
19798TIP3    H280810   0.877   1.246   0.545 -0.0687  0.0511  0.5874
19799TIP3   OH280811   6.556   3.867   2.670  0.1425  0.1249 -0.1506
19799TIP3    H180812   6.625   3.919   2.711 -0.9968  1.6265 -0.0617
19799TIP3    H280813   6.546   3.791   2.727  0.3279  0.9151  0.9604
19800TIP3   OH280814   4.177   0.292  10.820  0.3287  0.2175 -0.0944
19800TIP3    H180815   4.190   0.229  10.891 -0.9606  1.0495  0.9217
19800TIP3    H280816   4.082   0.299  10.811  0.4615  1.3429 -0.8111
19801TIP3   OH280817   5.316   5.620  10.558 -0.0092 -0.3967  0.1013
19801TIP3    H180818   5.358   5.593  10.639  0.4964  2.4248  0.9113
19801TIP3    H280819   5.382   5.607  10.490  0.3384 -0.7570  0.5087
19802TIP3   OH280820   5.226   0.323  14.935  0.2603  0.1780 -0.3244
19802TIP3    H180821   5.131   0.334  14.943  0.3693  0.0705  1.5816
19802TIP3    H280822   5.250   0.376  14.859 -1.4593 -0.7141 -1.5474
19803TIP3   OH280823   0.979   1.015  15.110 -0.0740 -0.4194 -0.0598
19803TIP3    H180824   1.051   1.079  15.109 -0.0874 -0.4062 -0.1509
19803TIP3    H280825   0.951   1.012  15.202 -0.0453 -0.3265 -0.0483
19804TIP3   OH280826   2.651   2.232  16.525 -0.0994 -0.2968  0.5770
19804TIP3    H180827   2.639   2.282  16.444 -2.4883  0.8223  1.5341
19804TIP3    H280828   2.733   2.265  16.561 -0.6972  1.6524  0.2619
19805TIP3   OH280829   0.484   5.390  15.938  0.0321  0.3739  0.3464
19805TIP3    H180830   0.494   5.368  15.846  1.2309  4.4266 -0.6767
19805TIP3    H280831   0.413   5.453  15.941 -0.2149  0.0823  2.2841
19806TIP3   OH280832   3.579   4.267  12.968  0.2634  0.3021  0.2248
19806TIP3    H180833   3.554   4.346  13.015  2.2992  0.6690  0.7878
19806TIP3    H280834   3.614   4.209  13.036  0.4228 -0.3708 -0.4222
19807TIP3   OH280835   1.769   6.353  16.147  0.2467  0.2022 -0.2910
19807TIP3    H180836   1.725   6.279  16.105 -1.5463  1.2219 -0.2960
19807TIP3    H280837   1.817   6.314  16.220 -0.1916 -1.0288 -0.6329
19808TIP3   OH280838   5.593   1.101   2.943 -0.7380  0.0825  0.2571
19808TIP3    H180839   5.566   1.070   2.857  0.3754 -0.7957  0.2054
19808TIP3    H280840   5.674   1.149   2.927 -0.0733 -0.7881  0.8959
19809TIP3   OH280841   4.734   3.866  16.496  0.6673 -0.2627  0.0717
19809TIP3    H180842   4.767   3.788  16.452 -0.3399 -1.3996  1.2592
19809TIP3    H280843   4.785   3.872  16.577  1.3513  0.8423 -0.4186
19810TIP3   OH280844   4.539   6.285   0.376 -0.4448 -0.8119  0.5230
19810TIP3    H180845   4.577   6.371   0.396  0.4042 -1.3840  1.4975
19810TIP3    H280846   4.506   6.294   0.287  3.2431 -0.6217 -1.0279
19811TIP3   OH280847   0.546   5.855   5.391 -0.4975  0.2128  0.0247
19811TIP3    H180848   0.516   5.779   5.441  0.0703 -0.0819 -0.0791
19811TIP3    H280849   0.521   5.930   5.445 -1.1920 -0.0343  0.0586
19812TIP3   OH280850   2.872   2.421  16.499  0.2992 -0.3550 -0.6237
19812TIP3    H180851   2.795   2.448  16.449  1.8666  2.6339 -1.6722
19812TIP3    H280852   2.943   2.417  16.435  2.4015  3.6637  1.0372
19813TIP3   OH280853   1.495   4.424  11.554  0.0549 -0.6633 -0.4824
19813TIP3    H180854   1.474   4.400  11.464  0.2658 -3.7255  0.1861
19813TIP3    H280855   1.410   4.430  11.598 -0.0086  0.1095 -0.6953
19814TIP3   OH280856   6.320   0.910   3.646  0.0978 -0.1651  0.0572
19814TIP3    H180857   6.312   0.996   3.604  1.7357 -0.4888 -1.0278
19814TIP3    H280858   6.240   0.900   3.696 -0.9850  1.1894 -1.3117
19815TIP3   OH280859   6.376   0.557  14.027  0.1975 -0.2004 -0.3686
19815TIP3    H180860   6.448   0.505  14.062 -0.7404 -2.9898 -2.2734
19815TIP3    H280861   6.325   0.582  14.104  0.6417 -2.2219  0.6428
19816TIP3   OH280862   0.376   3.355  10.373  1.0685  0.2605  0.0814
19816TIP3    H180863   0.374   3.302  10.293 -1.6362  1.7439 -0.9823
19816TIP3    H280864   0.435   3.427  10.353  0.1594  0.7992 -0.7526
19817TIP3   OH280865   4.083   6.243  14.745 -0.4033  0.0162  0.0349
19817TIP3    H180866   4.016   6.310  14.747 -1.2422 -0.7637 -0.8918
19817TIP3    H280867   4.079   6.207  14.657  1.4231  0.1292 -0.1306
19818TIP3   OH280868   6.472   1.905   1.696  0.0208  0.0029 -0.4643
19818TIP3    H180869   6.510   1.989   1.668 -0.8568 -0.0858 -2.0256
19818TIP3    H280870   6.481   1.848   1.620  0.6506 -1.3764  0.5929
19819TIP3   OH280871   4.698   1.545   1.217  0.0877  0.4016 -0.2693
19819TIP3    H180872   4.703   1.557   1.312 -0.0445 -0.8616 -0.0753
19819TIP3    H280873   4.786   1.567   1.186  0.7536 -1.1144  0.4229
19820TIP3   OH280874   0.555   2.913  12.594 -0.7046  0.1946  0.0893
19820TIP3    H180875   0.620   2.933  12.662 -0.0382 -0.2297 -0.4208
19820TIP3    H280876   0.536   2.998  12.554  2.5205 -0.0755 -2.4383
19821TIP3   OH280877   0.584   2.584  11.030  0.4929  0.0511 -0.1716
19821TIP3    H180878   0.578   2.661  10.973 -0.1597 -0.7468 -1.2281
19821TIP3    H280879   0.550   2.614  11.114 -2.4243  0.2715 -1.2914
19822TIP3   OH280880   1.154   0.846   2.913  0.3652  0.2918 -0.3536
19822TIP3    H180881   1.101   0.858   2.834  1.0422  0.3093 -0.8092
19822TIP3    H280882   1.119   0.766   2.953 -1.0539  1.1437  0.2101
19823TIP3   OH280883   4.786   4.675  14.507  0.1300  0.2892  0.4253
19823TIP3    H180884   4.761   4.628  14.587 -1.4763 -2.3112 -1.4470
19823TIP3    H280885   4.745   4.761  14.517 -1.5129 -0.5665  1.6780
19824TIP3   OH280886   4.263   2.062   3.820 -0.3108  0.6063 -0.1213
19824TIP3    H180887   4.189   2.074   3.880 -1.9148 -0.5509 -1.7244
19824TIP3    H280888   4.265   2.143   3.769  0.8809  1.4773  1.2368
19825TIP3   OH280889   6.742   3.360   2.026 -0.2409 -0.4288  0.1762
19825TIP3    H180890   6.673   3.409   2.071  0.5844 -0.8060  1.9366
19825TIP3    H280891   6.695   3.307   1.962 -1.1322  3.2760 -2.6124
19826TIP3   OH280892   2.381   0.657  15.124  0.4907 -0.3565 -0.2235
19826TIP3    H180893   2.401   0.683  15.214 -0.2377  0.4006 -0.2684
19826TIP3    H280894   2.467   0.643  15.084  1.0017  2.2900 -0.2692
19827TIP3   OH280895   6.689   4.460  16.478  0.4463 -0.2205  0.3864
19827TIP3    H180896   6.605   4.452  16.434  0.3709  3.2059 -0.3314
19827TIP3    H280897   6.753   4.427  16.414  0.0131  1.3180 -0.8828
19828TIP3   OH280898   0.825   5.576   1.990 -0.0044  0.6394  0.3411
19828TIP3    H180899   0.812   5.639   2.061 -1.6693 -0.7757  1.4000
19828TIP3    H280900   0.910   5.536   2.009 -0.0918  0.8018  1.1339
19829TIP3   OH280901   3.198   3.322  14.830 -0.3873  0.0399  0.3346
19829TIP3    H180902   3.269   3.272  14.791  0.8670  0.5880  1.8258
19829TIP3    H280903   3.146   3.353  14.755  1.0044 -0.2693 -0.7973
19830TIP3   OH280904   3.914   0.043  12.270  0.3494  0.3980 -0.0056
19830TIP3    H180905   3.913   0.049  12.366  1.1323  1.0659 -0.0277
19830TIP3    H280906   3.909   0.134  12.241 -0.0876  0.1866 -0.6047
19831TIP3   OH280907   5.596   1.536   2.406  0.1550 -0.3033  0.0368
19831TIP3    H180908   5.678   1.489   2.420  0.2621 -0.5611 -1.3044
19831TIP3    H280909   5.611   1.588   2.327 -1.1392 -0.8067 -0.5783
19832TIP3   OH280910   3.374   4.872  11.294  0.0302  0.0206 -0.5427
19832TIP3    H180911   3.463   4.907  11.294 -0.2589  0.8571  1.1111
19832TIP3    H280912   3.322   4.938  11.340 -0.8312 -1.8301  1.3191
19833TIP3   OH280913   5.500   1.769   0.383 -0.0793  0.5747  0.0244
19833TIP3    H180914   5.451   1.849   0.361  0.2054  0.2520 -1.9283
19833TIP3    H280915   5.587   1.784   0.348  0.4370  0.0209  1.0439
19834TIP3   OH280916   1.262   2.689   2.428  0.1542  0.2378  0.3062
19834TIP3    H180917   1.343   2.701   2.477 -0.1153  1.1674  0.5523
19834TIP3    H280918   1.238   2.777   2.400 -0.4352 -0.1076 -0.3084
19835TIP3   OH280919   2.356   2.936  13.483  0.3818 -0.7761 -0.2308
19835TIP3    H180920   2.284   2.945  13.545  0.9787  0.3738  0.3173
19835TIP3    H280921   2.318   2.958  13.398  0.0206 -0.4564  0.0114
19836TIP3   OH280922   2.323   1.193  13.343  0.1485 -0.0973 -0.0057
19836TIP3    H180923   2.343   1.231  13.428  2.5979  3.1291 -1.7922
19836TIP3    H280924   2.244   1.238  13.315 -1.2250 -1.8619  0.8483
19837TIP3   OH280925   2.083   3.509  13.153  0.7533  0.6152 -0.6119
19837TIP3    H180926   2.026   3.534  13.226  2.4003  1.0915  0.5582
19837TIP3    H280927   2.159   3.469  13.194  1.3735  0.1666 -2.1209
19838TIP3   OH280928   1.185   3.638  16.647 -0.4938 -0.2860 -0.1550
19838TIP3    H180929   1.213   3.576  16.580 -0.5556  1.8608 -2.3126
19838TIP3    H280930   1.242   3.714  16.635 -1.7449  0.8941  0.9778
19839TIP3   OH280931   1.364   3.238   5.957  0.6868 -0.4497 -0.2705
19839TIP3    H180932   1.405   3.325   5.959 -0.2978  0.0221  0.2276
19839TIP3    H280933   1.319   3.231   6.041 -1.1284 -0.4951 -1.1983
19840TIP3   OH280934   6.432   2.404   1.903 -0.6484 -0.6943 -0.1797
19840TIP3    H180935   6.480   2.487   1.900 -2.7552  0.6336  0.2692
19840TIP3    H280936   6.419   2.387   1.996 -1.0696 -0.9941 -0.2916
19841TIP3   OH280937   6.175   3.723  15.284  0.0128  0.5076 -0.1136
19841TIP3    H180938   6.242   3.660  15.257  0.6744  1.1583 -0.0412
19841TIP3    H280939   6.170   3.712  15.379 -0.0037  0.4391 -0.1219
19842TIP3   OH280940   1.038   1.524   0.891 -0.0050  0.0010 -0.0365
19842TIP3    H180941   1.105   1.521   0.823 -0.0174 -0.3325 -0.0371
19842TIP3    H280942   1.058   1.449   0.947  1.7176  1.8048  1.9642
19843TIP3   OH280943   0.819   2.205   5.960  0.0288  0.0695 -0.3625
19843TIP3    H180944   0.730   2.235   5.979 -0.0992 -0.1676 -0.5923
19843TIP3    H280945   0.874   2.281   5.980 -0.0768 -0.2303  1.1911
19844TIP3   OH280946   4.884   2.664   0.079 -0.5510  0.4598 -0.0181
19844TIP3    H180947   4.796   2.666   0.041 -1.2237  0.0073  1.4734
19844TIP3    H280948   4.872   2.626   0.166  0.9369  1.5547  0.6971
19845TIP3   OH280949   2.863   3.420   2.046 -0.5608 -0.6276 -0.3117
19845TIP3    H180950   2.843   3.445   2.136 -0.0288 -1.8614  0.1754
19845TIP3    H280951   2.887   3.328   2.052 -0.1768 -0.6342 -1.6727
19846TIP3   OH280952   2.513   3.561   4.226  0.1740  0.3070 -0.1364
19846TIP3    H180953   2.532   3.472   4.196  1.1545  0.7903 -1.0296
19846TIP3    H280954   2.584   3.614   4.190  0.1635  1.3021  1.2209
19847TIP3   OH280955   4.655   1.696   1.451  0.0623  0.5865 -0.6025
19847TIP3    H180956   4.647   1.664   1.541 -0.8412 -1.6427 -1.4286
19847TIP3    H280957   4.738   1.744   1.450  0.6697 -0.3484  1.1359
19848TIP3   OH280958   1.166   2.546  10.168 -0.2236 -0.2403 -0.2197
19848TIP3    H180959   1.145   2.497  10.247 -0.3037  0.2882  0.0968
19848TIP3    H280960   1.097   2.522  10.106 -0.9954  0.4208  0.3510
19849TIP3   OH280961   5.942   3.548   5.910 -0.2534  0.4894  0.0634
19849TIP3    H180962   5.940   3.631   5.958 -0.1179  0.2603  0.4693
19849TIP3    H280963   5.985   3.487   5.970  0.6974  0.4028 -0.6730
19850TIP3   OH280964   2.311   2.682  12.831  0.4259  0.3028  0.1791
19850TIP3    H180965   2.233   2.666  12.884  0.9219 -0.9702  0.5417
19850TIP3    H280966   2.384   2.666  12.890  0.9776 -0.2326 -0.6403
19851TIP3   OH280967   3.338   0.398   4.610  0.2041  0.0195 -0.2920
19851TIP3    H180968   3.313   0.472   4.666 -1.1327 -0.1161 -0.6806
19851TIP3    H280969   3.301   0.419   4.524  1.7112 -0.0626 -1.0094
19852TIP3   OH280970   0.569   1.005   0.754 -0.2534  0.3216 -0.3521
19852TIP3    H180971   0.545   0.959   0.835  0.8131  0.7475  0.2176
19852TIP3    H280972   0.664   1.005   0.753 -0.2403 -0.0112 -1.8192
19853TIP3   OH280973   0.988   2.213   1.162 -0.2715  0.3079  0.2066
19853TIP3    H180974   1.006   2.124   1.131 -4.1194  0.1379 -2.2327
19853TIP3    H280975   1.022   2.270   1.092 -0.2848  0.5861  0.4230
19854TIP3   OH280976   0.751   2.940   0.151 -0.9637  0.6428  0.1819
19854TIP3    H180977   0.709   3.015   0.193 -1.3258 -0.4004  1.7636
19854TIP3    H280978   0.736   2.867   0.212  1.4589 -0.1911 -0.1177
19855TIP3   OH280979   6.276   6.131   0.768 -0.4675  0.0133  0.0492
19855TIP3    H180980   6.343   6.063   0.762 -1.1833 -0.8440  1.2835
19855TIP3    H280981   6.274   6.154   0.861 -1.0115  0.9284 -0.1762
19856TIP3   OH280982   3.796   1.277  14.433 -0.0092 -0.6741  0.3118
19856TIP3    H180983   3.774   1.274  14.340 -1.1460 -1.6575  0.5948
19856TIP3    H280984   3.831   1.190  14.452  1.6210 -0.0123  0.4964
19857TIP3   OH280985   0.560   0.408  12.876 -0.4739  0.3777  0.4213
19857TIP3    H180986   0.652   0.399  12.899 -0.2215 -1.7663 -1.1505
19857TIP3    H280987   0.560   0.451  12.791 -1.0009  1.2094  0.8275
19858TIP3   OH280988   6.070   0.309   0.057  0.0905  0.0153  0.0424
19858TIP3    H180989   6.146   0.359   0.028  0.2703 -0.8311 -1.0031
19858TIP3    H280990   6.077   0.308   0.153  0.7974  0.8397  0.0144
19859TIP3   OH280991   6.669   0.358   2.192 -0.1502 -0.9394 -0.1476
19859TIP3    H180992   6.693   0.419   2.122  2.0333  0.2062  1.4577
19859TIP3    H280993   6.578   0.378   2.211  0.1356  0.9636 -0.5567
19860TIP3   OH280994   3.501   6.434  11.391 -0.2578 -0.4250 -0.2280
19860TIP3    H180995   3.440   6.390  11.331  1.1088 -1.5564 -0.8471
19860TIP3    H280996   3.549   6.495  11.335 -1.9208  1.7324  0.5696
19861TIP3   OH280997   4.227   6.228   0.665 -0.9619 -0.0845 -0.1833
19861TIP3    H180998   4.281   6.284   0.721  0.1323 -1.8648  0.5988
19861TIP3    H280999   4.257   6.248   0.576 -0.7702  0.7448  0.0569
19862TIP3   OH281000   4.888   3.674   4.934 -0.6516 -0.9271 -0.5869
19862TIP3    H181001   4.971   3.717   4.955 -0.6816 -1.0176 -0.2896
19862TIP3    H281002   4.821   3.738   4.959 -0.6754 -0.8663 -0.7992
19863TIP3   OH281003   0.708   2.868   3.227 -0.0845 -0.2324  0.4702
19863TIP3    H181004   0.664   2.788   3.199 -0.4009  0.2155 -0.3396
19863TIP3    H281005   0.784   2.838   3.278 -0.5164 -1.0284  0.6478
19864TIP3   OH281006   3.681   3.600  16.595 -0.1150  0.3280 -0.2271
19864TIP3    H181007   3.662   3.604  16.689 -3.6180 -0.0115 -0.7704
19864TIP3    H281008   3.677   3.507  16.574 -1.2033  0.5122 -0.9499
19865TIP3   OH281009   4.373   3.325  16.542 -0.1870 -0.2942  0.3101
19865TIP3    H181010   4.454   3.319  16.593 -1.1652 -0.5786  1.8817
19865TIP3    H281011   4.314   3.376  16.597 -1.3169 -0.6752 -0.5202
19866TIP3   OH281012   0.253   2.286  16.252  0.1190 -0.3648  0.0441
19866TIP3    H181013   0.228   2.245  16.335 -0.9387 -0.1923 -0.1656
19866TIP3    H281014   0.326   2.233  16.220  0.4047 -0.5586  0.9774
19867TIP3   OH281015   3.246   1.645  12.604 -0.4053 -0.6092  0.4166
19867TIP3    H181016   3.288   1.701  12.539 -1.8491  0.3258  0.2314
19867TIP3    H281017   3.152   1.664  12.594 -0.7183 -1.1134  2.1472
19868TIP3   OH281018   3.940   4.921   3.109 -0.2004  0.1138 -0.3355
19868TIP3    H181019   3.911   5.011   3.095 -1.6363 -0.4981 -1.4290
19868TIP3    H281020   4.005   4.928   3.179 -1.0920  1.8591  0.3748
19869TIP3   OH281021   0.413   1.408   4.576  0.5356  0.6760  0.2331
19869TIP3    H181022   0.504   1.402   4.605  1.1209  0.2889 -1.5411
19869TIP3    H281023   0.365   1.347   4.632  1.3895  0.8100  1.1236
19870TIP3   OH281024   6.240   2.292  11.102  0.5577  0.3597 -0.0614
19870TIP3    H181025   6.329   2.312  11.131  0.9829  0.8983 -1.6413
19870TIP3    H281026   6.249   2.209  11.056  0.1621  0.2447  0.0644
19871TIP3   OH281027   3.386   3.511  12.569 -0.0671 -0.1928  0.2027
19871TIP3    H181028   3.454   3.447  12.591  0.6095  0.8014  1.1011
19871TIP3    H281029   3.434   3.589  12.541 -0.8432  0.3468  0.3259
19872TIP3   OH281030   1.474   3.481  15.157  0.7604  0.8443  0.0171
19872TIP3    H181031   1.382   3.500  15.139  0.3706 -1.1307 -0.3907
19872TIP3    H281032   1.496   3.411  15.096  1.7490 -0.5647  1.8698
19873TIP3   OH281033   2.647   3.629  14.171 -0.2224  0.0119  0.6191
19873TIP3    H181034   2.593   3.706  14.192 -0.7670 -0.4163  0.8050
19873TIP3    H281035   2.732   3.649  14.210 -0.8726 -0.2478  2.2883
19874TIP3   OH281036   5.821   1.042   3.835  0.3807 -0.4150  0.3136
19874TIP3    H181037   5.801   1.076   3.922  1.6984 -0.1205  0.5256
19874TIP3    H281038   5.736   1.033   3.792 -0.3030 -0.7430  1.6911
19875TIP3   OH281039   2.614   0.280  16.498  0.1148 -0.2084 -0.6262
19875TIP3    H181040   2.629   0.204  16.441  0.8343 -0.9426  0.5027
19875TIP3    H281041   2.537   0.256  16.550  1.0281 -0.6985  0.5504
19876TIP3   OH281042   1.027   3.393  13.149  0.2621 -0.5530  0.4437
19876TIP3    H181043   1.019   3.299  13.137 -0.3915 -0.4956  0.3712
19876TIP3    H281044   1.092   3.404  13.218 -1.2253 -1.1278  2.0029
19877TIP3   OH281045   2.672   0.846  10.547  0.0589 -0.4543  0.2918
19877TIP3    H181046   2.632   0.916  10.494 -0.3931 -1.3793 -0.6211
19877TIP3    H281047   2.629   0.766  10.517  1.1637 -1.2333  0.7345
19878TIP3   OH281048   3.610   0.251   3.438  0.1794 -0.1825 -0.0471
19878TIP3    H181049   3.519   0.228   3.418 -0.0770  0.7327  0.0237
19878TIP3    H281050   3.635   0.309   3.366 -0.3182  2.0943  1.5045
19879TIP3   OH281051   0.936   1.613  16.741 -0.5091  0.1145  0.3854
19879TIP3    H181052   0.973   1.673  16.806  0.3029 -1.5257  1.5097
19879TIP3    H281053   1.002   1.611  16.671  0.4204 -0.9368  1.2594
19880TIP3   OH281054   1.466   2.706  16.580  0.1961  0.8814 -0.3723
19880TIP3    H181055   1.379   2.748  16.583 -0.8012 -1.0786 -0.4546
19880TIP3    H281056   1.491   2.698  16.672 -0.9507 -0.9225 -0.1784
19881TIP3   OH281057   2.824   2.055   4.373 -0.2395 -0.3920  0.1725
19881TIP3    H181058   2.766   2.054   4.296 -0.8176 -4.0908  0.4728
19881TIP3    H281059   2.764   2.063   4.447  0.0574  0.2006  0.3525
19882TIP3   OH281060   0.802   4.063   1.708 -0.4124  0.5430  0.0499
19882TIP3    H181061   0.772   4.074   1.798 -0.5831 -0.3084  0.1019
19882TIP3    H281062   0.806   4.153   1.673  2.1788  1.1510  1.6864
19883TIP3   OH281063   0.438   0.597   1.355  0.7219  0.5835  0.2219
19883TIP3    H181064   0.512   0.565   1.406 -0.0881  0.5015  1.3797
19883TIP3    H281065   0.362   0.586   1.412 -0.8636 -2.8202 -2.2028
19884TIP3   OH281066   2.345   5.970  10.872  0.4006 -0.2503 -0.1446
19884TIP3    H181067   2.354   5.916  10.794  1.7759 -0.5395  0.1967
19884TIP3    H281068   2.253   5.961  10.897  0.0624 -0.5548 -1.4318
19885TIP3   OH281069   0.048   3.557  10.380 -0.0319 -1.1849  0.1025
19885TIP3    H181070   0.121   3.514  10.425  0.7209 -0.5411 -0.4709
19885TIP3    H281071   0.090   3.607  10.310 -1.0641 -1.1101 -0.4798
19886TIP3   OH281072   0.709   4.430  13.089  0.1171 -0.5694 -0.0978
19886TIP3    H181073   0.776   4.369  13.059 -1.3465 -2.5489  0.3988
19886TIP3    H281074   0.640   4.373  13.125 -0.3043  1.4474  2.6024
19887TIP3   OH281075   0.974   3.762  12.777  0.4122 -0.9370 -0.0795
19887TIP3    H181076   0.883   3.774  12.806  0.4769  0.0005 -0.2421
19887TIP3    H281077   0.980   3.668  12.755 -0.3087 -1.1525  0.6111
19888TIP3   OH281078   4.318   1.961   1.214 -0.0970  0.0482  0.0293
19888TIP3    H181079   4.287   2.025   1.278  3.0983 -0.1630  1.9923
19888TIP3    H281080   4.339   1.883   1.266  2.4485 -0.1875 -1.2423
19889TIP3   OH281081   3.545   4.574   0.189  0.0419 -0.4052 -0.0039
19889TIP3    H181082   3.608   4.565   0.118  0.4517 -0.8614  0.4134
19889TIP3    H281083   3.594   4.553   0.268 -0.5054 -0.2669  0.3817
19890TIP3   OH281084   1.778   5.087   0.452 -0.5339 -0.1870  0.1816
19890TIP3    H181085   1.855   5.122   0.407 -1.5206  0.4239 -1.1138
19890TIP3    H281086   1.806   5.002   0.485  0.7693  0.1347 -0.0327
19891TIP3   OH281087   2.564   3.480  12.631 -0.2327  0.4128  0.3617
19891TIP3    H181088   2.490   3.445  12.682 -0.7159  1.0460  0.0962
19891TIP3    H281089   2.523   3.530  12.561  0.3631 -1.8665 -1.7377
19892TIP3   OH281090   6.578   1.289   1.601 -0.4278 -0.1101  0.3766
19892TIP3    H181091   6.612   1.377   1.621  1.0762 -0.4186 -0.6761
19892TIP3    H281092   6.536   1.298   1.516  0.9951 -0.6815 -0.4210
19893TIP3   OH281093   2.440   5.866   4.018 -0.4992 -0.4127 -0.5800
19893TIP3    H181094   2.405   5.955   4.022 -0.3559 -0.2294 -2.6870
19893TIP3    H281095   2.367   5.812   3.990 -0.6977 -1.0834  1.0850
19894TIP3   OH281096   5.403   1.723   3.430 -0.4349 -0.5525  0.4350
19894TIP3    H181097   5.365   1.690   3.349  1.0069 -0.0565 -0.4799
19894TIP3    H281098   5.328   1.732   3.490 -1.4498 -1.3967 -0.6573
19895TIP3   OH281099   0.324   5.064   1.665 -0.2720 -0.2857  0.3034
19895TIP3    H181100   0.291   5.153   1.663 -1.5420 -0.7445  0.3005
19895TIP3    H281101   0.405   5.067   1.613 -0.8229  0.6571 -0.5292
19896TIP3   OH281102   0.587   1.842   6.479 -0.0223  0.1558 -0.1638
19896TIP3    H181103   0.548   1.782   6.542  0.0331  0.5636  0.2644
19896TIP3    H281104   0.659   1.883   6.527  0.4870 -0.0703 -0.7208
19897TIP3   OH281105   2.516   1.745   2.808  0.2622  0.4764  0.1234
19897TIP3    H181106   2.564   1.724   2.888 -0.2128 -0.3710  0.1959
19897TIP3    H281107   2.432   1.701   2.818  0.2018  0.3545 -0.8470
19898TIP3   OH281108   1.232   0.857  11.802 -0.4290 -0.5048  0.5227
19898TIP3    H181109   1.143   0.869  11.837 -0.4422 -0.5426  0.5017
19898TIP3    H281110   1.226   0.888  11.712 -0.5610 -1.0505  0.3449
19899TIP3   OH281111   0.503   6.276   4.149  0.7171 -0.1682 -0.0923
19899TIP3    H181112   0.585   6.317   4.121  0.9485  0.0217  0.8174
19899TIP3    H281113   0.508   6.276   4.245 -1.4330  2.1988  0.1499
19900TIP3   OH281114   4.644   0.504   2.444 -0.9695  0.2474 -0.4553
19900TIP3    H181115   4.592   0.582   2.460 -0.4713  0.3099  1.0275
19900TIP3    H281116   4.688   0.521   2.361 -0.4533  1.8069  0.0933
19901TIP3   OH281117   5.296   6.811   5.983 -0.1025  0.1083  0.8547
19901TIP3    H181118   5.385   6.798   5.951  0.0912 -1.3518  1.9005
19901TIP3    H281119   5.296   6.899   6.022  0.8747  0.1122  0.8577
19902TIP3   OH281120   0.050   2.447  10.916 -0.1639  0.0271  0.0726
19902TIP3    H181121   0.001   2.529  10.914  0.6782  0.5663  0.7329
19902TIP3    H281122   0.026   2.402  10.835 -3.3843 -0.7340  1.2884
19903TIP3   OH281123   3.193   1.122  16.652 -0.3603 -0.2432 -0.3510
19903TIP3    H181124   3.118   1.063  16.648 -2.2056  1.8204  1.0205
19903TIP3    H281125   3.181   1.180  16.577 -0.9882  0.9536  0.6333
19904TIP3   OH281126   1.203   6.757  12.317 -0.0536 -0.3670  0.3588
19904TIP3    H181127   1.160   6.789  12.238  1.7141  1.0351 -0.1118
19904TIP3    H281128   1.134   6.713  12.367 -1.9537  1.5925 -0.4076
19905TIP3   OH281129   0.884   5.758   0.178  0.6016 -0.5292  0.4820
19905TIP3    H181130   0.792   5.769   0.200  0.7095  0.4243  0.5142
19905TIP3    H281131   0.883   5.707   0.097  0.0011  0.0993  0.0749
19906TIP3   OH281132   1.185   1.421   2.771  0.2695 -0.0206  0.2166
19906TIP3    H181133   1.232   1.453   2.695 -2.4017  0.0659 -1.5520
19906TIP3    H281134   1.153   1.334   2.745 -1.9755  0.6383  0.5484
19907TIP3   OH281135   3.131   2.727   1.578  0.3684  0.4223  0.2607
19907TIP3    H181136   3.134   2.728   1.674  2.3958  0.6910  0.2487
19907TIP3    H281137   3.059   2.668   1.557 -0.6078  0.9575  1.9364
19908TIP3   OH281138   1.141   5.260   4.906 -0.2161  0.3710  0.1232
19908TIP3    H181139   1.055   5.301   4.918 -1.2376 -1.7478  0.4171
19908TIP3    H281140   1.132   5.207   4.828  1.5396  1.7488 -1.1004
19909TIP3   OH281141   3.555   5.004   5.647  0.7532  0.0508  0.3288
19909TIP3    H181142   3.560   4.913   5.677  0.5808 -0.2274 -0.4667
19909TIP3    H281143   3.518   4.998   5.559  1.3969  0.8335 -0.0073
19910TIP3   OH281144   0.606   3.837   0.333 -0.5638 -0.0872  0.3391
19910TIP3    H181145   0.681   3.891   0.357 -1.7689  2.3236 -0.9681
19910TIP3    H281146   0.645   3.752   0.311  1.6241  0.6999  0.8608
19911TIP3   OH281147   3.844   3.364  15.999  0.0955 -0.3117  0.2669
19911TIP3    H181148   3.868   3.311  16.075 -0.9337  0.0685  0.8748
19911TIP3    H281149   3.764   3.409  16.025 -0.7471 -0.7843 -1.3305
19912TIP3   OH281150   4.850   2.413  15.041  0.2581 -0.0130 -0.5647
19912TIP3    H181151   4.776   2.397  15.099 -0.7126 -0.4214 -1.8581
19912TIP3    H281152   4.856   2.334  14.987  1.0295  0.4159 -1.1366
19913TIP3   OH281153   4.393   3.655  11.046  0.5968  0.1486 -1.0260
19913TIP3    H181154   4.344   3.582  11.009 -0.3243 -0.0270  0.4496
19913TIP3    H281155   4.338   3.686  11.119  2.2253  0.5891  0.0626
19914TIP3   OH281156   4.548   6.383  15.364  0.2176 -0.0946 -0.2206
19914TIP3    H181157   4.561   6.420  15.277 -0.2642 -2.7881 -1.5449
19914TIP3    H281158   4.457   6.401  15.385 -0.3900 -1.5194 -1.4307
19915TIP3   OH281159   3.981   3.025   4.459  0.2542 -0.9150  0.3617
19915TIP3    H181160   3.912   2.997   4.519 -2.4226 -0.9669 -2.4745
19915TIP3    H281161   4.030   2.944   4.439 -0.2225 -1.3154  0.7905
19916TIP3   OH281162   5.479   3.027   1.375  0.2653  0.0844  0.0175
19916TIP3    H181163   5.405   3.051   1.430 -0.0232  0.6613 -0.6119
19916TIP3    H281164   5.452   3.052   1.286  1.1563  0.1769 -0.2352
19917TIP3   OH281165   1.586   4.899  15.206  0.3686  0.5367 -0.4653
19917TIP3    H181166   1.543   4.947  15.136 -0.5089 -0.1595 -0.4326
19917TIP3    H281167   1.536   4.817  15.213  0.5025  0.5428  0.8859
19918TIP3   OH281168   3.734   2.295   4.967 -0.1920 -0.5385 -0.4853
19918TIP3    H181169   3.662   2.338   5.014  0.3993  0.7756 -0.7328
19918TIP3    H281170   3.776   2.240   5.033 -0.9977 -0.7819 -0.1607
19919TIP3   OH281171   5.243   4.365  15.196 -0.4871 -0.1518 -0.3008
19919TIP3    H181172   5.279   4.281  15.223  1.8354  0.8213 -0.1280
19919TIP3    H281173   5.167   4.378  15.253  0.5961 -0.9904  1.4136
19920TIP3   OH281174   6.593   3.520  12.800 -0.3671  0.3265  0.4438
19920TIP3    H181175   6.658   3.578  12.759 -0.1735  0.9448  1.5957
19920TIP3    H281176   6.633   3.433  12.796  0.7575  0.7617  1.5415
19921TIP3   OH281177   1.247   3.394  15.010  0.0888  0.5649  0.3623
19921TIP3    H181178   1.153   3.413  15.020 -0.2082 -0.2970 -0.5818
19921TIP3    H281179   1.263   3.402  14.916  0.4119 -1.5431  0.1696
19922TIP3   OH281180   6.318   4.442   2.720 -0.2583  0.1967  0.3981
19922TIP3    H181181   6.248   4.419   2.780 -0.7537  1.6472  0.4052
19922TIP3    H281182   6.377   4.366   2.722 -1.7076 -0.9869  0.5213
19923TIP3   OH281183   2.503   0.954   0.162  0.2287 -0.0041  0.4302
19923TIP3    H181184   2.491   1.011   0.238  1.5652 -0.8068  1.2928
19923TIP3    H281185   2.598   0.947   0.153  0.1905 -3.1088  1.1857
19924TIP3   OH281186   1.815   0.456  14.406  0.5542 -0.0263 -0.2320
19924TIP3    H181187   1.864   0.527  14.447 -0.9046  0.0103  1.5603
19924TIP3    H281188   1.783   0.403  14.479 -2.3703  0.1866 -1.2110
19925TIP3   OH281189   6.672   4.578  12.936 -0.2710  0.1315 -0.0873
19925TIP3    H181190   6.721   4.581  12.854 -0.5697 -1.4203 -0.3660
19925TIP3    H281191   6.729   4.619  13.000  1.4230 -1.5495 -0.4189
19926TIP3   OH281192   3.495   4.051  11.900 -0.1943  0.3391 -0.2918
19926TIP3    H181193   3.436   3.996  11.951 -0.5353  1.4138  0.5101
19926TIP3    H281194   3.530   4.113  11.963  0.0116  1.1859 -1.2160
19927TIP3   OH281195   1.214   1.160  15.174 -0.5629 -0.4114 -0.0400
19927TIP3    H181196   1.214   1.222  15.102 -0.5335 -0.4076 -0.0367
19927TIP3    H281197   1.306   1.152  15.199 -0.4414 -1.2258 -0.7058
19928TIP3   OH281198   5.529   1.551  12.374  0.2427 -0.1957 -0.2260
19928TIP3    H181199   5.458   1.520  12.430  0.5974 -1.3736 -0.4014
19928TIP3    H281200   5.584   1.605  12.431 -0.4650  0.2353  0.0518
19929TIP3   OH281201   2.255   1.021  12.106  0.1537  0.1463 -0.8012
19929TIP3    H181202   2.213   0.940  12.134 -1.8566  1.4706  0.2742
19929TIP3    H281203   2.215   1.041  12.021 -0.5925  0.8288 -0.3010
19930TIP3   OH281204   4.751   2.811   2.520 -0.0729  0.5855 -0.8100
19930TIP3    H181205   4.835   2.769   2.541  1.2567  3.0230 -0.8624
19930TIP3    H281206   4.741   2.799   2.426  1.2033  1.8602 -1.1366
19931TIP3   OH281207   0.531   6.505  13.953  0.2091 -0.0161 -0.0381
19931TIP3    H181208   0.615   6.500  13.998  0.0255 -1.9808  0.1661
19931TIP3    H281209   0.552   6.545  13.868  1.4335 -0.8527 -0.1568
19932TIP3   OH281210   3.951   4.736   5.180 -0.3102 -0.5420 -0.0151
19932TIP3    H181211   3.923   4.676   5.249  0.7694 -0.8963  0.1353
19932TIP3    H281212   3.964   4.820   5.224 -0.2531 -0.6076  0.0951
19933TIP3   OH281213   0.948   6.159   2.804  0.1393  0.2447 -0.3504
19933TIP3    H181214   0.875   6.097   2.798  0.8577 -0.5544 -1.1668
19933TIP3    H281215   0.913   6.231   2.856 -1.4710  0.2327 -1.3335
19934TIP3   OH281216   0.593   0.373   5.343  0.2582 -0.4297 -0.1944
19934TIP3    H181217   0.542   0.375   5.262  0.7172  2.2797 -0.5080
19934TIP3    H281218   0.529   0.395   5.412  0.1858 -1.1516 -0.0281
19935TIP3   OH281219   5.568   0.571  16.423  0.0816  0.7987  0.2013
19935TIP3    H181220   5.563   0.477  16.408  0.3725  0.7370  0.4792
19935TIP3    H281221   5.532   0.610  16.344  0.8290  0.4632 -0.3206
19936TIP3   OH281222   6.757   6.269  13.162 -0.2387 -0.2183 -0.0828
19936TIP3    H181223   6.725   6.333  13.226 -0.8187  0.4350 -1.0142
19936TIP3    H281224   6.799   6.202  13.216  0.2058  0.8284  0.9269
19937TIP3   OH281225   2.254   6.503   0.543 -0.1627  0.5873  0.1732
19937TIP3    H181226   2.175   6.503   0.489 -0.4159  0.2148  0.5477
19937TIP3    H281227   2.274   6.411   0.557 -1.1412  0.6511  2.2525
19938TIP3   OH281228   5.487   3.351   2.694 -0.0918  0.2819  0.3350
19938TIP3    H181229   5.417   3.329   2.632 -2.1277  1.6147  2.0404
19938TIP3    H281230   5.510   3.268   2.735 -0.4087 -0.2228 -0.4668
19939TIP3   OH281231   2.737   5.798   0.907 -0.3068 -0.9484  0.3721
19939TIP3    H181232   2.787   5.766   0.832  2.0917  1.8235  0.6322
19939TIP3    H281233   2.687   5.872   0.872 -1.4117 -1.3922  0.9551
19940TIP3   OH281234   1.580   5.149  11.803  0.1592  0.0439 -0.1287
19940TIP3    H181235   1.576   5.061  11.840 -2.7326  0.0933 -0.1684
19940TIP3    H281236   1.499   5.192  11.830  1.1475  2.4808 -0.7152
19941TIP3   OH281237   4.125   4.341  13.478 -0.0221  0.0741  0.1671
19941TIP3    H181238   4.211   4.314  13.512  0.3692  0.0833 -0.7875
19941TIP3    H281239   4.141   4.428  13.441 -0.8245  0.8021  1.4516
19942TIP3   OH281240   5.115   4.089  12.708 -0.1062  0.0820 -0.1369
19942TIP3    H181241   5.069   4.007  12.692  0.9583 -0.7646  0.9683
19942TIP3    H281242   5.208   4.065  12.707  0.3710  1.7017 -2.0865
19943TIP3   OH281243   0.777   5.516  11.773  0.5750 -0.4549  0.3867
19943TIP3    H181244   0.783   5.574  11.849  1.0764 -0.1368  0.1145
19943TIP3    H281245   0.789   5.575  11.698  0.8438 -0.8751  0.0980
19944TIP3   OH281246   5.949   3.095  11.550 -0.3645 -0.0618 -0.2509
19944TIP3    H181247   5.981   3.179  11.583  0.5367 -0.8436  0.9405
19944TIP3    H281248   6.012   3.069  11.483 -0.6136  0.1715 -0.5808
19945TIP3   OH281249   4.696   4.878  11.307  0.0677  0.8932  0.3044
19945TIP3    H181250   4.788   4.851  11.303  0.0024  0.8490 -1.2528
19945TIP3    H281251   4.697   4.970  11.283 -0.1294  1.3686  1.9929
19946TIP3   OH281252   0.463   5.711   1.743  0.0219  0.5224 -0.0263
19946TIP3    H181253   0.521   5.643   1.775  1.1134  0.5857 -1.7264
19946TIP3    H281254   0.511   5.793   1.757 -1.0448  0.9285  1.4937
19947TIP3   OH281255   0.569   5.954  15.027  0.1151  0.1132  0.0672
19947TIP3    H181256   0.650   5.904  15.039  0.9895  1.6522  0.9018
19947TIP3    H281257   0.558   5.959  14.932  0.4655 -0.9089 -0.0414
19948TIP3   OH281258   6.037   5.034  13.829 -0.7557 -0.3073  0.8533
19948TIP3    H181259   6.053   5.042  13.735 -1.2357  0.9098  0.8602
19948TIP3    H281260   5.946   5.061  13.840 -1.1708 -1.8589  1.4980
19949TIP3   OH281261   1.457   0.650   1.766  1.0777  0.3871  0.4720
19949TIP3    H181262   1.368   0.643   1.803  0.1099  0.8433 -1.6100
19949TIP3    H281263   1.485   0.739   1.786  2.2728 -0.5519  3.5145
19950TIP3   OH281264   6.607   2.909   4.906  0.3699  0.2611  0.1099
19950TIP3    H181265   6.591   2.959   4.826  0.6766 -0.1834 -0.2362
19950TIP3    H281266   6.524   2.913   4.954 -0.3872 -0.9332 -1.0459
19951TIP3   OH281267   5.239   4.025  15.127  1.0115 -0.2080  0.3721
19951TIP3    H181268   5.170   4.058  15.185  1.0846 -0.2901  0.5076
19951TIP3    H281269   5.193   3.979  15.058  0.9849 -2.0514  1.5574
19952TIP3   OH281270   5.108   6.720  12.647 -0.1667 -0.1808 -0.0765
19952TIP3    H181271   5.034   6.714  12.587 -1.6794  1.4404  1.5032
19952TIP3    H281272   5.182   6.687  12.597 -1.6676 -0.5420 -2.2075
19953TIP3   OH281273   3.151   6.619   2.445  0.0388  0.0720 -0.8062
19953TIP3    H181274   3.148   6.702   2.492 -0.7880 -1.3370  1.8238
19953TIP3    H281275   3.241   6.588   2.454 -0.5383 -1.0952  1.7064
19954TIP3   OH281276   6.652   4.288  12.948 -0.3177 -0.1532 -0.2637
19954TIP3    H181277   6.646   4.381  12.925 -0.5960  0.1165  0.8590
19954TIP3    H281278   6.602   4.280  13.029 -0.7760 -1.3968 -0.6390
19955TIP3   OH281279   0.793   4.024  12.436 -0.5263  0.0711 -0.7745
19955TIP3    H181280   0.770   3.931  12.424  0.4100 -0.2316 -0.2715
19955TIP3    H281281   0.887   4.027  12.422 -0.7164  1.1776 -2.0507
19956TIP3   OH281282   4.783   4.992   1.286 -0.1940 -0.1236  0.0415
19956TIP3    H181283   4.789   5.078   1.245  2.0057 -0.4270 -0.4038
19956TIP3    H281284   4.788   5.009   1.380 -3.1592  0.4159  0.1964
19957TIP3   OH281285   4.282   1.895  13.083  0.1050  0.1175 -0.7525
19957TIP3    H181286   4.313   1.861  12.999 -0.5059 -0.1277 -0.8774
19957TIP3    H281287   4.187   1.887  13.080  0.0884 -0.1429  0.0692
19958TIP3   OH281288   2.388   6.126  12.193 -0.1256 -0.1720 -0.0690
19958TIP3    H181289   2.450   6.108  12.265  0.8452  3.5467  0.2353
19958TIP3    H281290   2.404   6.217  12.171 -4.0870  0.3446 -1.5039
19959TIP3   OH281291   4.211   1.304   3.246 -0.1402 -0.5229  0.1558
19959TIP3    H181292   4.204   1.372   3.313 -2.4767 -1.6159  1.1306
19959TIP3    H281293   4.207   1.222   3.295  2.8078 -1.4651 -0.9723
19960TIP3   OH281294   6.806   3.408  16.553 -0.1309 -0.5163 -0.4376
19960TIP3    H181295   6.758   3.338  16.509 -0.6542 -0.3417 -0.1653
19960TIP3    H281296   6.859   3.364  16.619 -0.8629 -0.6247  0.0953
19961TIP3   OH281297   3.739   3.825  12.926 -0.3432  0.3426 -0.5248
19961TIP3    H181298   3.667   3.826  12.864 -1.4905 -0.8223  0.7230
19961TIP3    H281299   3.734   3.910  12.971 -1.9552 -0.2804  0.5981
19962TIP3   OH281300   3.608   1.830   1.087 -0.7884  0.0716 -0.2327
19962TIP3    H181301   3.525   1.800   1.125 -0.4157  0.7178  1.1503
19962TIP3    H281302   3.632   1.905   1.140  0.2827  0.3879 -1.1465
19963TIP3   OH281303   0.425   2.568  16.404  0.4675 -0.2241  0.3706
19963TIP3    H181304   0.456   2.479  16.391 -0.4985 -0.8358  1.9571
19963TIP3    H281305   0.503   2.619  16.423  0.9877 -0.7903 -0.2075
19964TIP3   OH281306   0.725   3.821   4.520  0.4148 -0.2348  0.1429
19964TIP3    H181307   0.800   3.767   4.544  2.3576  1.6029 -1.4801
19964TIP3    H281308   0.713   3.880   4.595 -0.4810 -1.5195  1.0714
19965TIP3   OH281309   2.137   0.601   2.824  0.4181 -0.0192  0.2899
19965TIP3    H181310   2.160   0.657   2.898 -2.6101  0.8839  0.6914
19965TIP3    H281311   2.090   0.660   2.764 -2.1354 -1.8313  0.3313
19966TIP3   OH281312   0.590   5.931  13.221 -0.1540  0.0240 -0.2164
19966TIP3    H181313   0.591   5.840  13.250 -0.6004  0.5204  1.5072
19966TIP3    H281314   0.631   5.979  13.294 -0.7627  1.2938 -0.6792
19967TIP3   OH281315   3.052   3.200  11.701  0.2272 -0.1792 -0.2727
19967TIP3    H181316   3.039   3.294  11.709 -0.4067 -0.3272  0.6223
19967TIP3    H281317   3.082   3.173  11.788  0.9943 -0.7181 -0.6911
19968TIP3   OH281318   2.062   0.528  13.692 -0.4134 -0.1160 -0.0541
19968TIP3    H181319   2.075   0.524  13.786  1.3692  0.3440 -0.2448
19968TIP3    H281320   2.120   0.599  13.663  0.0236 -1.0746 -1.6467
19969TIP3   OH281321   3.586   5.165   0.961 -0.4698 -0.3882  0.0695
19969TIP3    H181322   3.534   5.229   0.913 -0.2214  0.3968  0.8176
19969TIP3    H281323   3.525   5.127   1.025 -0.4433 -0.4017  0.0870
19970TIP3   OH281324   2.875   3.712  12.869 -0.3127  0.0840  0.5540
19970TIP3    H181325   2.938   3.674  12.808  0.5566 -2.0021  2.5906
19970TIP3    H281326   2.794   3.718  12.820  0.6347 -0.3561 -1.1378
19971TIP3   OH281327   1.621   0.106   4.965 -0.5147 -0.3325 -0.2180
19971TIP3    H181328   1.603   0.177   4.903 -0.3013  0.0354  0.1409
19971TIP3    H281329   1.593   0.140   5.050  1.3922  0.0788  0.2902
19972TIP3   OH281330   0.819   5.292  16.635 -0.1257 -0.0608 -0.1174
19972TIP3    H181331   0.819   5.291  16.731  2.6514 -2.2446 -0.0057
19972TIP3    H281332   0.799   5.382  16.612  0.7956  0.9461  2.6021
19973TIP3   OH281333   3.500   6.608  15.822 -0.5474  0.3798  0.1137
19973TIP3    H181334   3.456   6.607  15.907 -1.5328  1.7917 -0.3424
19973TIP3    H281335   3.441   6.560  15.764  0.2243 -0.7631  0.2533
19974TIP3   OH281336   5.982   0.795   5.843 -0.1366  0.1731  0.3163
19974TIP3    H181337   5.993   0.762   5.754  0.6522 -0.4094  0.6211
19974TIP3    H281338   5.905   0.852   5.838  1.0008  1.6592 -1.1658
19975TIP3   OH281339   3.972   0.420   0.665  0.7556  0.0511  0.0597
19975TIP3    H181340   3.878   0.426   0.646  1.0031  1.7501 -0.7685
19975TIP3    H281341   3.976   0.391   0.756 -0.5335 -1.6995 -0.3829
19976TIP3   OH281342   5.220   3.501  15.203 -0.1736 -0.1827 -0.1359
19976TIP3    H181343   5.137   3.457  15.224 -0.2709  0.0840  0.0376
19976TIP3    H281344   5.196   3.571  15.143 -0.6276  2.1944  2.6097
19977TIP3   OH281345   4.674   2.300  13.553  0.1094 -0.7690 -0.2652
19977TIP3    H181346   4.597   2.280  13.500  0.3129 -2.1311 -0.1007
19977TIP3    H281347   4.668   2.240  13.627  0.6127  0.0805  0.4787
19978TIP3   OH281348   3.124   5.488   5.525  0.1007 -0.8556  0.4620
19978TIP3    H181349   3.097   5.521   5.611  0.0951 -0.2743  0.2422
19978TIP3    H281350   3.206   5.442   5.542  0.5905  0.0644  0.6371
19979TIP3   OH281351   1.224   3.255  12.350  0.4153 -0.3504 -0.0468
19979TIP3    H181352   1.272   3.245  12.433  2.7451 -0.4953 -1.3276
19979TIP3    H281353   1.276   3.206  12.286 -3.6481 -4.1450 -0.9007
19980TIP3   OH281354   2.187   0.843   4.919 -0.2588  0.2509 -0.0739
19980TIP3    H181355   2.135   0.908   4.964  1.7452  1.7806  0.1932
19980TIP3    H281356   2.267   0.889   4.893  1.1616 -2.0256 -0.1059
19981TIP3   OH281357   6.644   2.244  12.975 -0.1381  0.0621 -0.1079
19981TIP3    H181358   6.682   2.309  13.034 -1.9755  0.0799  1.1603
19981TIP3    H281359   6.655   2.160  13.021 -1.4343  0.0530  0.2239
19982TIP3   OH281360   2.619   1.467   1.646  0.0993  0.1673 -0.2541
19982TIP3    H181361   2.647   1.531   1.712 -0.5961  0.2794 -0.0582
19982TIP3    H281362   2.675   1.485   1.570  1.8606 -0.8282  0.7214
19983TIP3   OH281363   2.527   0.954  12.552 -0.0283  0.2902 -0.2433
19983TIP3    H181364   2.598   0.898  12.583  0.5360  1.6216  1.0039
19983TIP3    H281365   2.569   1.039  12.536 -1.0717  0.6888 -0.9309
19984TIP3   OH281366   6.256   5.446   0.615 -0.0193  0.4679  0.6023
19984TIP3    H181367   6.168   5.480   0.631  0.2055  1.9777 -1.0760
19984TIP3    H281368   6.313   5.523   0.618  0.8917 -0.1075 -0.6834
19985TIP3   OH281369   5.517   2.842  12.077 -0.4046 -0.6078 -0.7505
19985TIP3    H181370   5.520   2.762  12.130  1.5094  0.0350  0.1946
19985TIP3    H281371   5.576   2.903  12.121 -0.7539  0.8709 -2.2087
19986LIG      O81372   2.056   1.615   7.792  0.3727 -0.1990 -0.1065
19986LIG     C181373   2.174   1.555   7.740  0.6434 -0.3656  0.2914
19986LIG     C281374   2.199   1.608   7.596 -0.2691 -0.0369  0.4378
19986LIG     C381375   2.294   1.576   7.828  0.3377  0.2258 -0.0843
19986LIG     H181376   2.152   1.448   7.721 -1.5730  0.2689 -1.0379
19986LIG     H281377   2.219   1.717   7.603 -0.1990 -0.1428  2.3049
19986LIG     H381378   2.114   1.588   7.526 -0.1158 -0.5632  0.3997
19986LIG     H481379   2.289   1.552   7.565  0.6329  0.7875  1.5008
19986LIG     H581380   2.310   1.684   7.847  0.9707  0.0609  0.3760
19986LIG     H681381   2.397   1.539   7.805  0.9313  1.7234  0.0353
19986LIG     H781382   2.262   1.538   7.927  0.4621 -0.2372 -0.2147
19986LIG     H881383   2.040   1.559   7.869  1.7004 -1.6358 -0.8331
   6.81170   6.81170  17.17671
