;;
;; Generated by CHARMM-GUI (http://www.charmm-gui.org) v1.7
;;
;; psf2itp_mol.py
;;
;; Correspondance:
;; jul316@lehigh.edu or wonpil@lehigh.edu
;;
;; GROMACS topology file for LIG
;;


[ moleculetype ]
; name	nrexcl
LIG	     3

[ atoms ]
; nr	type	resnr	residu	atom	cgnr	charge	mass
     1      SG311      1      LIG      S      1     -0.423    32.0600   ; qtot -0.423
     2      OG2D1      1      LIG     O1      2     -0.469    15.9994   ; qtot -0.892
     3      OG302      1      LIG     O2      3     -0.077    15.9994   ; qtot -0.969
     4      OG2D1      1      LIG     O3      4     -0.619    15.9994   ; qtot -1.588
     5      OG2D1      1      LIG     O4      5     -0.532    15.9994   ; qtot -2.120
     6      OG302      1      LIG     O5      6     -0.295    15.9994   ; qtot -2.415
     7      OG2D1      1      LIG     O6      7     -0.380    15.9994   ; qtot -2.795
     8     NG2R43      1      LIG     N1      8     -0.136    14.0070   ; qtot -2.931
     9      NG2S1      1      LIG     N2      9     -0.547    14.0070   ; qtot -3.478
    10     CG3RC1      1      LIG     C1     10      0.054    12.0110   ; qtot -3.424
    11     CG3C50      1      LIG     C2     11     -0.006    12.0110   ; qtot -3.430
    12     CG3C51      1      LIG     C3     12      0.095    12.0110   ; qtot -3.335
    13     CG3C41      1      LIG     C4     13      0.314    12.0110   ; qtot -3.021
    14     CG2R53      1      LIG     C5     14      0.254    12.0110   ; qtot -2.767
    15      CG331      1      LIG     C6     15     -0.142    12.0110   ; qtot -2.909
    16      CG331      1      LIG     C7     16     -0.142    12.0110   ; qtot -3.051
    17      CG2O2      1      LIG     C8     17      0.825    12.0110   ; qtot -2.226
    18      CG2O1      1      LIG     C9     18      0.515    12.0110   ; qtot -1.711
    19      CG321      1      LIG    C10     19     -0.118    12.0110   ; qtot -1.829
    20      CG2O6      1      LIG    C11     20      0.204    12.0110   ; qtot -1.625
    21     CG2R61      1      LIG    C12     21     -0.004    12.0110   ; qtot -1.629
    22     CG2R61      1      LIG    C13     22     -0.122    12.0110   ; qtot -1.751
    23     CG2R61      1      LIG    C14     23     -0.122    12.0110   ; qtot -1.873
    24     CG2R61      1      LIG    C15     24     -0.107    12.0110   ; qtot -1.980
    25     CG2R61      1      LIG    C16     25     -0.107    12.0110   ; qtot -2.087
    26      CG321      1      LIG    C17     26      0.142    12.0110   ; qtot -1.945
    27     CG2R61      1      LIG    C18     27     -0.115    12.0110   ; qtot -2.060
    28      CG331      1      LIG    C19     28     -0.271    12.0110   ; qtot -2.331
    29       HGA1      1      LIG     H1     29      0.090     1.0080   ; qtot -2.241
    30       HGA1      1      LIG     H2     30      0.090     1.0080   ; qtot -2.151
    31       HGA1      1      LIG     H3     31      0.090     1.0080   ; qtot -2.061
    32       HGA3      1      LIG     H4     32      0.090     1.0080   ; qtot -1.971
    33       HGA3      1      LIG     H5     33      0.090     1.0080   ; qtot -1.881
    34       HGA3      1      LIG     H6     34      0.090     1.0080   ; qtot -1.791
    35       HGA3      1      LIG     H7     35      0.090     1.0080   ; qtot -1.701
    36       HGA3      1      LIG     H8     36      0.090     1.0080   ; qtot -1.611
    37       HGA3      1      LIG     H9     37      0.090     1.0080   ; qtot -1.521
    38       HGP1      1      LIG    H10     38      0.316     1.0080   ; qtot -1.205
    39       HGA2      1      LIG    H11     39      0.090     1.0080   ; qtot -1.115
    40       HGA2      1      LIG    H12     40      0.090     1.0080   ; qtot -1.025
    41      HGR61      1      LIG    H13     41      0.115     1.0080   ; qtot -0.910
    42      HGR61      1      LIG    H14     42      0.115     1.0080   ; qtot -0.795
    43      HGR61      1      LIG    H15     43      0.115     1.0080   ; qtot -0.680
    44      HGR61      1      LIG    H16     44      0.115     1.0080   ; qtot -0.565
    45       HGA2      1      LIG    H17     45      0.090     1.0080   ; qtot -0.475
    46       HGA2      1      LIG    H18     46      0.090     1.0080   ; qtot -0.385
    47      HGR61      1      LIG    H19     47      0.115     1.0080   ; qtot -0.270
    48       HGA3      1      LIG    H20     48      0.090     1.0080   ; qtot -0.180
    49       HGA3      1      LIG    H21     49      0.090     1.0080   ; qtot -0.090
    50       HGA3      1      LIG    H22     50      0.090     1.0080   ; qtot  0.000

[ bonds ]
; ai	aj	funct	b0	Kb
    1    10     1
    1    11     1
    2    14     1
    3    17     1
    3    20     1
    4    17     1
    5    18     1
    6    20     1
    6    26     1
    7    20     1
    8    10     1
    8    12     1
    8    14     1
    9    13     1
    9    18     1
    9    38     1
   10    13     1
   10    29     1
   11    12     1
   11    15     1
   11    16     1
   12    17     1
   12    30     1
   13    14     1
   13    31     1
   15    32     1
   15    33     1
   15    34     1
   16    35     1
   16    36     1
   16    37     1
   18    19     1
   19    21     1
   19    39     1
   19    40     1
   21    22     1
   21    23     1
   22    24     1
   22    41     1
   23    25     1
   23    42     1
   24    27     1
   24    43     1
   25    27     1
   25    44     1
   26    28     1
   26    45     1
   26    46     1
   27    47     1
   28    48     1
   28    49     1
   28    50     1

[ pairs ]
; ai	aj	funct	c6	c12
    1     9     1 
    1    14     1 
    1    17     1 
    1    30     1 
    1    31     1 
    1    32     1 
    1    33     1 
    1    34     1 
    1    35     1 
    1    36     1 
    1    37     1 
    2     9     1 
    2    10     1 
    2    12     1 
    2    31     1 
    3     8     1 
    3    11     1 
    3    26     1 
    3    30     1 
    4     8     1 
    4    11     1 
    4    20     1 
    4    30     1 
    5    13     1 
    5    21     1 
    5    38     1 
    5    39     1 
    5    40     1 
    6    17     1 
    6    48     1 
    6    49     1 
    6    50     1 
    7    17     1 
    7    26     1 
    8     9     1 
    8    10     1 
    8    14     1 
    8    15     1 
    8    16     1 
    8    31     1 
    9    21     1 
    9    29     1 
    9    39     1 
    9    40     1 
   10    13     1 
   10    15     1 
   10    16     1 
   10    17     1 
   10    18     1 
   10    30     1 
   10    38     1 
   11    13     1 
   11    14     1 
   11    29     1 
   12    13     1 
   12    20     1 
   12    29     1 
   12    32     1 
   12    33     1 
   12    34     1 
   12    35     1 
   12    36     1 
   12    37     1 
   13    14     1 
   13    19     1 
   14    17     1 
   14    18     1 
   14    29     1 
   14    30     1 
   14    38     1 
   15    17     1 
   15    30     1 
   15    35     1 
   15    36     1 
   15    37     1 
   16    17     1 
   16    30     1 
   16    32     1 
   16    33     1 
   16    34     1 
   18    22     1 
   18    23     1 
   18    31     1 
   19    24     1 
   19    25     1 
   19    38     1 
   19    41     1 
   19    42     1 
   20    28     1 
   20    45     1 
   20    46     1 
   21    27     1 
   21    43     1 
   21    44     1 
   22    25     1 
   22    39     1 
   22    40     1 
   22    42     1 
   22    47     1 
   23    24     1 
   23    39     1 
   23    40     1 
   23    41     1 
   23    47     1 
   24    44     1 
   25    43     1 
   27    41     1 
   27    42     1 
   29    31     1 
   31    38     1 
   41    43     1 
   42    44     1 
   43    47     1 
   44    47     1 
   45    48     1 
   45    49     1 
   45    50     1 
   46    48     1 
   46    49     1 
   46    50     1 

[ angles ] 
; ai	aj	ak	funct	th0	cth	S0	Kub
   10     1    11     5
   17     3    20     5
   20     6    26     5
   10     8    12     5
   10     8    14     5
   12     8    14     5
   13     9    18     5
   13     9    38     5
   18     9    38     5
    1    10     8     5
    1    10    13     5
    1    10    29     5
    8    10    13     5
    8    10    29     5
   13    10    29     5
    1    11    12     5
    1    11    15     5
    1    11    16     5
   12    11    15     5
   12    11    16     5
   15    11    16     5
    8    12    11     5
    8    12    17     5
    8    12    30     5
   11    12    17     5
   11    12    30     5
   17    12    30     5
    9    13    10     5
    9    13    14     5
    9    13    31     5
   10    13    14     5
   10    13    31     5
   14    13    31     5
    2    14     8     5
    2    14    13     5
    8    14    13     5
   11    15    32     5
   11    15    33     5
   11    15    34     5
   32    15    33     5
   32    15    34     5
   33    15    34     5
   11    16    35     5
   11    16    36     5
   11    16    37     5
   35    16    36     5
   35    16    37     5
   36    16    37     5
    3    17     4     5
    3    17    12     5
    4    17    12     5
    5    18     9     5
    5    18    19     5
    9    18    19     5
   18    19    21     5
   18    19    39     5
   18    19    40     5
   21    19    39     5
   21    19    40     5
   39    19    40     5
    3    20     6     5
    3    20     7     5
    6    20     7     5
   19    21    22     5
   19    21    23     5
   22    21    23     5
   21    22    24     5
   21    22    41     5
   24    22    41     5
   21    23    25     5
   21    23    42     5
   25    23    42     5
   22    24    27     5
   22    24    43     5
   27    24    43     5
   23    25    27     5
   23    25    44     5
   27    25    44     5
    6    26    28     5
    6    26    45     5
    6    26    46     5
   28    26    45     5
   28    26    46     5
   45    26    46     5
   24    27    25     5
   24    27    47     5
   25    27    47     5
   26    28    48     5
   26    28    49     5
   26    28    50     5
   48    28    49     5
   48    28    50     5
   49    28    50     5

[ dihedrals ]
; ai	aj	ak	al	funct	phi0	cp	mult
   11     1    10    13     9
   11     1    10    29     9
   10     1    11    12     9
   10     1    11    15     9
   10     1    11    16     9
   20     6    26    28     9
   20     6    26    45     9
   20     6    26    46     9
   12     8    10    13     9
   12     8    10    29     9
   14     8    10    29     9
   10     8    12    11     9
   10     8    12    17     9
   10     8    12    30     9
   14     8    12    17     9
   14     8    12    30     9
   10     8    14    13     9
   12     8    14    13     9
   18     9    13    31     9
   13     9    18    19     9
    8    10     1    11     9
    1    10     8    12     9
    1    10     8    14     9
   13    10     8    14     9
    1    10    13     9     9
    1    10    13    14     9
    1    10    13    31     9
    8    10    13     9     9
    8    10    13    14     9
    8    10    13    31     9
   29    10    13    31     9
    1    11    12     8     9
    1    11    12    17     9
    1    11    12    30     9
   15    11    12    17     9
   15    11    12    30     9
   16    11    12    17     9
   16    11    12    30     9
    1    11    15    32     9
    1    11    15    33     9
    1    11    15    34     9
   12    11    15    32     9
   12    11    15    33     9
   12    11    15    34     9
   16    11    15    32     9
   16    11    15    33     9
   16    11    15    34     9
    1    11    16    35     9
    1    11    16    36     9
    1    11    16    37     9
   12    11    16    35     9
   12    11    16    36     9
   12    11    16    37     9
   15    11    16    35     9
   15    11    16    36     9
   15    11    16    37     9
   11    12     8    14     9
    8    12    11    15     9
    8    12    11    16     9
   10    13     9    18     9
   10    13     9    38     9
   14    13     9    18     9
   14    13     9    38     9
   31    13     9    38     9
    9    13    10    29     9
   14    13    10    29     9
    2    14     8    10     9
    2    14     8    12     9
    2    14    13     9     9
    2    14    13    10     9
    2    14    13    31     9
    8    14    13     9     9
    8    14    13    10     9
    8    14    13    31     9
    4    17     3    20     9
   12    17     3    20     9
    3    17    12     8     9
    3    17    12    11     9
    3    17    12    30     9
    4    17    12     8     9
    4    17    12    11     9
    4    17    12    30     9
    5    18     9    13     9
    5    18     9    38     9
   19    18     9    38     9
    5    18    19    21     9
    5    18    19    39     9
    5    18    19    40     9
    9    18    19    21     9
    9    18    19    39     9
    9    18    19    40     9
   18    19    21    22     9
   18    19    21    23     9
    6    20     3    17     9
    7    20     3    17     9
    3    20     6    26     9
    7    20     6    26     9
   22    21    19    39     9
   22    21    19    40     9
   23    21    19    39     9
   23    21    19    40     9
   19    21    22    24     9
   19    21    22    41     9
   23    21    22    24     9
   23    21    22    41     9
   19    21    23    25     9
   19    21    23    42     9
   22    21    23    25     9
   22    21    23    42     9
   21    22    24    27     9
   21    22    24    43     9
   41    22    24    43     9
   21    23    25    27     9
   21    23    25    44     9
   42    23    25    44     9
   27    24    22    41     9
   22    24    27    25     9
   22    24    27    47     9
   43    24    27    47     9
   27    25    23    42     9
   23    25    27    24     9
   23    25    27    47     9
   44    25    27    47     9
    6    26    28    48     9
    6    26    28    49     9
    6    26    28    50     9
   45    26    28    48     9
   45    26    28    49     9
   45    26    28    50     9
   46    26    28    48     9
   46    26    28    49     9
   46    26    28    50     9
   25    27    24    43     9
   24    27    25    44     9

[ dihedrals ]
; ai	aj	ak	al	funct	q0	cq
   14    13     8     2     2
   17    12     4     3     2
   18    19     9     5     2
   20     3     6     7     2
